
    -----------------------------------------------------------------------
          Psi4: An Open-Source Ab Initio Electronic Structure Package
                               Psi4 1.2a1.dev263 

                         Git: Rev {master} ae466b2 


    R. M. Parrish, L. A. Burns, D. G. A. Smith, A. C. Simmonett,
    A. E. DePrince III, E. G. Hohenstein, U. Bozkaya, A. Yu. Sokolov,
    R. Di Remigio, R. M. Richard, J. F. Gonthier, A. M. James,
    H. R. McAlexander, A. Kumar, M. Saitow, X. Wang, B. P. Pritchard,
    P. Verma, H. F. Schaefer III, K. Patkowski, R. A. King, E. F. Valeev,
    F. A. Evangelista, J. M. Turney, T. D. Crawford, and C. D. Sherrill,
    J. Chem. Theory Comput. in press (2017).
    (doi: 10.1021/acs.jctc.7b00174)

    -----------------------------------------------------------------------


    Psi4 started on: Monday, 05 June 2017 12:17PM

    Process ID:  22400
    PSIDATADIR: /Users/york/src/psi4new/psi4/share/psi4
    Memory:     500.0 MiB
    Threads:    1
    
  ==> Input File <==

--------------------------------------------------------------------------
#! Generated using commit GITCOMMIT

import forte

refcasscf    = -109.090719613072
refpt2       = -109.245583534390491
refpt2_relax = -109.246090954577227

molecule N2{
  0 1
  N
  N  1 R

  R = 1.120
}

set {
  basis                  cc-pvdz
  reference              rhf
  scf_type               out_of_core
  maxiter                300
  e_convergence          10
  d_convergence          8
  docc                   [3,0,0,0,0,2,1,1]
  restricted_docc        [2,0,0,0,0,2,0,0]
  active                 [1,0,1,1,0,1,1,1]
  mcscf_maxiter          100
  mcscf_r_convergence    8
  mcscf_e_convergence    10
  mcscf_diis_start       6
}

Ecasscf, wfn_cas = energy('casscf', return_wfn=True)
compare_values(refcasscf,get_variable("CURRENT ENERGY"),10,"CASSCF energy") #TEST

set forte {
  job_type           dsrg-mrpt2
  frozen_docc        [1,0,0,0,0,1,0,0]
  frozen_uocc        [0,0,0,0,0,0,0,0]
  restricted_docc    [1,0,0,0,0,1,0,0]
  active             [1,0,1,1,0,1,1,1]
  root_sym           0
  nroot              1
  dsrg_s             0.5
  ntrial_per_root    56
  relax_ref          once
  semi_canonical     false
  cas_type           cas
}

Eforte, wfn_cas = energy('forte', ref_wfn=wfn_cas, return_wfn=True)
compare_values(refpt2_relax,get_variable("CURRENT ENERGY"),10,"DSRG-MRPT2 relaxed energy") #TEST
--------------------------------------------------------------------------

*** tstart() called on Yorks-Mac.local
*** at Mon Jun  5 12:17:21 2017

   => Loading Basis Set <=

    Name: CC-PVDZ
    Role: ORBITAL
    Keyword: BASIS
    atoms 1-2 entry N          line   161 file /Users/york/src/psi4new/psi4/share/psi4/basis/cc-pvdz.gbs 


         ---------------------------------------------------------
                                   SCF
            by Justin Turney, Rob Parrish, Andy Simmonett
                             and Daniel Smith
                              RHF Reference
                        1 Threads,    500 MiB Core
         ---------------------------------------------------------

  ==> Geometry <==

    Molecular point group: d2h
    Full point group: D_inf_h

    Geometry (in Angstrom), charge = 0, multiplicity = 1:

       Center              X                  Y                   Z               Mass       
    ------------   -----------------  -----------------  -----------------  -----------------
           N          0.000000000000     0.000000000000    -0.560000000000    14.003074004780
           N          0.000000000000     0.000000000000     0.560000000000    14.003074004780

  Running in d2h symmetry.

  Rotational constants: A = ************  B =      1.91941  C =      1.91941 [cm^-1]
  Rotational constants: A = ************  B =  57542.37227  C =  57542.37227 [MHz]
  Nuclear repulsion =   23.151502875812497

  Charge       = 0
  Multiplicity = 1
  Electrons    = 14
  Nalpha       = 7
  Nbeta        = 7

  ==> Algorithm <==

  SCF Algorithm Type is OUT_OF_CORE.
  DIIS enabled.
  MOM disabled.
  Fractional occupation disabled.
  Guess Type is SAD.
  Energy threshold   = 1.00e-10
  Density threshold  = 1.00e-08
  Integral threshold = 0.00e+00

  ==> Primary Basis <==

  Basis Set: CC-PVDZ
    Blend: CC-PVDZ
    Number of shells: 12
    Number of basis function: 28
    Number of Cartesian functions: 30
    Spherical Harmonics?: true
    Max angular momentum: 2

  ==> Pre-Iterations <==

   -------------------------------------------------------
    Irrep   Nso     Nmo     Nalpha   Nbeta   Ndocc  Nsocc
   -------------------------------------------------------
     Ag         7       7       3       3       3       0
     B1g        1       1       0       0       0       0
     B2g        3       3       0       0       0       0
     B3g        3       3       0       0       0       0
     Au         1       1       0       0       0       0
     B1u        7       7       2       2       2       0
     B2u        3       3       1       1       1       0
     B3u        3       3       1       1       1       0
   -------------------------------------------------------
    Total      28      28       7       7       7       0
   -------------------------------------------------------

  ==> Integral Setup <==

  ==> DiskJK: Disk-Based J/K Matrices <==

    J tasked:                  Yes
    K tasked:                  Yes
    wK tasked:                  No
    Memory (MB):               375
    Schwarz Cutoff:          1E-12

  Minimum eigenvalue in the overlap matrix is 6.6806606693E-03.
  Using Symmetric Orthogonalization.

  SCF Guess: Superposition of Atomic Densities via on-the-fly atomic UHF.

  ==> Iterations <==

                        Total Energy        Delta E     RMS |[F,P]|

   @RHF iter   0:  -108.99545513910282   -1.08995e+02   1.90477e-01 
   @RHF iter   1:  -108.93542213770650    6.00330e-02   1.44008e-02 
   @RHF iter   2:  -108.94871294111866   -1.32908e-02   3.32994e-03 DIIS
   @RHF iter   3:  -108.94952769233524   -8.14751e-04   8.14408e-04 DIIS
   @RHF iter   4:  -108.94959169820709   -6.40059e-05   5.69310e-05 DIIS
   @RHF iter   5:  -108.94959195213487   -2.53928e-07   7.23450e-06 DIIS
   @RHF iter   6:  -108.94959195748380   -5.34894e-09   1.07288e-06 DIIS
   @RHF iter   7:  -108.94959195763037   -1.46571e-10   1.04550e-07 DIIS
   @RHF iter   8:  -108.94959195763153   -1.15108e-12   5.54249e-09 DIIS

  ==> Post-Iterations <==

    Orbital Energies (a.u.)
    -----------------------

    Doubly Occupied:                                                      

       1Ag   -15.693462     1B1u  -15.690468     2Ag    -1.454830  
       2B1u   -0.781291     3Ag    -0.624240     1B3u   -0.598860  
       1B2u   -0.598860  

    Virtual:                                                              

       1B3g    0.163970     1B2g    0.163970     3B1u    0.586976  
       4Ag     0.828451     2B2u    0.878361     2B3u    0.878361  
       5Ag     0.989711     2B2g    1.046086     2B3g    1.046086  
       4B1u    1.110749     5B1u    1.621145     1B1g    1.764773  
       6Ag     1.764773     3B3u    1.859907     3B2u    1.859907  
       1Au     2.283869     6B1u    2.283869     7Ag     2.847752  
       3B3g    2.971337     3B2g    2.971337     7B1u    3.237511  

    Final Occupation by Irrep:
             Ag   B1g   B2g   B3g    Au   B1u   B2u   B3u 
    DOCC [     3,    0,    0,    0,    0,    2,    1,    1 ]

  Energy converged.

  @RHF Final Energy:  -108.94959195763153

   => Energetics <=

    Nuclear Repulsion Energy =             23.1515028758124970
    One-Electron Energy =                -193.3181686176926348
    Two-Electron Energy =                  61.2170737842486190
    Total Energy =                       -108.9495919576315259



Properties will be evaluated at   0.000000,   0.000000,   0.000000 Bohr

Properties computed using the SCF density matrix

  Nuclear Dipole Moment: (a.u.)
     X:     0.0000      Y:     0.0000      Z:     0.0000

  Electronic Dipole Moment: (a.u.)
     X:     0.0000      Y:     0.0000      Z:     0.0000

  Dipole Moment: (a.u.)
     X:     0.0000      Y:     0.0000      Z:     0.0000     Total:     0.0000

  Dipole Moment: (Debye)
     X:     0.0000      Y:     0.0000      Z:     0.0000     Total:     0.0000


*** tstop() called on Yorks-Mac.local at Mon Jun  5 12:17:22 2017
Module time:
	user time   =       0.37 seconds =       0.01 minutes
	system time =       0.04 seconds =       0.00 minutes
	total time  =          1 seconds =       0.02 minutes
Total time:
	user time   =       0.37 seconds =       0.01 minutes
	system time =       0.04 seconds =       0.00 minutes
	total time  =          1 seconds =       0.02 minutes
 MINTS: Wrapper to libmints.
   by Justin Turney

   Calculation information:
      Number of threads:                 1
      Number of atoms:                   2
      Number of AO shells:              12
      Number of SO shells:               6
      Number of primitives:             44
      Number of atomic orbitals:        30
      Number of basis functions:        28

      Number of irreps:                  8
      Integral cutoff                 1.00e-12
      Number of functions per irrep: [   7    1    3    3    1    7    3    3 ]

 OEINTS: Overlap, kinetic, potential, dipole, and quadrupole integrals
         stored in file 35.

      Computing two-electron integrals...done
      Computed 10381 non-zero two-electron integrals.
        Stored in file 33.


         ---------------------------------------------------------
                Multi-Configurational Self-Consistent Field
                            (a 'D E T C I' module)

                 Daniel G. A. Smith, C. David Sherrill, and
                              Matt L. Leininger
         ---------------------------------------------------------


   ==> Parameters <==

    EX LEVEL       =        6      H0 BLOCKSIZE  =     1000
    VAL EX LEVEL   =        0      H0 GUESS SIZE =     1000
    H0COUPLINGSIZE =        0      H0 COUPLING   =       NO
    MAXITER        =       12      NUM PRINT     =       20
    NUM ROOTS      =        1      ICORE         =        1
    PRINT LVL      =        1      FCI           =      YES
    R CONV         = 1.00e-07      MIXED         =      YES
    E CONV         = 1.00e-10      MIXED4        =      YES
    R4S            =       NO      REPL OTF      =       NO
    DIAG METHOD    =      SEM      FOLLOW ROOT   =        0
    PRECONDITIONER = DAVIDSON      UPDATE        = DAVIDSON
    S              =   0.0000      Ms0           =      YES
    GUESS VECTOR   =  H0BLOCK      OPENTYPE      =     NONE
    COLLAPSE SIZE  =        1      HD AVG        = EVANGELISTI
    MAX NUM VECS   =       13      REF SYM       =     AUTO
    IOPEN        =       NO

    EX ALLOW       =  1  1  1  1  1  1 
    STATE AVERAGE  =  0(1.00) 

   ==> CI Orbital and Space information <==

   ------------------------------------------------------------------------------
               Space    Total    Ag   B1g   B2g   B3g    Au   B1u   B2u   B3u
   ------------------------------------------------------------------------------
                 Nso       28     7     1     3     3     1     7     3     3
                 Nmo       28     7     1     3     3     1     7     3     3
               Ndocc        7     3     0     0     0     0     2     1     1
               Nsocc        0     0     0     0     0     0     0     0     0
   ------------------------------------------------------------------------------
                                    MCSCF Spaces
   ------------------------------------------------------------------------------
         Frozen DOCC        0     0     0     0     0     0     0     0     0
     Restricted DOCC        4     2     0     0     0     0     2     0     0
              Active        6     1     0     1     1     0     1     1     1
     Restricted UOCC       18     4     1     2     2     1     4     2     2
         Frozen UOCC        0     0     0     0     0     0     0     0     0
   ------------------------------------------------------------------------------

   ==> Setting up CI strings <==

    There are 20 alpha and 20 beta strings
    The CI space requires 56 (5.60E+01) determinants and 8 blocks

   ==> Setting up MCSCF integrals <==

  ==> DiskJK: Disk-Based J/K Matrices <==

    J tasked:                  Yes
    K tasked:                  Yes
    wK tasked:                  No
    Memory (MB):              3200
    Schwarz Cutoff:          1E-12


   ==> Starting MCSCF iterations <==

        Iter         Total Energy       Delta E   Orb RMS    CI RMS  NCI NORB
   @MCSCF  1:   -109.021728886276   -7.2137e-02  2.26e-02  2.28e-13    1    1  Initial CI
      Warning! Maxstep = 1.40, scaling to 0.50
   @MCSCF  2:   -109.043406503874   -2.1678e-02  2.08e-02  1.17e-05    6    1  TS
      Warning! Maxstep = 0.61, scaling to 0.50
   @MCSCF  3:   -109.072862815782   -2.9456e-02  1.53e-02  6.52e-06    7    1  TS
   @MCSCF  4:   -109.085216218265   -1.2353e-02  6.84e-03  5.60e-06    7    1  TS
   @MCSCF  5:   -109.088712956528   -3.4967e-03  4.13e-03  4.41e-06    6    1  TS
   @MCSCF  6:   -109.089967055431   -1.2541e-03  3.19e-03  2.21e-06    6    1  TS
   @MCSCF  7:   -109.090441534078   -4.7448e-04  2.24e-03  2.32e-06    6    1  TS, DIIS
   @MCSCF  8:   -109.090618333528   -1.7680e-04  1.49e-03  1.67e-06    6    1  TS, DIIS
   @MCSCF  9:   -109.090661070558   -4.2737e-05  9.06e-04  9.24e-07    7    1  TS, DIIS
   @MCSCF 10:   -109.090702404769   -4.1334e-05  5.02e-04  1.89e-07    7    1  TS, DIIS
   @MCSCF 11:   -109.090718009296   -1.5605e-05  1.54e-04  1.43e-07    7    1  TS, DIIS
   @MCSCF 12:   -109.090719602497   -1.5932e-06  1.23e-05  5.79e-08    7    1  TS, DIIS
   @MCSCF 13:   -109.090719611235   -8.7374e-09  5.07e-06  2.05e-09    7    1  TS, DIIS
   @MCSCF 14:   -109.090719613036   -1.8014e-09  7.54e-07  1.40e-09    7    1  TS, DIIS
   @MCSCF 15:   -109.090719613072   -3.5527e-11  4.07e-08  2.26e-10    7    1  TS, DIIS
   @MCSCF 16:   -109.090719613072   -8.5265e-14  5.29e-09  1.10e-11    7    1  TS, DIIS

          @MCSCF has converged!

   @MCSCF Final Energy: -109.090719613071741

   Computing CI Semicanonical Orbitals
   (n = 8): 0  0  0  0  0  0  0  0  
   (n = 8): 2  0  0  0  0  2  0  0  
   (n = 8): 2  0  0  0  0  2  0  0  
   (n = 8): 3  0  1  1  0  3  1  1  
   (n = 8): 3  0  1  1  0  3  1  1  
   (n = 8): 7  1  3  3  1  7  3  3  

   ==> Energetics <==

    SCF energy =         -108.949591957631526
    Total MCSCF energy = -109.090719613071741

   ==> MCSCF root 0 information <==

    MCSCF Root 0 energy =  -109.090719613071769

   Active Space Natural occupation numbers:

        Ag   1.980741       B2u   1.937634       B3u   1.937634
       B2g   0.062272       B3g   0.062272       B1u   0.019445

   The 20 most important determinants:

    *   1   -0.964794  (    5,    5)  3AgX 1B2uX 1B3uX 
    *   2    0.125899  (   11,   11)  3AgX 1B2gX 1B2uX 
    *   3    0.125899  (   12,   12)  3AgX 1B3gX 1B3uX 
    *   4   -0.079185  (   11,   12)  3AgX 1B2gA 1B3gB 1B2uA 1B3uB 
    *   5   -0.079185  (   12,   11)  3AgX 1B2gB 1B3gA 1B2uB 1B3uA 
    *   6   -0.049436  (    2,    5)  3AgX 1B2gA 1B3gA 1B2uB 1B3uB 
    *   7   -0.049436  (    5,    2)  3AgX 1B2gB 1B3gB 1B2uA 1B3uA 
    *   8    0.048612  (   13,   13)  3B1uX 1B2uX 1B3uX 
    *   9    0.044354  (   11,   13)  3AgA 1B2gA 3B1uB 1B2uX 1B3uB 
    *  10    0.044354  (   13,   11)  3AgB 1B2gB 3B1uA 1B2uX 1B3uA 
    *  11   -0.044354  (   12,   13)  3AgA 1B3gA 3B1uB 1B2uB 1B3uX 
    *  12   -0.044354  (   13,   12)  3AgB 1B3gB 3B1uA 1B2uA 1B3uX 
    *  13   -0.034165  (    2,    2)  3AgX 1B2gX 1B3gX 
    *  14   -0.029749  (   14,   15)  3AgX 1B2gB 1B3gA 1B2uA 1B3uB 
    *  15   -0.029749  (   15,   14)  3AgX 1B2gA 1B3gB 1B2uB 1B3uA 
    *  16    0.028687  (    4,    5)  3AgB 1B3gA 3B1uA 1B2uB 1B3uX 
    *  17    0.028687  (    5,    4)  3AgA 1B3gB 3B1uB 1B2uA 1B3uX 
    *  18   -0.028687  (    3,    5)  3AgB 1B2gA 3B1uA 1B2uX 1B3uB 
    *  19   -0.028687  (    5,    3)  3AgA 1B2gB 3B1uB 1B2uX 1B3uA 
    *  20    0.016965  (   14,   14)  3AgX 1B3gX 1B2uX 



Properties will be evaluated at   0.000000,   0.000000,   0.000000 Bohr

Properties computed using the CASSCF density matrix

  Nuclear Dipole Moment: (a.u.)
     X:     0.0000      Y:     0.0000      Z:     0.0000

  Electronic Dipole Moment: (a.u.)
     X:     0.0000      Y:     0.0000      Z:     0.0000

  Dipole Moment: (a.u.)
     X:     0.0000      Y:     0.0000      Z:     0.0000     Total:     0.0000

  Dipole Moment: (Debye)
     X:     0.0000      Y:     0.0000      Z:     0.0000     Total:     0.0000

	CASSCF energy.....................................................PASSED
   => Loading Basis Set <=

    Name: STO-3G
    Role: ORBITAL
    Keyword: MINAO_BASIS
    atoms 1-2 entry N          line    71 file /Users/york/src/psi4new/psi4/share/psi4/basis/sto-3g.gbs 


Reading options from the FORTE block
Calling plugin forte.so.




  ==> MO Space Information <==

  Read options for space FROZEN_DOCC
  Read options for space RESTRICTED_DOCC
  Read options for space ACTIVE
  Read options for space FROZEN_UOCC
 Removing orbital 0
 Removing orbital 15
  -------------------------------------------------------------------------
                       Ag   B1g   B2g   B3g    Au   B1u   B2u   B3u   Sum
  -------------------------------------------------------------------------
    FROZEN_DOCC         1     0     0     0     0     1     0     0     2
    RESTRICTED_DOCC     1     0     0     0     0     1     0     0     2
    ACTIVE              1     0     1     1     0     1     1     1     6
    RESTRICTED_UOCC     4     1     2     2     1     4     2     2    18
    FROZEN_UOCC         0     0     0     0     0     0     0     0     0
    Total               7     1     3     3     1     7     3     3    28
  -------------------------------------------------------------------------

  ==> Integral Transformation <==

  Number of molecular orbitals:               28
  Number of correlated molecular orbitals:    26
  Number of frozen occupied orbitals:          2
  Number of frozen unoccupied orbitals:        0


  Overall Conventional Integrals timings

   (n = 8): 0  0  0  0  0  0  0  0  
  SOs per irrep (n = 8): 7  1  3  3  1  7  3  3  
  Frozen core orbitals per irrep (n = 8): 0  0  0  0  0  0  0  0  
  Frozen core orbitals per irrep (n = 8): 7  1  3  3  1  7  3  3  
	Presorting SO-basis two-electron integrals.
	Sorting File: SO Ints (nn|nn) nbuckets = 1
	Transforming the one-electron integrals and constructing Fock matrices
	Starting first half-transformation.
	Sorting half-transformed integrals.
	First half integral transformation complete.
	Starting second half-transformation.
	Two-electron integral transformation complete.

  Integral transformation done. 0.01739200 s
  Reading the two-electron integrals from disk
  Size of two-electron integrals:   0.013739 GB
  Frozen-core energy           -100.804452562868 a.u.

  FrozenOneBody Operator takes  0.05698900 s
  Resorting integrals after freezing core.
  Conventional integrals take 0.19549300 s

              ---------------------------------------------------
                Complete Active Space Configuration Interaction
                                  Chenyang Li
              ---------------------------------------------------


  ==> Input Summary <==

    number of atoms                =     2
    number of electrons            =    14
    molecular charge               =     0
    number of alpha electrons      =     7
    number of beta electrons       =     7
    multiplicity                   =     1
    ms (2 * Sz)                    =     0
    number of molecular orbitals   =    28

  ==> Orbital Spaces <==

    TOTAL MO                      [    7     1     3     3     1     7     3     3 ]
    FROZEN CORE                   [    1     0     0     0     0     1     0     0 ]
    FROZEN VIRTUAL                [    0     0     0     0     0     0     0     0 ]
    CORRELATED MO                 [    6     1     3     3     1     6     3     3 ]
    CORE                          [    1     0     0     0     0     1     0     0 ]
    ACTIVE                        [    1     0     1     1     0     1     1     1 ]
    VIRTUAL                       [    4     1     2     2     1     4     2     2 ]
  Forming alpha and beta strings      ...  Done. Timing        0.000422 s
  Forming determinants                ...  Done. Timing        0.000065 s

  ==> Determinants Summary <==

    number of alpha active electrons    =     3
    number of beta active electrons     =     3
    root symmetry (zero based)          =     0
    number of determinants              =    56

  Diagonalizing Hamiltonian           ...
  Found 32 roots with 2S+1 = 1 *
  Found 18 roots with 2S+1 = 3
  Found 6 roots with 2S+1 = 5  Done. Timing        0.007964 s

  * * * * * * * * * * * * * * * * *
  *  CI Vectors & Configurations  *
  * * * * * * * * * * * * * * * * *

  ==> Root No. 0 <==

    2 0 0 0 2 2          0.9647938928
    2 0 2 0 0 2         -0.1258989124
    2 2 0 0 2 0         -0.1258989124
    2 b a 0 b a          0.0791849908
    2 a b 0 a b          0.0791849908

    Total Energy:   -109.090719613071670


  Forming one-particle density        ...  Done. Timing        0.003650 s
  Forming generalized Fock matrix     ...  Done. Timing        0.001421 s

  ==> Permanent Dipole Moments (Ag) <==

  Only print nonzero (> 1.0e-5) elements.

  Computing 2- and 3-cumulants ... Done.


              ----------------------------------------------------
                 Driven Similarity Renormalization Group MBPT2
                Chenyang Li, Kevin Hannon, Francesco Evangelista
              ----------------------------------------------------

    Reference:
      J. Chem. Theory Comput. 2015, 11, 2097-2108.

  ==> Calculation Information <==

    ntamp                                                 15
    flow parameter                                 5.000e-01
    taylor expansion threshold                     1.000e-03
    intruder_tamp                                  1.000e-01
    int_type                                    CONVENTIONAL
    source operator                                 STANDARD
    reference relaxation                                ONCE
    state_type                                STATE-SPECIFIC
    form Hbar3                                         FALSE

  ==> Checking Orbitals <==

    Checking if orbitals are semi-canonicalized ...     OK.
    Orbitals are semi-canonicalized.

  ==> Computing DSRG-MRPT2 ... <==

    Computing T2 amplitudes                  ...  Done. Timing        0.025287 s
    Computing T1 amplitudes                  ...  Done. Timing        0.005435 s
    Renormalizing two-electron integrals     ...  Done. Timing        0.020292 s
    Renormalizing Fock matrix elements       ...  Done. Timing        0.007320 s
    Computing <[F, T1]>                      ...  Done. Timing        0.005997 s
    Computing <[F, T2]>                      ...  Done. Timing        0.007830 s
    Computing <[V, T1]>                      ...  Done. Timing        0.004485 s
    Computing <[V, T2]> (C_2)^4              ...  Done. Timing        0.036020 s
    Computing <[V, T2]> C_4 (C_2)^2 HH       ...  Done. Timing        0.005955 s
    Computing <[V, T2]> C_4 (C_2)^2 PP       ...  Done. Timing        0.007894 s
    Computing <[V, T2]> C_4 (C_2)^2 PH       ...  Done. Timing        0.032906 s
    Computing <[V, T2]> C_6 C_2              ...  Done. Timing        0.054305 s

  ==> Excitation Amplitudes Summary <==

    Active Indices:    1    7   10   15   20   23 
    Largest T1 amplitudes for spin case A:
       i       a                  i       a                  i       a               
    --------------------------------------------------------------------------------
    [ 15      19    ] 0.206369 [ 10      11    ] 0.088075 [  7       8    ] 0.088075 
    [ 10      12    ]-0.055795 [  7       9    ]-0.055795 [ 15      16    ]-0.054970 
    [ 15      17    ]-0.034635 [ 20      21    ] 0.012747 [ 23      24    ] 0.012747 
    [  0       1    ] 0.010253 [ 20      22    ]-0.007472 [ 23      25    ]-0.007472 
    [  1       2    ] 0.003554 [  1       5    ]-0.003201 [ 14      15    ]-0.001716 
    --------------------------------------------------------------------------------
    Norm of T1A vector: (nonzero elements: 22)                    0.262904209578260.
    --------------------------------------------------------------------------------
    Largest T1 amplitudes for spin case B:
       _       _                  _       _                  _       _               
       i       a                  i       a                  i       a               
    --------------------------------------------------------------------------------
    [ 15      19    ] 0.206369 [ 10      11    ] 0.088075 [  7       8    ] 0.088075 
    [ 10      12    ]-0.055795 [  7       9    ]-0.055795 [ 15      16    ]-0.054970 
    [ 15      17    ]-0.034635 [ 20      21    ] 0.012747 [ 23      24    ] 0.012747 
    [  0       1    ] 0.010253 [ 20      22    ]-0.007472 [ 23      25    ]-0.007472 
    [  1       2    ] 0.003554 [  1       5    ]-0.003201 [ 14      15    ]-0.001716 
    --------------------------------------------------------------------------------
    Norm of T1B vector: (nonzero elements: 22)                    0.262904209578260.
    --------------------------------------------------------------------------------
    Largest T2 amplitudes for spin case AA:
       i   j   a   b              i   j   a   b              i   j   a   b           
    --------------------------------------------------------------------------------
    [ 15  20  15  21] 0.068641 [ 15  23  15  24] 0.068641 [  1  20   1  21] 0.059587 
    [  1  23   1  24] 0.059587 [ 10  23  10  24] 0.052993 [  7  20   7  21] 0.052993 
    [  0  15   3  15] 0.047253 [ 20  23  20  24] 0.045451 [ 20  23  21  23] 0.045451 
    [  1  15   2  15] 0.043762 [ 14  15  15  16] 0.042568 [  1  20   2  20] 0.041319 
    [  1  23   2  23] 0.041319 [  1  10   2  10] 0.040643 [  1   7   2   7] 0.040643 
    --------------------------------------------------------------------------------
    Norm of T2AA vector: (nonzero elements: 3676)                 0.696700201256255.
    --------------------------------------------------------------------------------
    Largest T2 amplitudes for spin case AB:
           _       _                  _       _                  _       _           
       i   j   a   b              i   j   a   b              i   j   a   b           
    --------------------------------------------------------------------------------
    [ 15  20  15  21] 0.079673 [ 15  23  15  24] 0.079673 [  1   1   1   2] 0.075501 
    [  1  15   2  15] 0.074044 [  1  20   1  21] 0.072492 [  1  23   1  24] 0.072492 
    [ 15  15  15  19] 0.064734 [ 10  20  10  21] 0.063559 [  7  23   7  24] 0.063559 
    [  1  15   1  19] 0.061837 [ 10  23  10  24] 0.056868 [  7  20   7  21] 0.056868 
    [  0  15   3  15] 0.056113 [ 23  23  23  24] 0.050682 [ 20  20  20  21] 0.050682 
    --------------------------------------------------------------------------------
    Norm of T2AB vector: (nonzero elements: 4440)                 0.698988017743970.
    --------------------------------------------------------------------------------
    Largest T2 amplitudes for spin case BB:
       _   _   _   _              _   _   _   _              _   _   _   _           
       i   j   a   b              i   j   a   b              i   j   a   b           
    --------------------------------------------------------------------------------
    [ 15  20  15  21] 0.068641 [ 15  23  15  24] 0.068641 [  1  20   1  21] 0.059587 
    [  1  23   1  24] 0.059587 [ 10  23  10  24] 0.052993 [  7  20   7  21] 0.052993 
    [  0  15   3  15] 0.047253 [ 20  23  20  24] 0.045451 [ 20  23  21  23] 0.045451 
    [  1  15   2  15] 0.043762 [ 14  15  15  16] 0.042568 [  1  20   2  20] 0.041319 
    [  1  23   2  23] 0.041319 [  1  10   2  10] 0.040643 [  1   7   2   7] 0.040643 
    --------------------------------------------------------------------------------
    Norm of T2BB vector: (nonzero elements: 3676)                 0.696700201256255.
    --------------------------------------------------------------------------------

  ==> Possible Intruders <==

    T1 amplitudes larger than 0.1000 for spin case A:
        Amplitude         Value                  Denominator              
    ----------------------------------------------------------------------
    [ 15      19    ]    0.20636907 (  1.200555 -   3.143773 =  -1.943218)
    ----------------------------------------------------------------------
    T1 amplitudes larger than 0.1000 for spin case B:
        Amplitude         Value                  Denominator              
    ----------------------------------------------------------------------
    [ 15      19    ]    0.20636907 (  1.200555 -   3.143773 =  -1.943218)
    ----------------------------------------------------------------------
    T2 amplitudes larger than 0.1000 for spin case AA: NULL
    T2 amplitudes larger than 0.1000 for spin case AB: NULL
    T2 amplitudes larger than 0.1000 for spin case BB: NULL

  ==> DSRG-MRPT2 Energy Summary <==

    E0 (reference)                 =   -109.090719613071670
    <[F, T1]>                      =     -0.011901935359484
    <[F, T2]>                      =      0.011970170217170
    <[V, T1]>                      =      0.010332792184164
    <[V, T2]> (C_2)^4              =     -0.200242543364397
    <[V, T2]> C_4 (C_2)^2 HH       =      0.003160124029016
    <[V, T2]> C_4 (C_2)^2 PP       =      0.012828134600710
    <[V, T2]> C_4 (C_2)^2 PH       =      0.023265300668023
    <[V, T2]> C_6 C_2              =     -0.004275964293916
    <[V, T2]>                      =     -0.165264948360564
    DSRG-MRPT2 correlation energy  =     -0.154863921318714
    DSRG-MRPT2 total energy        =   -109.245583534390377
    max(T1)                        =      0.206369070179086
    max(T2)                        =      0.079673395443823
    ||T1||                         =      0.371802698790554
    ||T2||                         =      1.710298025684292

  Energy took      0.253 s


  ==> De-Normal-Order the DSRG Transformed Hamiltonian <==

    Computing the scalar term   ...      Done. Timing      0.003 s
    Computing the one-body term ...      Done. Timing      0.002 s
    Updating integrals          ...      Done. Timing      0.002 s

  ==> Scalar of the DSRG Hamiltonian (WRT True Vacuum) <==

    Scalar0                        =    -31.592633847334440
    Scalar1                        =      3.945899507772427
    Scalar2                        =      7.735212684759642
    Total Scalar W/O Frozen-Core   =    -19.911521654802371
    Total Scalar W/  Frozen-Core   =   -120.715974217670791

  ==> Test De-Normal-Ordered Hamiltonian <==

    One-Body Energy (after)        =    -11.446579947413493
    Two-Body Energy (after)        =     -0.234532245118573
    Total Energy (after)           =   -109.245583534390363
    Total Energy (before)          =   -109.245583534390377
  Frozen Orbitals takes     0.000 s.

  ==> String Lists <==

  Number of alpha electrons     = 3
  Number of beta electrons      = 3
  Number of alpha strings       = 20
  Number of beta strings        = 20
  Number of alpha strings (N-3) = 1
  Number of beta strings (N-3)  = 1
  Timing for strings        =      0.000 s
  Timing for NN strings     =      0.000 s
  Timing for VO strings     =      0.001 s
  Timing for OO strings     =      0.000 s
  Timing for Knowles-Handy  =      0.002 s
  Timing for VVOO strings   =      0.001 s
  Timing for VOVO strings   =      0.000 s
  Timing for 1-hole strings =      0.000 s
  Timing for 2-hole strings =      0.000 s
  Timing for 3-hole strings =      0.001 s
  Total timing              =      0.002 s

  ==> FCI Solver <==

    Number of determinants                          56
    Symmetry                                         0
    Multiplicity                                     1
    Number of roots                                  1
    Target root                                      0
    Trial vectors per root                          56

  Allocating memory for the Hamiltonian algorithm. Size: 2 x 4 x 4.   Memory: 0.000000 GB

  ==> FCI Initial Guess <==

  ---------------------------------------------
    Root            Energy     <S^2>   Spin
  ---------------------------------------------
      0     -109.246090954577  0.000  singlet
      1     -108.656770974016  6.000  quintet
      2     -108.577411576797  2.000  triplet
      3     -108.575221953265  0.000  singlet
      4     -108.494430882534  0.000  singlet
      5     -108.412959344510  0.000  singlet
      6     -108.389895042517  2.000  triplet
      7     -108.378210281203  0.000  singlet
      8     -108.371685564668  2.000  triplet
      9     -108.360286284586  0.000  singlet
     10     -108.042136440888  0.000  singlet
     11     -107.723617043485  0.000  singlet
     12     -107.687035399802  0.000  singlet
     13     -107.678412714078  6.000  quintet
     14     -107.631463625911  6.000  quintet
     15     -107.550818576313  2.000  triplet
     16     -107.517542189948  2.000  triplet
     17     -107.483069177497  0.000  singlet
     18     -107.478610731350  2.000  triplet
     19     -107.434285304980  0.000  singlet
     20     -107.286606546982  0.000  singlet
     21     -107.261842022150  2.000  triplet
     22     -107.204192631759  2.000  triplet
     23     -107.170154964041  2.000  triplet
     24     -107.142064345853  0.000  singlet
     25     -106.942833052130  0.000  singlet
     26     -106.921260223949  0.000  singlet
     27     -106.812192359209  0.000  singlet
     28     -106.643536082057  0.000  singlet
     29     -106.625104925051  6.000  quintet
     30     -106.595042688413  6.000  quintet
     31     -106.584294654413  0.000  singlet
     32     -106.499561784647  2.000  triplet
     33     -106.494624525175  2.000  triplet
     34     -106.454688770129  2.000  triplet
     35     -106.422232861940  0.000  singlet
     36     -106.409418283195  0.000  singlet
     37     -106.246311441037  2.000  triplet
     38     -106.212648208435  2.000  triplet
     39     -106.169383225962  0.000  singlet
     40     -106.075167328370  0.000  singlet
     41     -105.934443807302  0.000  singlet
     42     -105.923469347919  2.000  triplet
     43     -105.905640459112  0.000  singlet
     44     -105.646095724950  0.000  singlet
     45     -105.465509122278  6.000  quintet
     46     -105.386248304674  2.000  triplet
     47     -105.379237745822  0.000  singlet
     48     -105.306744963545  0.000  singlet
     49     -105.216847936235  0.000  singlet
     50     -105.175293732750  0.000  singlet
     51     -105.049553884328  2.000  triplet
     52     -105.031654000488  2.000  triplet
     53     -105.009380469256  0.000  singlet
     54     -104.518791144035  0.000  singlet
     55     -103.662536638111  0.000  singlet
  ---------------------------------------------
  Timing for initial guess  =      0.130 s

  Projecting out root 1
  Projecting out root 2
  Projecting out root 6
  Projecting out root 8
  Projecting out root 13
  Projecting out root 14
  Projecting out root 15
  Projecting out root 16
  Projecting out root 18
  Projecting out root 21
  Projecting out root 22
  Projecting out root 23
  Projecting out root 29
  Projecting out root 30
  Projecting out root 32
  Projecting out root 33
  Projecting out root 34
  Projecting out root 37
  Projecting out root 38
  Projecting out root 42
  Projecting out root 45
  Projecting out root 46
  Projecting out root 51
  Projecting out root 52
  ==> Diagonalizing Hamiltonian <==

  ----------------------------------------
    Iter.      Avg. Energy       Delta_E
  ----------------------------------------
      1     -109.246090954577  -1.092e+02
      2     -109.246090954577  -2.842e-14
  ----------------------------------------
  The Davidson-Liu algorithm converged in 3 iterations.

  ==> Root No. 0 <==

    2 0 0 0 2 2     -0.96806024
    2 2 0 0 2 0      0.12087429
    2 0 2 0 0 2      0.12087429

    Total Energy:      -109.246090954577028

  ==> Computing RDMs for Root No. 0 <==

    Timing for 1-RDM: 0.000 s

  ==> NATURAL ORBITALS <==

        1Ag     1.983696      1B2u    1.943156      1B3u    1.943156  
        1B2g    0.056625      1B3g    0.056625      1B1u    0.016743  


  ==> DSRG-MRPT2 Energy Summary <==

    DSRG-MRPT2 Total Energy (fixed)   =   -109.245583534390377
    DSRG-MRPT2 Total Energy (relaxed) =   -109.246090954577028


  ==> Total Timings (s) for Computing Commutators <==

             [H1, T1]    [H1, T2]    [H2, T1]    [H2, T2]
    -----------------------------------------------------
    -> C0       0.006       0.008       0.004       0.137
    -> C1       0.001       0.011       0.007       0.169
    -> C2                   0.014       0.010       0.070
    -----------------------------------------------------


  Your calculation took 1.10699700 seconds
	DSRG-MRPT2 relaxed energy.........................................PASSED

*** Psi4 exiting successfully. Buy a developer a beer!
