
    -----------------------------------------------------------------------
          Psi4: An Open-Source Ab Initio Electronic Structure Package
                               Psi4 undefined 

                         Git: Rev {master} 3c26e8e 


    R. M. Parrish, L. A. Burns, D. G. A. Smith, A. C. Simmonett,
    A. E. DePrince III, E. G. Hohenstein, U. Bozkaya, A. Yu. Sokolov,
    R. Di Remigio, R. M. Richard, J. F. Gonthier, A. M. James,
    H. R. McAlexander, A. Kumar, M. Saitow, X. Wang, B. P. Pritchard,
    P. Verma, H. F. Schaefer III, K. Patkowski, R. A. King, E. F. Valeev,
    F. A. Evangelista, J. M. Turney, T. D. Crawford, and C. D. Sherrill,
    J. Chem. Theory Comput. 13(7) pp 3185--3197 (2017).
    (doi: 10.1021/acs.jctc.7b00174)


                         Additional Contributions by
    P. Kraus, H. Kruse, M. H. Lechner, M. C. Schieber, and R. A. Shaw

    -----------------------------------------------------------------------


    Psi4 started on: Thursday, 25 October 2018 03:26PM

    Process ID: 91470
    Host:       jeffschriber
    PSIDATADIR: /Users/jeffschriber/src/psi4-debug-install/share/psi4
    Memory:     500.0 MiB
    Threads:    1
    
  ==> Input File <==

--------------------------------------------------------------------------
#! Generated using commit GITCOMMIT

import forte

#refcasscf    = -109.090719613072
refcasscf    = -109.090719613198587
#refpt2       = -109.245583534390491
refpt2       = -109.245583534409747
#refpt2_relax = -109.246090954577227
refpt2_relax = -109.246090954592418

molecule N2{
  0 1
  N
  N  1 R

  R = 1.120
}

set {
  basis                  cc-pvdz
  reference              rhf
  scf_type               out_of_core
  maxiter                300
  e_convergence          10
  d_convergence          8
  docc                   [3,0,0,0,0,2,1,1]
  restricted_docc        [2,0,0,0,0,2,0,0]
  active                 [1,0,1,1,0,1,1,1]
  mcscf_maxiter          100
  mcscf_r_convergence    8
  mcscf_e_convergence    10
  mcscf_diis_start       6
}

Ecasscf, wfn_cas = energy('casscf', return_wfn=True)
compare_values(refcasscf,get_variable("CURRENT ENERGY"),10,"CASSCF energy") #TEST

set forte {
  job_type           dsrg-mrpt2
  frozen_docc        [1,0,0,0,0,1,0,0]
  frozen_uocc        [0,0,0,0,0,0,0,0]
  restricted_docc    [1,0,0,0,0,1,0,0]
  active             [1,0,1,1,0,1,1,1]
  root_sym           0
  nroot              1
  dsrg_s             0.5
  ntrial_per_root    56
  relax_ref          once
  semi_canonical     false
  cas_type           cas
}

Eforte, wfn_cas = energy('forte', ref_wfn=wfn_cas, return_wfn=True)
compare_values(refpt2_relax,get_variable("CURRENT ENERGY"),10,"DSRG-MRPT2 relaxed energy") #TEST
--------------------------------------------------------------------------

*** tstart() called on jeffschriber
*** at Thu Oct 25 15:26:08 2018

   => Loading Basis Set <=

    Name: CC-PVDZ
    Role: ORBITAL
    Keyword: BASIS
    atoms 1-2 entry N          line   168 file /Users/jeffschriber/src/psi4-debug-install/share/psi4/basis/cc-pvdz.gbs 


         ---------------------------------------------------------
                                   SCF
            by Justin Turney, Rob Parrish, Andy Simmonett
                             and Daniel Smith
                              RHF Reference
                        1 Threads,    500 MiB Core
         ---------------------------------------------------------

  ==> Geometry <==

    Molecular point group: d2h
    Full point group: D_inf_h

    Geometry (in Angstrom), charge = 0, multiplicity = 1:

       Center              X                  Y                   Z               Mass       
    ------------   -----------------  -----------------  -----------------  -----------------
         N            0.000000000000     0.000000000000    -0.560000000000    14.003074004780
         N            0.000000000000     0.000000000000     0.560000000000    14.003074004780

  Running in d2h symmetry.

  Rotational constants: A = ************  B =      1.91941  C =      1.91941 [cm^-1]
  Rotational constants: A = ************  B =  57542.37270  C =  57542.37270 [MHz]
  Nuclear repulsion =   23.151502966812501

  Charge       = 0
  Multiplicity = 1
  Electrons    = 14
  Nalpha       = 7
  Nbeta        = 7

  ==> Algorithm <==

  SCF Algorithm Type is OUT_OF_CORE.
  DIIS enabled.
  MOM disabled.
  Fractional occupation disabled.
  Guess Type is SAD.
  Energy threshold   = 1.00e-10
  Density threshold  = 1.00e-08
  Integral threshold = 0.00e+00

  ==> Primary Basis <==

  Basis Set: CC-PVDZ
    Blend: CC-PVDZ
    Number of shells: 12
    Number of basis function: 28
    Number of Cartesian functions: 30
    Spherical Harmonics?: true
    Max angular momentum: 2

  ==> Pre-Iterations <==

   -------------------------------------------------------
    Irrep   Nso     Nmo     Nalpha   Nbeta   Ndocc  Nsocc
   -------------------------------------------------------
     Ag         7       7       3       3       3       0
     B1g        1       1       0       0       0       0
     B2g        3       3       0       0       0       0
     B3g        3       3       0       0       0       0
     Au         1       1       0       0       0       0
     B1u        7       7       2       2       2       0
     B2u        3       3       1       1       1       0
     B3u        3       3       1       1       1       0
   -------------------------------------------------------
    Total      28      28       7       7       7       0
   -------------------------------------------------------

  ==> Integral Setup <==

  ==> DiskJK: Disk-Based J/K Matrices <==

    J tasked:                  Yes
    K tasked:                  Yes
    wK tasked:                  No
    Memory [MiB]:              375
    Schwarz Cutoff:          1E-12

  Minimum eigenvalue in the overlap matrix is 6.6806605583E-03.
  Using Symmetric Orthogonalization.

  SCF Guess: Superposition of Atomic Densities via on-the-fly atomic UHF.

  ==> Iterations <==

                        Total Energy        Delta E     RMS |[F,P]|

   @RHF iter   0:  -108.99545515378692   -1.08995e+02   1.90477e-01 
   @RHF iter   1:  -108.93542213904774    6.00330e-02   1.44008e-02 
   @RHF iter   2:  -108.94871294230560   -1.32908e-02   3.32994e-03 DIIS
   @RHF iter   3:  -108.94952769350928   -8.14751e-04   8.14408e-04 DIIS
   @RHF iter   4:  -108.94959169937979   -6.40059e-05   5.69310e-05 DIIS
   @RHF iter   5:  -108.94959195330763   -2.53928e-07   7.23450e-06 DIIS
   @RHF iter   6:  -108.94959195865646   -5.34882e-09   1.07288e-06 DIIS
   @RHF iter   7:  -108.94959195880307   -1.46613e-10   1.04550e-07 DIIS
   @RHF iter   8:  -108.94959195880415   -1.08002e-12   5.54249e-09 DIIS
  Energy converged.


  ==> Post-Iterations <==

    Orbital Energies [Eh]
    ---------------------

    Doubly Occupied:                                                      

       1Ag   -15.693462     1B1u  -15.690468     2Ag    -1.454830  
       2B1u   -0.781291     3Ag    -0.624240     1B2u   -0.598860  
       1B3u   -0.598860  

    Virtual:                                                              

       1B3g    0.163970     1B2g    0.163970     3B1u    0.586976  
       4Ag     0.828451     2B2u    0.878361     2B3u    0.878361  
       5Ag     0.989711     2B3g    1.046086     2B2g    1.046086  
       4B1u    1.110749     5B1u    1.621145     1B1g    1.764773  
       6Ag     1.764773     3B2u    1.859907     3B3u    1.859907  
       1Au     2.283869     6B1u    2.283869     7Ag     2.847752  
       3B3g    2.971337     3B2g    2.971337     7B1u    3.237511  

    Final Occupation by Irrep:
             Ag   B1g   B2g   B3g    Au   B1u   B2u   B3u 
    DOCC [     3,    0,    0,    0,    0,    2,    1,    1 ]

  @RHF Final Energy:  -108.94959195880415

   => Energetics <=

    Nuclear Repulsion Energy =             23.1515029668125010
    One-Electron Energy =                -193.3181687960941701
    Two-Electron Energy =                  61.2170738704775275
    Total Energy =                       -108.9495919588041488

Computation Completed


Properties will be evaluated at   0.000000,   0.000000,   0.000000 [a0]

Properties computed using the SCF density matrix

  Nuclear Dipole Moment: [e a0]
     X:     0.0000      Y:     0.0000      Z:     0.0000

  Electronic Dipole Moment: [e a0]
     X:     0.0000      Y:     0.0000      Z:     0.0000

  Dipole Moment: [e a0]
     X:     0.0000      Y:     0.0000      Z:     0.0000     Total:     0.0000

  Dipole Moment: [D]
     X:     0.0000      Y:     0.0000      Z:     0.0000     Total:     0.0000


*** tstop() called on jeffschriber at Thu Oct 25 15:26:08 2018
Module time:
	user time   =       0.50 seconds =       0.01 minutes
	system time =       0.03 seconds =       0.00 minutes
	total time  =          0 seconds =       0.00 minutes
Total time:
	user time   =       0.50 seconds =       0.01 minutes
	system time =       0.03 seconds =       0.00 minutes
	total time  =          0 seconds =       0.00 minutes
 MINTS: Wrapper to libmints.
   by Justin Turney

   Calculation information:
      Number of threads:                 1
      Number of atoms:                   2
      Number of AO shells:              12
      Number of SO shells:               6
      Number of primitives:             44
      Number of atomic orbitals:        30
      Number of basis functions:        28

      Number of irreps:                  8
      Integral cutoff                 1.00e-12
      Number of functions per irrep: [   7    1    3    3    1    7    3    3 ]

 OEINTS: Overlap, kinetic, potential, dipole, and quadrupole integrals
         stored in file 35.

      Computing two-electron integrals...done
      Computed 10381 non-zero two-electron integrals.
        Stored in file 33.


         ---------------------------------------------------------
                Multi-Configurational Self-Consistent Field
                            (a 'D E T C I' module)

                 Daniel G. A. Smith, C. David Sherrill, and
                              Matt L. Leininger
         ---------------------------------------------------------


   ==> Parameters <==

    EX LEVEL       =        6      H0 BLOCKSIZE  =     1000
    VAL EX LEVEL   =        0      H0 GUESS SIZE =     1000
    H0COUPLINGSIZE =        0      H0 COUPLING   =       NO
    MAXITER        =       12      NUM PRINT     =       20
    NUM ROOTS      =        1      ICORE         =        1
    PRINT LVL      =        1      FCI           =      YES
    R CONV         = 1.00e-07      MIXED         =      YES
    E CONV         = 1.00e-10      MIXED4        =      YES
    R4S            =       NO      REPL OTF      =       NO
    DIAG METHOD    =      SEM      FOLLOW ROOT   =        0
    PRECONDITIONER = DAVIDSON      UPDATE        = DAVIDSON
    S              =   0.0000      Ms0           =      YES
    GUESS VECTOR   =  H0BLOCK      OPENTYPE      =     NONE
    COLLAPSE SIZE  =        1      HD AVG        = EVANGELISTI
    MAX NUM VECS   =       13      REF SYM       =     AUTO
    IOPEN        =       NO

    EX ALLOW       =  1  1  1  1  1  1 
    STATE AVERAGE  =  0(1.00) 

   ==> CI Orbital and Space information <==

   ------------------------------------------------------------------------------
               Space    Total    Ag   B1g   B2g   B3g    Au   B1u   B2u   B3u
   ------------------------------------------------------------------------------
                 Nso       28     7     1     3     3     1     7     3     3
                 Nmo       28     7     1     3     3     1     7     3     3
               Ndocc        7     3     0     0     0     0     2     1     1
               Nsocc        0     0     0     0     0     0     0     0     0
   ------------------------------------------------------------------------------
                                    MCSCF Spaces
   ------------------------------------------------------------------------------
         Frozen DOCC        0     0     0     0     0     0     0     0     0
     Restricted DOCC        4     2     0     0     0     0     2     0     0
              Active        6     1     0     1     1     0     1     1     1
     Restricted UOCC       18     4     1     2     2     1     4     2     2
         Frozen UOCC        0     0     0     0     0     0     0     0     0
   ------------------------------------------------------------------------------

   ==> Setting up CI strings <==

    There are 20 alpha and 20 beta strings
    The CI space requires 56 (5.60E+01) determinants and 8 blocks

   ==> Setting up MCSCF integrals <==

  ==> DiskJK: Disk-Based J/K Matrices <==

    J tasked:                  Yes
    K tasked:                  Yes
    wK tasked:                  No
    Memory [MiB]:              400
    Schwarz Cutoff:          1E-12


   ==> Starting MCSCF iterations <==

        Iter         Total Energy       Delta E   Orb RMS    CI RMS  NCI NORB
   @MCSCF  1:   -109.021728886540   -7.2137e-02  2.26e-02  2.62e-14    1    1  Initial CI
      Warning! Maxstep = 1.40, scaling to 0.50
   @MCSCF  2:   -109.043406503944   -2.1678e-02  2.08e-02  1.17e-05    6    1  TS
      Warning! Maxstep = 0.61, scaling to 0.50
   @MCSCF  3:   -109.072862815324   -2.9456e-02  1.53e-02  6.52e-06    7    1  TS
   @MCSCF  4:   -109.085216218174   -1.2353e-02  6.84e-03  5.60e-06    7    1  TS
   @MCSCF  5:   -109.088712956567   -3.4967e-03  4.13e-03  4.41e-06    6    1  TS
   @MCSCF  6:   -109.089967055523   -1.2541e-03  3.19e-03  2.21e-06    6    1  TS
   @MCSCF  7:   -109.090441534191   -4.7448e-04  2.24e-03  2.32e-06    6    1  TS, DIIS
   @MCSCF  8:   -109.090618333650   -1.7680e-04  1.49e-03  1.67e-06    6    1  TS, DIIS
   @MCSCF  9:   -109.090661070682   -4.2737e-05  9.06e-04  9.24e-07    7    1  TS, DIIS
   @MCSCF 10:   -109.090702404896   -4.1334e-05  5.02e-04  1.89e-07    7    1  TS, DIIS
   @MCSCF 11:   -109.090718009423   -1.5605e-05  1.54e-04  1.43e-07    7    1  TS, DIIS
   @MCSCF 12:   -109.090719602624   -1.5932e-06  1.23e-05  5.79e-08    7    1  TS, DIIS
   @MCSCF 13:   -109.090719611361   -8.7374e-09  5.07e-06  2.05e-09    7    1  TS, DIIS
   @MCSCF 14:   -109.090719613163   -1.8014e-09  7.54e-07  1.40e-09    7    1  TS, DIIS
   @MCSCF 15:   -109.090719613198   -3.5527e-11  4.07e-08  2.26e-10    7    1  TS, DIIS
   @MCSCF 16:   -109.090719613199   -8.5265e-14  5.29e-09  1.10e-11    7    1  TS, DIIS

          @MCSCF has converged!

   @MCSCF Final Energy: -109.090719613198530

   Computing CI Semicanonical Orbitals

   ==> Energetics <==

    SCF energy =         -108.949591958804149
    Total MCSCF energy = -109.090719613198530

   ==> MCSCF root 0 information <==

    MCSCF Root 0 energy =  -109.090719613198530

   Active Space Natural occupation numbers:

        Ag   1.980741       B2u   1.937634       B3u   1.937634
       B2g   0.062272       B3g   0.062272       B1u   0.019445

   The 20 most important determinants:

    *   1   -0.964794  (    5,    5)  3AgX 1B2uX 1B3uX 
    *   2    0.125899  (   11,   11)  3AgX 1B2gX 1B2uX 
    *   3    0.125899  (   12,   12)  3AgX 1B3gX 1B3uX 
    *   4   -0.079185  (   11,   12)  3AgX 1B2gA 1B3gB 1B2uA 1B3uB 
    *   5   -0.079185  (   12,   11)  3AgX 1B2gB 1B3gA 1B2uB 1B3uA 
    *   6   -0.049436  (    2,    5)  3AgX 1B2gA 1B3gA 1B2uB 1B3uB 
    *   7   -0.049436  (    5,    2)  3AgX 1B2gB 1B3gB 1B2uA 1B3uA 
    *   8    0.048612  (   13,   13)  3B1uX 1B2uX 1B3uX 
    *   9    0.044354  (   11,   13)  3AgA 1B2gA 3B1uB 1B2uX 1B3uB 
    *  10    0.044354  (   13,   11)  3AgB 1B2gB 3B1uA 1B2uX 1B3uA 
    *  11   -0.044354  (   12,   13)  3AgA 1B3gA 3B1uB 1B2uB 1B3uX 
    *  12   -0.044354  (   13,   12)  3AgB 1B3gB 3B1uA 1B2uA 1B3uX 
    *  13   -0.034165  (    2,    2)  3AgX 1B2gX 1B3gX 
    *  14   -0.029749  (   14,   15)  3AgX 1B2gB 1B3gA 1B2uA 1B3uB 
    *  15   -0.029749  (   15,   14)  3AgX 1B2gA 1B3gB 1B2uB 1B3uA 
    *  16    0.028687  (    4,    5)  3AgB 1B3gA 3B1uA 1B2uB 1B3uX 
    *  17    0.028687  (    5,    4)  3AgA 1B3gB 3B1uB 1B2uA 1B3uX 
    *  18   -0.028687  (    3,    5)  3AgB 1B2gA 3B1uA 1B2uX 1B3uB 
    *  19   -0.028687  (    5,    3)  3AgA 1B2gB 3B1uB 1B2uX 1B3uA 
    *  20    0.016965  (   14,   14)  3AgX 1B3gX 1B2uX 



Properties will be evaluated at   0.000000,   0.000000,   0.000000 [a0]

Properties computed using the CASSCF density matrix

  Nuclear Dipole Moment: [e a0]
     X:     0.0000      Y:     0.0000      Z:     0.0000

  Electronic Dipole Moment: [e a0]
     X:     0.0000      Y:     0.0000      Z:     0.0000

  Dipole Moment: [e a0]
     X:     0.0000      Y:     0.0000      Z:     0.0000     Total:     0.0000

  Dipole Moment: [D]
     X:     0.0000      Y:     0.0000      Z:     0.0000     Total:     0.0000

	CASSCF energy.....................................................PASSED
   => Loading Basis Set <=

    Name: STO-3G
    Role: ORBITAL
    Keyword: MINAO_BASIS
    atoms 1-2 entry N          line    71 file /Users/jeffschriber/src/psi4-debug-install/share/psi4/basis/sto-3g.gbs 


Reading options from the FORTE block
Calling plugin forte.so.



  Forte
  ----------------------------------------------------------------------------
  A suite of quantum chemistry methods for strongly correlated electrons

    git branch: master - git commit: 9480afcf

  Developed by:
    Francesco A. Evangelista, Chenyang Li, Kevin P. Hannon,
    Jeffrey B. Schriber, Tianyuan Zhang, Chenxi Cai
  ----------------------------------------------------------------------------

  Size of Determinant class: 16

  ==> MO Space Information <==

  Read options for space FROZEN_DOCC
  Read options for space RESTRICTED_DOCC
  Read options for space ACTIVE
  Read options for space FROZEN_UOCC
  -------------------------------------------------------------------------
                       Ag   B1g   B2g   B3g    Au   B1u   B2u   B3u   Sum
  -------------------------------------------------------------------------
    FROZEN_DOCC         1     0     0     0     0     1     0     0     2
    RESTRICTED_DOCC     1     0     0     0     0     1     0     0     2
    ACTIVE              1     0     1     1     0     1     1     1     6
    RESTRICTED_UOCC     4     1     2     2     1     4     2     2    18
    FROZEN_UOCC         0     0     0     0     0     0     0     0     0
    Total               7     1     3     3     1     7     3     3    28
  -------------------------------------------------------------------------

  ==> Integral Transformation <==

  Number of molecular orbitals:                    28
  Number of correlated molecular orbitals:         26
  Number of frozen occupied orbitals:               2
  Number of frozen unoccupied orbitals:             0
  Two-electron integral type:              Conventional


  Overall Conventional Integrals timings

	Presorting SO-basis two-electron integrals.
	Sorting File: SO Ints (nn|nn) nbuckets = 1
	Transforming the one-electron integrals and constructing Fock matrices
	Starting first half-transformation.
	Sorting half-transformed integrals.
	First half integral transformation complete.
	Starting second half-transformation.
	Two-electron integral transformation complete.

  Integral transformation done. 0.02827010 s
  Reading the two-electron integrals from disk
  Size of two-electron integrals:   0.013739 GB
  Frozen-core energy           -100.804452607394 a.u.
  Timing for frozen one-body operator:                        0.123 s.
  Resorting integrals after freezing core.
  Timing for freezing core and virtual orbitals:              0.175 s.
  Conventional integrals take 0.37566161 s

              ---------------------------------------------------
                Complete Active Space Configuration Interaction
                                  Chenyang Li
              ---------------------------------------------------


  ==> Input Summary <==

    No. a electrons in active      =     3
    No. b electrons in active      =     3
    multiplicity                   =     1
    spin ms (2 * Sz)               =     0

  ==> Orbital Spaces <==

    TOTAL MO                      [    7     1     3     3     1     7     3     3 ]
    FROZEN CORE                   [    1     0     0     0     0     1     0     0 ]
    FROZEN VIRTUAL                [    0     0     0     0     0     0     0     0 ]
    CORRELATED MO                 [    6     1     3     3     1     6     3     3 ]
    CORE                          [    1     0     0     0     0     1     0     0 ]
    ACTIVE                        [    1     0     1     1     0     1     1     1 ]
    VIRTUAL                       [    4     1     2     2     1     4     2     2 ]
  Forming alpha and beta strings      ...  Done. Timing        0.000106 s
  Forming determinants                ...  Done. Timing        0.000033 s

  ==> Determinants Summary <==

    number of alpha active electrons    =     3
    number of beta active electrons     =     3
    root symmetry (zero based)          =     0
    number of determinants              =    56

  Diagonalizing Hamiltonian           ...
  Found 32 roots with 2S+1 = 1 *
  Found 18 roots with 2S+1 = 3
  Found 6 roots with 2S+1 = 5  Done. Timing        0.001622 s

  * * * * * * * * * * * * * * * * *
  *  CI Vectors & Configurations  *
  * * * * * * * * * * * * * * * * *

  ==> Root No. 0 <==

    2 0 0 0 2 2          0.9647938933
    2 2 0 0 2 0         -0.1258989115
    2 0 2 0 0 2         -0.1258989115
    2 b a 0 b a          0.0791849904
    2 a b 0 a b          0.0791849904

    Total Energy:   -109.090719613198530



  ==> Permanent Dipole Moments (Ag) <==

  Only print nonzero (> 1.0e-5) elements.

  Computing 1-, 2- and 3-cumulants ... Done. Timing        0.019270 s


  ==> Multireference Driven Similarity Renormalization Group <==

    Reading DSRG options ............................ Done
    Setting ambit MO space .......................... Done
    Preparing tensors for density cumulants ......... Done
    Building Fock matrix ............................ Done
    Checking reference energy ....................... Done

              ----------------------------------------------------
                    MR-DSRG Second-Order Perturbation Theory
                Chenyang Li, Kevin Hannon, Francesco Evangelista
              ----------------------------------------------------

    References:
      u-DSRG-MRPT2:    J. Chem. Theory Comput. 2015, 11, 2097.
      (pr-)DSRG-MRPT2: J. Chem. Phys. 2017, 146, 124132.

  ==> Calculation Information <==

    ntamp                                                 15
    flow parameter                                 5.000e-01
    taylor expansion threshold                     1.000e-03
    intruder_tamp                                  1.000e-01
    int_type                                    CONVENTIONAL
    source operator                                 STANDARD
    reference relaxation                                ONCE
    state_type                                STATE-SPECIFIC
    form Hbar3                                         FALSE

  ==> Checking Semicanonical Orbitals <==

    Abs. max of Fock core, active, virtual blocks (Fij, i != j)
                  core          active         virtual
    --------------------------------------------------
    Fα    0.0000000000    0.0000000000    0.0000000000
    Fβ    0.0000000000    0.0000000000    0.0000000000
    --------------------------------------------------

    1-Norm of Fock core, active, virtual blocks (Fij, i != j)
                  core          active         virtual
    --------------------------------------------------
    Fα    0.0000000000    0.0000000000    0.0000000000
    Fβ    0.0000000000    0.0000000000    0.0000000000
    --------------------------------------------------

    Orbitals are semi-canonicalized.

  ==> Computing DSRG-MRPT2 ... <==

    Computing T2 amplitudes                  ...  Done. Timing        0.007023 s
    Computing T1 amplitudes                  ...  Done. Timing        0.001280 s
    Renormalizing two-electron integrals     ...  Done. Timing        0.006183 s
    Renormalizing Fock matrix elements       ...  Done. Timing        0.001247 s
    Computing <[F, T1]>                      ...  Done. Timing        0.000654 s
    Computing <[F, T2]>                      ...  Done. Timing        0.001495 s
    Computing <[V, T1]>                      ...  Done. Timing        0.001648 s
    Computing <[V, T2]> (C_2)^4              ...  Done. Timing        0.010185 s
    Computing <[V, T2]> C_4 (C_2)^2 HH       ...  Done. Timing        0.002454 s
    Computing <[V, T2]> C_4 (C_2)^2 PP       ...  Done. Timing        0.002515 s
    Computing <[V, T2]> C_4 (C_2)^2 PH       ...  Done. Timing        0.010418 s
    Computing <[V, T2]> C_6 C_2              ...  Done. Timing        0.009859 s

  ==> Excitation Amplitudes Summary <==

    Active Indices:    1    7   10   15   20   23 
    Largest T1 amplitudes for spin case A:
       i       a                  i       a                  i       a               
    --------------------------------------------------------------------------------
    [ 15      19    ] 0.206369 [  7       8    ] 0.088075 [ 10      11    ] 0.088075 
    [ 10      12    ]-0.055795 [  7       9    ]-0.055795 [ 15      16    ]-0.054970 
    [ 15      17    ]-0.034635 [ 23      24    ] 0.012747 [ 20      21    ] 0.012747 
    [  0       1    ] 0.010253 [ 20      22    ]-0.007472 [ 23      25    ]-0.007472 
    [  1       2    ] 0.003554 [  1       5    ]-0.003201 [ 14      15    ]-0.001716 
    --------------------------------------------------------------------------------
    Norm of T1A vector: (nonzero elements: 22)                    0.262904212338503.
    --------------------------------------------------------------------------------
    Largest T1 amplitudes for spin case B:
       _       _                  _       _                  _       _               
       i       a                  i       a                  i       a               
    --------------------------------------------------------------------------------
    [ 15      19    ] 0.206369 [  7       8    ] 0.088075 [ 10      11    ] 0.088075 
    [ 10      12    ]-0.055795 [  7       9    ]-0.055795 [ 15      16    ]-0.054970 
    [ 15      17    ]-0.034635 [ 23      24    ] 0.012747 [ 20      21    ] 0.012747 
    [  0       1    ] 0.010253 [ 20      22    ]-0.007472 [ 23      25    ]-0.007472 
    [  1       2    ] 0.003554 [  1       5    ]-0.003201 [ 14      15    ]-0.001716 
    --------------------------------------------------------------------------------
    Norm of T1B vector: (nonzero elements: 22)                    0.262904212338503.
    --------------------------------------------------------------------------------
    Largest T2 amplitudes for spin case AA:
       i   j   a   b              i   j   a   b              i   j   a   b           
    --------------------------------------------------------------------------------
    [ 15  20  15  21] 0.068641 [ 15  23  15  24] 0.068641 [  1  20   1  21] 0.059587 
    [  1  23   1  24] 0.059587 [  7  20   7  21] 0.052993 [ 10  23  10  24] 0.052993 
    [  0  15   3  15] 0.047253 [ 20  23  21  23] 0.045451 [ 20  23  20  24] 0.045451 
    [  1  15   2  15] 0.043762 [ 14  15  15  16] 0.042568 [  1  20   2  20] 0.041319 
    [  1  23   2  23] 0.041319 [  1   7   2   7] 0.040643 [  1  10   2  10] 0.040643 
    --------------------------------------------------------------------------------
    Norm of T2AA vector: (nonzero elements: 3676)                 0.696700201918256.
    --------------------------------------------------------------------------------
    Largest T2 amplitudes for spin case AB:
           _       _                  _       _                  _       _           
       i   j   a   b              i   j   a   b              i   j   a   b           
    --------------------------------------------------------------------------------
    [ 15  20  15  21] 0.079673 [ 15  23  15  24] 0.079673 [  1   1   1   2] 0.075501 
    [  1  15   2  15] 0.074044 [  1  20   1  21] 0.072492 [  1  23   1  24] 0.072492 
    [ 15  15  15  19] 0.064734 [  7  23   7  24] 0.063559 [ 10  20  10  21] 0.063559 
    [  1  15   1  19] 0.061837 [  7  20   7  21] 0.056868 [ 10  23  10  24] 0.056868 
    [  0  15   3  15] 0.056113 [ 20  20  20  21] 0.050682 [ 23  23  23  24] 0.050682 
    --------------------------------------------------------------------------------
    Norm of T2AB vector: (nonzero elements: 4440)                 0.698988018176171.
    --------------------------------------------------------------------------------
    Largest T2 amplitudes for spin case BB:
       _   _   _   _              _   _   _   _              _   _   _   _           
       i   j   a   b              i   j   a   b              i   j   a   b           
    --------------------------------------------------------------------------------
    [ 15  20  15  21] 0.068641 [ 15  23  15  24] 0.068641 [  1  23   1  24] 0.059587 
    [  1  20   1  21] 0.059587 [  7  20   7  21] 0.052993 [ 10  23  10  24] 0.052993 
    [  0  15   3  15] 0.047253 [ 20  23  21  23] 0.045451 [ 20  23  20  24] 0.045451 
    [  1  15   2  15] 0.043762 [ 14  15  15  16] 0.042568 [  1  20   2  20] 0.041319 
    [  1  23   2  23] 0.041319 [  1   7   2   7] 0.040643 [  1  10   2  10] 0.040643 
    --------------------------------------------------------------------------------
    Norm of T2BB vector: (nonzero elements: 3676)                 0.696700201918256.
    --------------------------------------------------------------------------------

  ==> Possible Intruders <==

    T1 amplitudes larger than 0.1000 for spin case A:
        Amplitude         Value                  Denominator              
    ----------------------------------------------------------------------
    [ 15      19    ]    0.20636907 (  1.200555 -   3.143773 =  -1.943218)
    ----------------------------------------------------------------------
    T1 amplitudes larger than 0.1000 for spin case B:
        Amplitude         Value                  Denominator              
    ----------------------------------------------------------------------
    [ 15      19    ]    0.20636907 (  1.200555 -   3.143773 =  -1.943218)
    ----------------------------------------------------------------------
    T2 amplitudes larger than 0.1000 for spin case AA: NULL
    T2 amplitudes larger than 0.1000 for spin case AB: NULL
    T2 amplitudes larger than 0.1000 for spin case BB: NULL

  ==> DSRG-MRPT2 Energy Summary <==

    E0 (reference)                 =   -109.090719613198530
    <[F, T1]>                      =     -0.011901935281030
    <[F, T2]>                      =      0.011970170140115
    <[V, T1]>                      =      0.010332792110034
    <[V, T2]> (C_2)^4              =     -0.200242542848049
    <[V, T2]> C_4 (C_2)^2 HH       =      0.003160123987698
    <[V, T2]> C_4 (C_2)^2 PP       =      0.012828134487770
    <[V, T2]> C_4 (C_2)^2 PH       =      0.023265300424602
    <[V, T2]> C_6 C_2              =     -0.004275964232338
    <[V, T2]>                      =     -0.165264948180316
    DSRG-MRPT2 correlation energy  =     -0.154863921211197
    DSRG-MRPT2 total energy        =   -109.245583534409732
    max(T1)                        =      0.206369073218417
    max(T2)                        =      0.079673395636733
    ||T1||                         =      0.371802702694127
    ||T2||                         =      1.710298026930184

  Energy took      0.070 s


  ==> De-Normal-Order DSRG Transformed Hamiltonian <==

    Computing the scalar term                ... Done. Timing    0.001 s
    Computing the 1-body term                ... Done. Timing    0.000 s

  ==> Rotate DSRG Transformed Hamiltonian back to Original Basis <==

    Rotating 1-body term to original basis   ... Done. Timing    0.000 s
    Rotating 2-body term to original basis   ... Done. Timing    0.004 s

              ---------------------------------------------------
                Complete Active Space Configuration Interaction
                                  Chenyang Li
              ---------------------------------------------------


  ==> Input Summary <==

    No. a electrons in active      =     3
    No. b electrons in active      =     3
    multiplicity                   =     1
    spin ms (2 * Sz)               =     0

  ==> Orbital Spaces <==

    TOTAL MO                      [    7     1     3     3     1     7     3     3 ]
    FROZEN CORE                   [    1     0     0     0     0     1     0     0 ]
    FROZEN VIRTUAL                [    0     0     0     0     0     0     0     0 ]
    CORRELATED MO                 [    6     1     3     3     1     6     3     3 ]
    CORE                          [    1     0     0     0     0     1     0     0 ]
    ACTIVE                        [    1     0     1     1     0     1     1     1 ]
    VIRTUAL                       [    4     1     2     2     1     4     2     2 ]
  Forming alpha and beta strings      ...  Done. Timing        0.000071 s
  Forming determinants                ...  Done. Timing        0.000031 s

  ==> Determinants Summary <==

    number of alpha active electrons    =     3
    number of beta active electrons     =     3
    root symmetry (zero based)          =     0
    number of determinants              =    56

  Diagonalizing Hamiltonian           ...
  Found 32 roots with 2S+1 = 1 *
  Found 18 roots with 2S+1 = 3
  Found 6 roots with 2S+1 = 5  Done. Timing        0.001649 s

  * * * * * * * * * * * * * * * * *
  *  CI Vectors & Configurations  *
  * * * * * * * * * * * * * * * * *

  ==> Root No. 0 <==

    2 0 0 0 2 2          0.9680602372
    2 2 0 0 2 0         -0.1208742846
    2 0 2 0 0 2         -0.1208742846
    2 b a 0 b a          0.0770833727
    2 a b 0 a b          0.0770833727

    Total Energy:   -109.246090954592361



  ==> Permanent Dipole Moments (Ag) <==

  Only print nonzero (> 1.0e-5) elements.


  ==> DSRG-MRPT2 Energy Summary <==

    DSRG-MRPT2 Total Energy (fixed)   =   -109.245583534409732
    DSRG-MRPT2 Total Energy (relaxed) =   -109.246090954592361


  ==> Total Timings (s) for Computing Commutators <==

             [H1, T1]    [H1, T2]    [H2, T1]    [H2, T2]
    -----------------------------------------------------
    -> C0       0.001       0.002       0.002       0.036
    -> C1       0.000       0.004       0.003       0.049
    -> C2                   0.003       0.003       0.021
    -----------------------------------------------------
	DSRG-MRPT2 relaxed energy.........................................PASSED

    Psi4 stopped on: Thursday, 25 October 2018 03:26PM
    Psi4 wall time for execution: 0:00:02.07

*** Psi4 exiting successfully. Buy a developer a beer!
