
    -----------------------------------------------------------------------
          Psi4: An Open-Source Ab Initio Electronic Structure Package
                               Psi4 1.2a1.dev704 

                         Git: Rev {master} a7fc050 


    R. M. Parrish, L. A. Burns, D. G. A. Smith, A. C. Simmonett,
    A. E. DePrince III, E. G. Hohenstein, U. Bozkaya, A. Yu. Sokolov,
    R. Di Remigio, R. M. Richard, J. F. Gonthier, A. M. James,
    H. R. McAlexander, A. Kumar, M. Saitow, X. Wang, B. P. Pritchard,
    P. Verma, H. F. Schaefer III, K. Patkowski, R. A. King, E. F. Valeev,
    F. A. Evangelista, J. M. Turney, T. D. Crawford, and C. D. Sherrill,
    J. Chem. Theory Comput. 13(7) pp 3185--3197 (2017).
    (doi: 10.1021/acs.jctc.7b00174)

    -----------------------------------------------------------------------


    Psi4 started on: Monday, 04 December 2017 02:47PM

    Process ID:  38200
    PSIDATADIR: /Users/york/src/psi4new/psi4/share/psi4
    Memory:     500.0 MiB
    Threads:    1
    
  ==> Input File <==

--------------------------------------------------------------------------
#! Generated using commit GITCOMMIT
#! Perform a DF-DSRG-MRPT2 on N2
import forte

refrhf     = -108.95379624015762
refdsrgpt2 = -109.251898130715603
refdsrgpt2_ref_relax = -109.253503109377576

memory 500 mb

molecule N2{
  0 1
  N
  N  1 R
  R = 1.1
}

set globals{
   basis                   cc-pvdz
   df_basis_mp2            cc-pvdz-ri
   df_basis_scf            cc-pvdz-jkfit
   reference               rhf
   scf_type                pk
   d_convergence           12
   e_convergence           15
}

set forte {
   restricted_docc         [2,0,0,0,0,2,0,0]
   active                  [1,0,1,1,0,1,1,1]
   root_sym                0
   nroot                   1
   dsrg_s                  1.0
   semi_canonical          true
   int_type                df
   job_type                three-dsrg-mrpt2
   ntrial_per_root         100
   relax_ref               once
   fci_maxiter             50
}

Escf, wfn = energy('scf', return_wfn=True)
compare_values(refrhf,Escf,10,"SCF energy")

energy('forte', ref_wfn=wfn)
compare_values(refdsrgpt2_ref_relax,get_variable("CURRENT ENERGY"),10,"DSRG-MRPT2 energy")
--------------------------------------------------------------------------

  Memory set to 476.837 MiB by Python driver.

*** tstart() called on yorks-mac.wireless.emory.edu
*** at Mon Dec  4 14:47:17 2017

   => Loading Basis Set <=

    Name: CC-PVDZ
    Role: ORBITAL
    Keyword: BASIS
    atoms 1-2 entry N          line   168 file /Users/york/src/psi4new/psi4/share/psi4/basis/cc-pvdz.gbs 


         ---------------------------------------------------------
                                   SCF
            by Justin Turney, Rob Parrish, Andy Simmonett
                             and Daniel Smith
                              RHF Reference
                        1 Threads,    476 MiB Core
         ---------------------------------------------------------

  ==> Geometry <==

    Molecular point group: d2h
    Full point group: D_inf_h

    Geometry (in Angstrom), charge = 0, multiplicity = 1:

       Center              X                  Y                   Z               Mass       
    ------------   -----------------  -----------------  -----------------  -----------------
           N          0.000000000000     0.000000000000    -0.550000000000    14.003074004780
           N          0.000000000000     0.000000000000     0.550000000000    14.003074004780

  Running in d2h symmetry.

  Rotational constants: A = ************  B =      1.98984  C =      1.98984 [cm^-1]
  Rotational constants: A = ************  B =  59653.84444  C =  59653.84444 [MHz]
  Nuclear repulsion =   23.572439291736362

  Charge       = 0
  Multiplicity = 1
  Electrons    = 14
  Nalpha       = 7
  Nbeta        = 7

  ==> Algorithm <==

  SCF Algorithm Type is PK.
  DIIS enabled.
  MOM disabled.
  Fractional occupation disabled.
  Guess Type is SAD.
  Energy threshold   = 1.00e-15
  Density threshold  = 1.00e-12
  Integral threshold = 0.00e+00

  ==> Primary Basis <==

  Basis Set: CC-PVDZ
    Blend: CC-PVDZ
    Number of shells: 12
    Number of basis function: 28
    Number of Cartesian functions: 30
    Spherical Harmonics?: true
    Max angular momentum: 2

  ==> Pre-Iterations <==

   -------------------------------------------------------
    Irrep   Nso     Nmo     Nalpha   Nbeta   Ndocc  Nsocc
   -------------------------------------------------------
     Ag         7       7       0       0       0       0
     B1g        1       1       0       0       0       0
     B2g        3       3       0       0       0       0
     B3g        3       3       0       0       0       0
     Au         1       1       0       0       0       0
     B1u        7       7       0       0       0       0
     B2u        3       3       0       0       0       0
     B3u        3       3       0       0       0       0
   -------------------------------------------------------
    Total      28      28       7       7       7       0
   -------------------------------------------------------

  ==> Integral Setup <==

  Using in-core PK algorithm.
   Calculation information:
      Number of atoms:                   2
      Number of AO shells:              12
      Number of primitives:             44
      Number of atomic orbitals:        30
      Number of basis functions:        28

      Integral cutoff                 1.00e-12
      Number of threads:                 1

  Performing in-core PK
  Using 165242 doubles for integral storage.
  We computed 3081 shell quartets total.
  Whereas there are 3081 unique shell quartets.
  ==> DiskJK: Disk-Based J/K Matrices <==

    J tasked:                  Yes
    K tasked:                  Yes
    wK tasked:                  No
    Memory (MB):               357
    Schwarz Cutoff:          1E-12

    OpenMP threads:              1
  Minimum eigenvalue in the overlap matrix is 6.1906036234E-03.
  Using Symmetric Orthogonalization.

  SCF Guess: Superposition of Atomic Densities via on-the-fly atomic UHF.

  ==> Iterations <==

                        Total Energy        Delta E     RMS |[F,P]|

   @RHF iter   0:  -109.06317263384157   -1.09063e+02   1.99199e-01 
   @RHF iter   1:  -108.94040835775857    1.22764e-01   1.40178e-02 
   @RHF iter   2:  -108.95298248113576   -1.25741e-02   3.22382e-03 DIIS
   @RHF iter   3:  -108.95373807693197   -7.55596e-04   7.85290e-04 DIIS
   @RHF iter   4:  -108.95379597719216   -5.79003e-05   5.65254e-05 DIIS
   @RHF iter   5:  -108.95379623418536   -2.56993e-07   7.43723e-06 DIIS
   @RHF iter   6:  -108.95379623999663   -5.81127e-09   1.11713e-06 DIIS
   @RHF iter   7:  -108.95379624015655   -1.59915e-10   1.03468e-07 DIIS
   @RHF iter   8:  -108.95379624015773   -1.17950e-12   5.48866e-09 DIIS
   @RHF iter   9:  -108.95379624015767    5.68434e-14   5.98923e-10 DIIS
   @RHF iter  10:  -108.95379624015764    2.84217e-14   6.71829e-11 DIIS
   @RHF iter  11:  -108.95379624015771   -7.10543e-14   2.99120e-12 DIIS
   @RHF iter  12:  -108.95379624015762    9.94760e-14   2.35485e-13 DIIS
   @RHF iter  13:  -108.95379624015767   -5.68434e-14   2.41508e-14 DIIS
   @RHF iter  14:  -108.95379624015766    1.42109e-14   9.59660e-15 DIIS
   @RHF iter  15:  -108.95379624015774   -8.52651e-14   8.83233e-15 DIIS
   @RHF iter  16:  -108.95379624015766    8.52651e-14   6.40314e-15 DIIS
   @RHF iter  17:  -108.95379624015769   -2.84217e-14   6.72703e-15 DIIS
   @RHF iter  18:  -108.95379624015767    1.42109e-14   8.15535e-15 DIIS
   @RHF iter  19:  -108.95379624015766    1.42109e-14   6.63941e-15 DIIS
   @RHF iter  20:  -108.95379624015766    0.00000e+00   6.24225e-15 DIIS

  ==> Post-Iterations <==

    Orbital Energies (a.u.)
    -----------------------

    Doubly Occupied:                                                      

       1Ag   -15.687167     1B1u  -15.683810     2Ag    -1.469497  
       2B1u   -0.774851     3Ag    -0.626026     1B2u   -0.607175  
       1B3u   -0.607175  

    Virtual:                                                              

       1B3g    0.174428     1B2g    0.174428     3B1u    0.593893  
       4Ag     0.820946     2B3u    0.872872     2B2u    0.872872  
       5Ag     0.991969     2B2g    1.050510     2B3g    1.050510  
       4B1u    1.140849     5B1u    1.640840     1B1g    1.758149  
       6Ag     1.758149     3B2u    1.879691     3B3u    1.879691  
       1Au     2.297394     6B1u    2.297394     7Ag     2.871857  
       3B3g    2.993863     3B2g    2.993863     7B1u    3.278667  

    Final Occupation by Irrep:
             Ag   B1g   B2g   B3g    Au   B1u   B2u   B3u 
    DOCC [     3,    0,    0,    0,    0,    2,    1,    1 ]

  Energy converged.

  @RHF Final Energy:  -108.95379624015766

   => Energetics <=

    Nuclear Repulsion Energy =             23.5724392917363623
    One-Electron Energy =                -194.1410686716583882
    Two-Electron Energy =                  61.6148331397643574
    Total Energy =                       -108.9537962401576578



Properties will be evaluated at   0.000000,   0.000000,   0.000000 Bohr

Properties computed using the SCF density matrix

  Nuclear Dipole Moment: (a.u.)
     X:     0.0000      Y:     0.0000      Z:     0.0000

  Electronic Dipole Moment: (a.u.)
     X:     0.0000      Y:     0.0000      Z:     0.0000

  Dipole Moment: (a.u.)
     X:     0.0000      Y:     0.0000      Z:     0.0000     Total:     0.0000

  Dipole Moment: (Debye)
     X:     0.0000      Y:     0.0000      Z:     0.0000     Total:     0.0000


*** tstop() called on yorks-mac.wireless.emory.edu at Mon Dec  4 14:47:18 2017
Module time:
	user time   =       0.56 seconds =       0.01 minutes
	system time =       0.03 seconds =       0.00 minutes
	total time  =          1 seconds =       0.02 minutes
Total time:
	user time   =       0.56 seconds =       0.01 minutes
	system time =       0.03 seconds =       0.00 minutes
	total time  =          1 seconds =       0.02 minutes
	SCF energy........................................................PASSED
   => Loading Basis Set <=

    Name: CC-PVDZ-RI
    Role: RIFIT
    Keyword: DF_BASIS_MP2
    atoms 1-2 entry N          line   197 file /Users/york/src/psi4new/psi4/share/psi4/basis/cc-pvdz-ri.gbs 

   => Loading Basis Set <=

    Name: STO-3G
    Role: ORBITAL
    Keyword: MINAO_BASIS
    atoms 1-2 entry N          line    71 file /Users/york/src/psi4new/psi4/share/psi4/basis/sto-3g.gbs 


Reading options from the FORTE block
Calling plugin forte.so.



  Forte
  ----------------------------------------------------------------------------
  A suite of quantum chemistry methods for strongly correlated electrons

    git branch: master - git commit: 1c92254a

  Developed by:
    Francesco A. Evangelista, Chenyang Li, Kevin P. Hannon,
    Jeffrey B. Schriber, Tianyuan Zhang, Chenxi Cai
  ----------------------------------------------------------------------------

  Size of Determinant class: 32

  ==> MO Space Information <==

  Read options for space RESTRICTED_DOCC
  Read options for space ACTIVE
  -------------------------------------------------------------------------
                       Ag   B1g   B2g   B3g    Au   B1u   B2u   B3u   Sum
  -------------------------------------------------------------------------
    FROZEN_DOCC         0     0     0     0     0     0     0     0     0
    RESTRICTED_DOCC     2     0     0     0     0     2     0     0     4
    ACTIVE              1     0     1     1     0     1     1     1     6
    RESTRICTED_UOCC     4     1     2     2     1     4     2     2    18
    FROZEN_UOCC         0     0     0     0     0     0     0     0     0
    Total               7     1     3     3     1     7     3     3    28
  -------------------------------------------------------------------------

  ==> Integral Transformation <==

  Number of molecular orbitals:               28
  Number of correlated molecular orbitals:    28
  Number of frozen occupied orbitals:          0
  Number of frozen unoccupied orbitals:        0

    Molecular point group: d2h
    Full point group: D_inf_h

    Geometry (in Angstrom), charge = 0, multiplicity = 1:

       Center              X                  Y                   Z               Mass       
    ------------   -----------------  -----------------  -----------------  -----------------
           N          0.000000000000     0.000000000000    -0.550000000000    14.003074004780
           N          0.000000000000     0.000000000000     0.550000000000    14.003074004780

  -AO BASIS SET INFORMATION:
    Name                   = CC-PVDZ
    Blend                  = CC-PVDZ
    Total number of shells = 12
    Number of primitives   = 44
    Number of AO           = 30
    Number of SO           = 28
    Maximum AM             = 2
    Spherical Harmonics    = TRUE

  -Contraction Scheme:
    Atom   Type   All Primitives // Shells:
   ------ ------ --------------------------
       1     N     17s 4p 1d // 3s 2p 1d 
       2     N     17s 4p 1d // 3s 2p 1d 

  ==> AO Basis Functions <==

    [ CC-PVDZ ]
    spherical
    ****
    N   1
    S   8 1.00
                      9046.00000000           0.00070000
                      1357.00000000           0.00538900
                       309.30000000           0.02740600
                        87.73000000           0.10320700
                        28.56000000           0.27872300
                        10.21000000           0.44854000
                         3.83800000           0.27823800
                         0.74660000           0.01544000
    S   8 1.00
                      9046.00000000          -0.00015300
                      1357.00000000          -0.00120800
                       309.30000000          -0.00599200
                        87.73000000          -0.02454400
                        28.56000000          -0.06745900
                        10.21000000          -0.15807800
                         3.83800000          -0.12183100
                         0.74660000           0.54900300
    S   1 1.00
                         0.22480000           1.00000000
    P   3 1.00
                        13.55000000           0.03991900
                         2.91700000           0.21716900
                         0.79730000           0.51031900
    P   1 1.00
                         0.21850000           1.00000000
    D   1 1.00
                         0.81700000           1.00000000
    ****


  DFIntegrals overall time
 Computing Density fitted integrals 

 Number of auxiliary basis functions:  112
 Need 0.000654 GB to store DF integrals

  Computing DF Integrals               ......Done. Timing        0.021627 s
  DFIntegrals take      0.11872300 s

                -----------------------------------------------
                  String-based Full Configuration Interaction
                          by Francesco A. Evangelista
                -----------------------------------------------

  Number of electrons: 14
  Charge: 0
  Multiplicity: 1
  Davidson subspace max dim: 8
  Davidson subspace min dim: 2
  M_s: 0

  ==> String Lists <==

  Number of alpha electrons     = 3
  Number of beta electrons      = 3
  Number of alpha strings       = 20
  Number of beta strings        = 20
  Number of alpha strings (N-3) = 1
  Number of beta strings (N-3)  = 1
  Timing for strings        =      0.000 s
  Timing for NN strings     =      0.000 s
  Timing for VO strings     =      0.001 s
  Timing for OO strings     =      0.000 s
  Timing for VVOO strings   =      0.000 s
  Timing for VOVO strings   =      0.000 s
  Timing for 1-hole strings =      0.000 s
  Timing for 2-hole strings =      0.000 s
  Timing for 3-hole strings =      0.000 s
  Total timing              =      0.001 s

  ==> FCI Solver <==

    Number of determinants                          56
    Symmetry                                         0
    Multiplicity                                     1
    Number of roots                                  1
    Target root                                      0
    Trial vectors per root                          10

  Allocating memory for the Hamiltonian algorithm. Size: 2 x 4 x 4.   Memory: 0.000000 GB
  Initial guess space is incomplete.
  Adding 5 determinant(s).

  ==> FCI Initial Guess <==

  ---------------------------------------------
    Root            Energy     <S^2>   Spin
  ---------------------------------------------
      0     -109.020683043725  0.000  singlet
      1     -108.420606405745  6.000  quintet
      2     -108.352249567585  2.000  triplet
      3     -108.347771556811  0.000  singlet
      4     -108.283590426614  0.000  singlet
      5     -108.216230751841  0.000  singlet
      6     -108.185211152463  0.000  singlet
      7     -108.172041868731  0.000  singlet
      8     -108.120221446097  2.000  triplet
      9     -108.119880886637  0.000  singlet
     10     -108.106309486365  2.000  triplet
     11     -108.089269308707  0.000  singlet
     12     -107.877143621025  6.000  quintet
     13     -107.841399363437  6.000  quintet
     14     -107.804943550464  2.000  triplet
     15     -107.769894920978  2.000  triplet
     16     -107.765382773262  2.000  triplet
     17     -107.746608458173  2.000  triplet
     18     -107.740834967305  0.000  singlet
     19     -107.723172243943  2.000  triplet
     20     -107.709211980020  0.000  singlet
     21     -107.688524042182  0.000  singlet
     22     -107.601714528009  0.000  singlet
     23     -107.336668345726  2.000  triplet
     24     -107.280647264583  0.000  singlet
  ---------------------------------------------
  Timing for initial guess  =      0.153 s

  Projecting out root 1
  Projecting out root 2
  Projecting out root 8
  Projecting out root 10
  Projecting out root 12
  Projecting out root 13
  Projecting out root 14
  Projecting out root 15
  Projecting out root 16
  Projecting out root 17
  Projecting out root 19
  Projecting out root 23
  ==> Diagonalizing Hamiltonian <==

  ----------------------------------------
    Iter.      Avg. Energy       Delta_E
  ----------------------------------------
      1     -109.020683043725  -1.090e+02
      2     -109.023199344911  -2.516e-03
      3     -109.023268689604  -6.934e-05
      4     -109.023271751073  -3.061e-06
      5     -109.023271813199  -6.213e-08
      6     -109.023271814327  -1.128e-09
      7     -109.023271814348  -2.080e-11
      8     -109.023271814348  -2.842e-14
      9     -109.023271814348  -2.842e-14
     10     -109.023271814348  +0.000e+00
  ----------------------------------------
  The Davidson-Liu algorithm converged in 11 iterations.

  ==> Root No. 0 <==

    2 0 0 0 2 2      0.97280415
    2 2 0 0 2 0     -0.11943464
    2 0 2 0 0 2     -0.11943464

    Total Energy:      -109.023271814348121

  ==> Computing RDMs for Root No. 0 <==

    Timing for 1-RDM: 0.000 s
    Timing for 2-RDM: 0.001 s
    Timing for 3-RDM: 0.016 s

  ==> NATURAL ORBITALS <==

        1Ag     1.993490      1B2u    1.948410      1B3u    1.948410  
        1B2g    0.054253      1B3g    0.054253      1B1u    0.001183  


       -----------------------------------------------------------------
                            Semi-Canonical Orbitals
         Chenyang Li, Jeffrey B. Schriber and Francesco A. Evangelista
       -----------------------------------------------------------------

  Took 0.026041 s to build Fock matrix

  ==> Checking Fock Matrix Diagonal Blocks <==

    Off-Diag. Elements       Max           2-Norm
    ------------------------------------------------
    Fa actv              0.0000000000   0.0000000000
    Fb actv              0.0000000000   0.0000000000
    ------------------------------------------------
    Fa core              0.0004181152   0.0006383991
    Fb core              0.0004181152   0.0006383991
    ------------------------------------------------
    Fa virt              0.0029336740   0.0075529689
    Fb virt              0.0029336740   0.0075529689
    ------------------------------------------------

  ==> Integral Transformation to Semicanonical Basis <==
    Molecular point group: d2h
    Full point group: D_inf_h

    Geometry (in Angstrom), charge = 0, multiplicity = 1:

       Center              X                  Y                   Z               Mass       
    ------------   -----------------  -----------------  -----------------  -----------------
           N          0.000000000000     0.000000000000    -0.550000000000    14.003074004780
           N          0.000000000000     0.000000000000     0.550000000000    14.003074004780

  -AO BASIS SET INFORMATION:
    Name                   = CC-PVDZ
    Blend                  = CC-PVDZ
    Total number of shells = 12
    Number of primitives   = 44
    Number of AO           = 30
    Number of SO           = 28
    Maximum AM             = 2
    Spherical Harmonics    = TRUE

  -Contraction Scheme:
    Atom   Type   All Primitives // Shells:
   ------ ------ --------------------------
       1     N     17s 4p 1d // 3s 2p 1d 
       2     N     17s 4p 1d // 3s 2p 1d 

  ==> AO Basis Functions <==

    [ CC-PVDZ ]
    spherical
    ****
    N   1
    S   8 1.00
                      9046.00000000           0.00070000
                      1357.00000000           0.00538900
                       309.30000000           0.02740600
                        87.73000000           0.10320700
                        28.56000000           0.27872300
                        10.21000000           0.44854000
                         3.83800000           0.27823800
                         0.74660000           0.01544000
    S   8 1.00
                      9046.00000000          -0.00015300
                      1357.00000000          -0.00120800
                       309.30000000          -0.00599200
                        87.73000000          -0.02454400
                        28.56000000          -0.06745900
                        10.21000000          -0.15807800
                         3.83800000          -0.12183100
                         0.74660000           0.54900300
    S   1 1.00
                         0.22480000           1.00000000
    P   3 1.00
                        13.55000000           0.03991900
                         2.91700000           0.21716900
                         0.79730000           0.51031900
    P   1 1.00
                         0.21850000           1.00000000
    D   1 1.00
                         0.81700000           1.00000000
    ****


 Integrals are about to be computed.
 Computing Density fitted integrals 

 Number of auxiliary basis functions:  112
 Need 0.000654 GB to store DF integrals

  Computing DF Integrals               ......Done. Timing        0.022612 s
 Integrals are about to be updated.
  Frozen Orbitals takes     0.000 s.

  ==> Reference Transformation to Semicanonical Basis <==

    Transformed 1 cumulants.
    Transformed 2 cumulants and RDMs.
    Transformed 3 cumulants.
  SemiCanonicalize takes 2.079104 s.

  ==> Multireference Driven Similarity Renormalization Group <==

    Reading DSRG options ............................ Done
    Setting ambit MO space .......................... Done
    Preparing tensors for density cumulants ......... Done
    Building Fock matrix ............................ Done

                  --------------------------------------------
                      Density Fitted / Cholesky Decomposed
                    MR-DSRG Second-Order Perturbation Theory
                      Kevin Hannon and Chenyang (York) Li
                                    1 thread
                  --------------------------------------------

    References:
      u-DSRG-MRPT2:      J. Chem. Theory Comput. 2015, 11, 2097.
      DF/CD-DSRG-MRPT2:  J. Chem. Phys. 2016, 144, 204111.
      (pr-)DSRG-MRPT2:   J. Chem. Phys. 2017, 146, 124132.


  ==> Calculation Information <==

    Flow parameter                                 1.000e+00
    Taylor expansion threshold                     1.000e-03
    Cholesky tolerance                             1.000e-06
    Psi4 ref_type                                        RHF
    Integral type                                         DF
    Source operator                                 STANDARD
    CCVV algorithm                                 FLY_AMBIT
    CCVV source                                       NORMAL
    Reference relaxation                                ONCE
    State type                                STATE-SPECIFIC

  ==> Checking Semicanonical Orbitals <==

    Abs. max of Fock core, active, virtual blocks (Fij, i != j)
                  core          active         virtual
    --------------------------------------------------
    Fα    0.0000000000    0.0000000000    0.0000000000
    Fβ    0.0000000000    0.0000000000    0.0000000000
    --------------------------------------------------

    1-Norm of Fock core, active, virtual blocks (Fij, i != j)
                  core          active         virtual
    --------------------------------------------------
    Fα    0.0000000000    0.0000000000    0.0000000000
    Fβ    0.0000000000    0.0000000000    0.0000000000
    --------------------------------------------------

    Orbitals are semi-canonicalized.

  ==> Computing DSRG-MRPT2 Energy <==

  Reference Energy = -109.023271814348121
    Computing T2                             ...... Done. Timing        0.037611 s
    Renormalizing V                          ...... Done. Timing        0.033676 s
    Computing T1                             ...... Done. Timing        0.005508 s
    Renormalizing F                          ...... Done. Timing        0.007246 s
    Computing <[F, T1]>                      ...... Done. Timing        0.001983 s
    Computing <[F, T2]>                      ...... Done. Timing        0.004401 s
    Computing <[V, T1]>                      ...... Done. Timing        0.004097 s
    Computing <[V, T2]> 4HH                  ...... Done. Timing        0.005741 s
    Computing <V, T2]> 4PP                   ...... Done. Timing        0.006783 s
    Computing [V, T2] 4PH                    ...... Done. Timing        0.028456 s
    Computing [V, T2] λ3                     ...... Done. Timing        0.086862 s
    Computing <[V, T2]> (C_2)^4 (no ccvv)    ...... Done. Timing        0.026803 s
    Computing <[V, T2]> (C_2)^4 ccvv         ...... Done. Timing        0.007754 s
  Eccvv: -0.0170494998

  ==> DSRG-MRPT2 (DF/CD) Energy Summary <==

    E0 (reference)                 =   -109.023271814348121
    <[F, T1]>                      =     -0.000030401784512
    <[F, T2]>                      =     -0.000158216679712
    <[V, T1]>                      =     -0.000192286736335
    <[V, T2]> C_4 (C_2)^2 HH       =      0.003654264803215
    <[V, T2]> C_4 (C_2)^2 PP       =      0.015965766854880
    <[V, T2]> C_4 (C_2)^2 PH       =      0.017506302402219
    <[V, T2]> C_6 C_2              =     -0.000193839261860
    <[V, T2]> (C_2)^4              =     -0.265177905966978
    <[V, T2]>                      =     -0.228245411168524
    DSRG-MRPT2 correlation energy  =     -0.228626316369083
    DSRG-MRPT2 total energy        =   -109.251898130717208
    max(T1)                        =      0.002246022946125
    ||T1||                         =      0.006990654161608

  ==> Form DSRG-PT2 Transformed Hamiltonian <==

    Initalizing Hbar                         ... Done. Timing:      0.007 s.
    Computing all-active Hbar                ... Done. Timing:      0.334 s.

  ==> De-Normal-Order DSRG Transformed Hamiltonian <==

    Computing the scalar term                ... Done. Timing    0.003 s
    Computing the 1-body term                ... Done. Timing    0.001 s

  ==> Rotate DSRG Transformed Hamiltonian back to Original Basis <==

    Rotating 1-body term to original basis   ... Done. Timing    0.001 s
    Rotating 2-body term to original basis   ... Done. Timing    0.019 s

  ==> String Lists <==

  Number of alpha electrons     = 3
  Number of beta electrons      = 3
  Number of alpha strings       = 20
  Number of beta strings        = 20
  Number of alpha strings (N-3) = 1
  Number of beta strings (N-3)  = 1
  Timing for strings        =      0.000 s
  Timing for NN strings     =      0.000 s
  Timing for VO strings     =      0.001 s
  Timing for OO strings     =      0.000 s
  Timing for VVOO strings   =      0.000 s
  Timing for VOVO strings   =      0.000 s
  Timing for 1-hole strings =      0.000 s
  Timing for 2-hole strings =      0.000 s
  Timing for 3-hole strings =      0.000 s
  Total timing              =      0.002 s

  ==> FCI Solver <==

    Number of determinants                          56
    Symmetry                                         0
    Multiplicity                                     1
    Number of roots                                  1
    Target root                                      0
    Trial vectors per root                         100

  Allocating memory for the Hamiltonian algorithm. Size: 2 x 4 x 4.   Memory: 0.000000 GB

  ==> FCI Initial Guess <==

  ---------------------------------------------
    Root            Energy     <S^2>   Spin
  ---------------------------------------------
      0     -109.253503109378  0.000  singlet
      1     -108.688256623836  6.000  quintet
      2     -108.640235938756  0.000  singlet
      3     -108.631265420032  0.000  singlet
      4     -108.619541529125  2.000  triplet
      5     -108.603150517496  0.000  singlet
      6     -108.547023686814  0.000  singlet
      7     -108.475711214437  0.000  singlet
      8     -108.469660746686  2.000  triplet
      9     -108.456368549698  2.000  triplet
     10     -108.441936549085  0.000  singlet
     11     -108.438213640647  0.000  singlet
     12     -108.249818378700  6.000  quintet
     13     -108.204269915133  6.000  quintet
     14     -108.198019629193  0.000  singlet
     15     -108.183579232518  2.000  triplet
     16     -108.145047699731  2.000  triplet
     17     -108.138132510758  2.000  triplet
     18     -108.125410190759  0.000  singlet
     19     -108.104529482020  2.000  triplet
     20     -108.098508097105  2.000  triplet
     21     -108.080478741432  0.000  singlet
     22     -108.056300452340  0.000  singlet
     23     -107.917359561764  2.000  triplet
     24     -107.871415090093  0.000  singlet
     25     -107.861657479929  0.000  singlet
     26     -107.826459686841  0.000  singlet
     27     -107.625644618963  0.000  singlet
     28     -107.598201329684  0.000  singlet
     29     -107.393381445299  0.000  singlet
     30     -107.391143011917  6.000  quintet
     31     -107.359741804514  6.000  quintet
     32     -107.351735935101  0.000  singlet
     33     -107.325813353247  2.000  triplet
     34     -107.294266206469  2.000  triplet
     35     -107.287453640326  2.000  triplet
     36     -107.273600505275  2.000  triplet
     37     -107.267020410536  0.000  singlet
     38     -107.255734916741  2.000  triplet
     39     -107.235505971861  0.000  singlet
     40     -107.228189990679  0.000  singlet
     41     -106.973792182352  2.000  triplet
     42     -106.952930908243  6.000  quintet
     43     -106.929217311744  0.000  singlet
     44     -106.884219390597  2.000  triplet
     45     -106.884212854609  0.000  singlet
     46     -106.812209454416  0.000  singlet
     47     -106.741483213658  0.000  singlet
     48     -106.730045580273  2.000  triplet
     49     -106.716814926079  2.000  triplet
     50     -106.713310825060  0.000  singlet
     51     -106.712913179849  0.000  singlet
     52     -106.456776786557  0.000  singlet
     53     -106.446443213377  0.000  singlet
     54     -106.424221195142  0.000  singlet
     55     -105.761046958691  0.000  singlet
  ---------------------------------------------
  Timing for initial guess  =      1.662 s

  Projecting out root 1
  Projecting out root 4
  Projecting out root 8
  Projecting out root 9
  Projecting out root 12
  Projecting out root 13
  Projecting out root 15
  Projecting out root 16
  Projecting out root 17
  Projecting out root 19
  Projecting out root 20
  Projecting out root 23
  Projecting out root 30
  Projecting out root 31
  Projecting out root 33
  Projecting out root 34
  Projecting out root 35
  Projecting out root 36
  Projecting out root 38
  Projecting out root 41
  Projecting out root 42
  Projecting out root 44
  Projecting out root 48
  Projecting out root 49
  ==> Diagonalizing Hamiltonian <==

  ----------------------------------------
    Iter.      Avg. Energy       Delta_E
  ----------------------------------------
      1     -109.253503109378  -1.093e+02
      2     -109.253503109378  +0.000e+00
  ----------------------------------------
  The Davidson-Liu algorithm converged in 3 iterations.

  ==> Root No. 0 <==

    2 0 0 0 2 2     -0.97939058
    2 2 0 0 2 0      0.10712430
    2 0 2 0 0 2      0.10712430

    Total Energy:      -109.253503109377860

  ==> Computing RDMs for Root No. 0 <==

    Timing for 1-RDM: 0.000 s

  ==> NATURAL ORBITALS <==

        1Ag     1.993320      1B2u    1.961948      1B3u    1.961948  
        1B2g    0.040547      1B3g    0.040547      1B1u    0.001690  


  ==> CD/DF DSRG-MRPT2 Energy Summary <==

    CD/DF DSRG-MRPT2 Total Energy (fixed)   =   -109.251898130717208
    CD/DF DSRG-MRPT2 Total Energy (relaxed) =   -109.253503109377860

  ==> Total Timings (s) for Computing Commutators <==

             [H1, T1]    [H1, T2]    [H2, T1]    [H2, T2]
    -----------------------------------------------------
    -> C0       0.002       0.004       0.004       0.076
    -> C1       0.002       0.012       0.009       0.173
    -> C2                   0.014       0.017       0.106
    -----------------------------------------------------

 CD/DF DSRG-MRPT2 took  4.75913 s.	DSRG-MRPT2 energy.................................................PASSED

*** Psi4 exiting successfully. Buy a developer a beer!
