
    -----------------------------------------------------------------------
          Psi4: An Open-Source Ab Initio Electronic Structure Package
                               Psi4 1.9a1.dev49 

                         Git: Rev {master} 990b0e8 


    D. G. A. Smith, L. A. Burns, A. C. Simmonett, R. M. Parrish,
    M. C. Schieber, R. Galvelis, P. Kraus, H. Kruse, R. Di Remigio,
    A. Alenaizan, A. M. James, S. Lehtola, J. P. Misiewicz, M. Scheurer,
    R. A. Shaw, J. B. Schriber, Y. Xie, Z. L. Glick, D. A. Sirianni,
    J. S. O'Brien, J. M. Waldrop, A. Kumar, E. G. Hohenstein,
    B. P. Pritchard, B. R. Brooks, H. F. Schaefer III, A. Yu. Sokolov,
    K. Patkowski, A. E. DePrince III, U. Bozkaya, R. A. King,
    F. A. Evangelista, J. M. Turney, T. D. Crawford, C. D. Sherrill,
    J. Chem. Phys. 152(18) 184108 (2020). https://doi.org/10.1063/5.0006002

                            Additional Code Authors
    E. T. Seidl, C. L. Janssen, E. F. Valeev, M. L. Leininger,
    J. F. Gonthier, R. M. Richard, H. R. McAlexander, M. Saitow, X. Wang,
    P. Verma, M. H. Lechner, A. Jiang, S. Behnle, A. G. Heide,
    M. F. Herbst, and D. L. Poole

             Previous Authors, Complete List of Code Contributors,
                       and Citations for Specific Modules
    https://github.com/psi4/psi4/blob/master/codemeta.json
    https://github.com/psi4/psi4/graphs/contributors
    http://psicode.org/psi4manual/master/introduction.html#citing-psifour

    -----------------------------------------------------------------------


    Psi4 started on: Saturday, 23 September 2023 09:29PM

    Process ID: 32935
    Host:       MacBook-Pro-158.attlocal.net
    PSIDATADIR: /Users/fevange/Source/psi4/objdir-Release/stage/share/psi4
    Memory:     500.0 MiB
    Threads:    2
    
  ==> Input File <==

--------------------------------------------------------------------------
# GAS ACI calculation 
# Failed gas-aci will lead to correct aci energy but incorrect acipt2 energy

import forte

refscf = -14.839846512738 #TEST
refaci = -14.889166944306 #TEST
refacipt2 = -14.890163810516 #TEST

molecule li2{
0 1
   Li
   Li 1 2.0000
}

set {
  basis DZ
  e_convergence 10
  d_convergence 10
  r_convergence 10
  guess gwh
}

set scf {
  scf_type pk
  reference rhf
}

set forte {
  active_space_solver aci
  multiplicity 1
  ms 0.0
  sigma 0.001
  nroot 1
  root_sym 0
  charge 0
  sci_enforce_spin_complete false
  r_convergence 0.1
  active_ref_type gas_single
  dl_dets_per_guess 25
  GAS1 [6,0,2,2,0,6,0,0]
  GAS2 [0,0,0,0,0,0,2,2]
  GAS2MAX [2]
  GAS2MIN [0]
  GAS1MIN [4]
  GAS1MAX [6]
}

energy('scf')

compare_values(refscf, variable("CURRENT ENERGY"),9, "SCF energy") #TEST

energy('forte')
compare_values(refaci, variable("ACI ENERGY"),9, "ACI energy") #TEST
compare_values(refacipt2, variable("ACI+PT2 ENERGY"),8, "ACI+PT2 energy") #TEST
--------------------------------------------------------------------------

Scratch directory: /tmp/
   => Libint2 <=

    Primary   basis highest AM E, G, H:  5, 4, 3
    Auxiliary basis highest AM E, G, H:  6, 5, 4
    Onebody   basis highest AM E, G, H:  6, 5, 4
    Solid Harmonics ordering:            gaussian

*** tstart() called on MacBook-Pro-158.attlocal.net
*** at Sat Sep 23 21:29:50 2023

   => Loading Basis Set <=

    Name: DZ
    Role: ORBITAL
    Keyword: BASIS
    atoms 1-2 entry LI         line    20 file /Users/fevange/Source/psi4/objdir-Release/stage/share/psi4/basis/dz.gbs 


         ---------------------------------------------------------
                                   SCF
               by Justin Turney, Rob Parrish, Andy Simmonett
                          and Daniel G. A. Smith
                              RHF Reference
                        2 Threads,    500 MiB Core
         ---------------------------------------------------------

  ==> Geometry <==

    Molecular point group: d2h
    Full point group: D_inf_h

    Geometry (in Angstrom), charge = 0, multiplicity = 1:

       Center              X                  Y                   Z               Mass       
    ------------   -----------------  -----------------  -----------------  -----------------
         LI           0.000000000000     0.000000000000    -1.000000000000     7.016003436600
         LI           0.000000000000     0.000000000000     1.000000000000     7.016003436600

  Running in d2h symmetry.

  Rotational constants: A = ************  B =      1.20137  C =      1.20137 [cm^-1]
  Rotational constants: A = ************  B =  36016.16030  C =  36016.16030 [MHz]
  Nuclear repulsion =    2.381297448014999

  Charge       = 0
  Multiplicity = 1
  Electrons    = 6
  Nalpha       = 3
  Nbeta        = 3

  ==> Algorithm <==

  SCF Algorithm Type is PK.
  DIIS enabled.
  MOM disabled.
  Fractional occupation disabled.
  Guess Type is GWH.
  Energy threshold   = 1.00e-10
  Density threshold  = 1.00e-10
  Integral threshold = 1.00e-12

  ==> Primary Basis <==

  Basis Set: DZ
    Blend: DZ
    Number of shells: 12
    Number of basis functions: 20
    Number of Cartesian functions: 20
    Spherical Harmonics?: false
    Max angular momentum: 1

   => Loading Basis Set <=

    Name: (DZ AUX)
    Role: JKFIT
    Keyword: DF_BASIS_SCF
    atoms 1-2 entry LI         line    54 file /Users/fevange/Source/psi4/objdir-Release/stage/share/psi4/basis/def2-universal-jkfit.gbs 

  ==> Integral Setup <==

  Using in-core PK algorithm.
   Calculation information:
      Number of atoms:                   2
      Number of AO shells:              12
      Number of primitives:             26
      Number of atomic orbitals:        20
      Number of basis functions:        20

      Integral cutoff                 1.00e-12
      Number of threads:                 2

  Performing in-core PK
  Using 44310 doubles for integral storage.
  We computed 3412 shell quartets total.
  Whereas there are 3081 unique shell quartets.
    10.74 percent of shell quartets recomputed by reordering.

  ==> DiskJK: Disk-Based J/K Matrices <==

    J tasked:                  Yes
    K tasked:                  Yes
    wK tasked:                  No
    Memory [MiB]:              375
    Schwarz Cutoff:          1E-12

    OpenMP threads:              2

  Minimum eigenvalue in the overlap matrix is 6.5960170734E-03.
  Reciprocal condition number of the overlap matrix is 1.7658990716E-03.
    Using symmetric orthogonalization.

  ==> Pre-Iterations <==

  SCF Guess: Generalized Wolfsberg-Helmholtz applied to core Hamiltonian.

   -------------------------------------------------------
    Irrep   Nso     Nmo     Nalpha   Nbeta   Ndocc  Nsocc
   -------------------------------------------------------
     Ag         6       6       1       1       1       0
     B1g        0       0       0       0       0       0
     B2g        2       2       0       0       0       0
     B3g        2       2       0       0       0       0
     Au         0       0       0       0       0       0
     B1u        6       6       2       2       2       0
     B2u        2       2       0       0       0       0
     B3u        2       2       0       0       0       0
   -------------------------------------------------------
    Total      20      20       3       3       3       0
   -------------------------------------------------------

  ==> Iterations <==

                           Total Energy        Delta E     RMS |[F,P]|

    Occupation by irrep:
             Ag   B1g   B2g   B3g    Au   B1u   B2u   B3u 
    DOCC [     2,    0,    0,    0,    0,    1,    0,    0 ]
    NA   [     2,    0,    0,    0,    0,    1,    0,    0 ]
    NB   [     2,    0,    0,    0,    0,    1,    0,    0 ]

   @DF-RHF iter   1:   -13.86328592226921   -1.38633e+01   1.32705e-01 ADIIS
   @DF-RHF iter   2:   -14.83151256644319   -9.68227e-01   8.08932e-03 DIIS/ADIIS
   @DF-RHF iter   3:   -14.83897218043133   -7.45961e-03   1.50536e-03 DIIS/ADIIS
   @DF-RHF iter   4:   -14.83973850086370   -7.66320e-04   5.08043e-04 DIIS/ADIIS
   @DF-RHF iter   5:   -14.83984349646413   -1.04996e-04   7.82945e-05 DIIS
   @DF-RHF iter   6:   -14.83984644158975   -2.94513e-06   1.24228e-05 DIIS
   @DF-RHF iter   7:   -14.83984651200924   -7.04195e-08   7.77216e-08 DIIS
   @DF-RHF iter   8:   -14.83984651201062   -1.37668e-12   1.11611e-08 DIIS
   @DF-RHF iter   9:   -14.83984651201067   -5.50671e-14   2.86294e-09 DIIS
   @DF-RHF iter  10:   -14.83984651201067   -1.77636e-15   8.34155e-11 DIIS
  Energy and wave function converged.


  ==> Post-Iterations <==

    Orbital Energies [Eh]
    ---------------------

    Doubly Occupied:                                                      

       1Ag    -2.470948     1B1u   -2.465815     2Ag    -0.194380  

    Virtual:                                                              

       2B1u    0.012721     1B3u    0.026034     1B2u    0.026034  
       3Ag     0.049075     1B2g    0.069563     1B3g    0.069563  
       3B1u    0.080420     4Ag     0.130086     2B3u    0.137741  
       2B2u    0.137741     5Ag     0.171764     2B2g    0.242777  
       2B3g    0.242777     4B1u    0.246004     5B1u    0.480486  
       6Ag     1.695539     6B1u    1.801802  

    Final Occupation by Irrep:
             Ag   B1g   B2g   B3g    Au   B1u   B2u   B3u 
    DOCC [     2,    0,    0,    0,    0,    1,    0,    0 ]
    NA   [     2,    0,    0,    0,    0,    1,    0,    0 ]
    NB   [     2,    0,    0,    0,    0,    1,    0,    0 ]

  @DF-RHF Final Energy:   -14.83984651201067

   => Energetics <=

    Nuclear Repulsion Energy =              2.3812974480149989
    One-Electron Energy =                 -24.1800018422928567
    Two-Electron Energy =                   6.9588578822671847
    Total Energy =                        -14.8398465120106735

Computation Completed


Properties will be evaluated at   0.000000,   0.000000,   0.000000 [a0]

Properties computed using the SCF density matrix


 Multipole Moments:

 ------------------------------------------------------------------------------------
     Multipole            Electronic (a.u.)      Nuclear  (a.u.)        Total (a.u.)
 ------------------------------------------------------------------------------------

 L = 1.  Multiply by 2.5417464519 to convert [e a0] to [Debye]
 Dipole X            :          0.0000000            0.0000000            0.0000000
 Dipole Y            :          0.0000000            0.0000000            0.0000000
 Dipole Z            :          0.0000000            0.0000000            0.0000000
 Magnitude           :                                                    0.0000000

 ------------------------------------------------------------------------------------

*** tstop() called on MacBook-Pro-158.attlocal.net at Sat Sep 23 21:29:50 2023
Module time:
	user time   =       0.82 seconds =       0.01 minutes
	system time =       1.76 seconds =       0.03 minutes
	total time  =          0 seconds =       0.00 minutes
Total time:
	user time   =       0.82 seconds =       0.01 minutes
	system time =       1.76 seconds =       0.03 minutes
	total time  =          0 seconds =       0.00 minutes
    SCF energy............................................................................PASSED

Scratch directory: /tmp/

  Forte
  ----------------------------------------------------------------------------
  A suite of quantum chemistry methods for strongly correlated electrons

    git branch: ksa - git commit: df9f10df

  Developed by:
    Francesco A. Evangelista, Chenyang Li, Kevin P. Hannon,
    Jeffrey B. Schriber, Tianyuan Zhang, Chenxi Cai,
    Nan He, Nicholas Stair, Shuhe Wang, Renke Huang
  ----------------------------------------------------------------------------

  Size of Determinant class: 128 bits

  Preparing forte objects from a Psi4 Wavefunction object
  No reference wave function provided for Forte. Computing SCF orbitals using Psi4 ...
   => Libint2 <=

    Primary   basis highest AM E, G, H:  5, 4, 3
    Auxiliary basis highest AM E, G, H:  6, 5, 4
    Onebody   basis highest AM E, G, H:  6, 5, 4
    Solid Harmonics ordering:            gaussian

*** tstart() called on MacBook-Pro-158.attlocal.net
*** at Sat Sep 23 21:29:50 2023

   => Loading Basis Set <=

    Name: DZ
    Role: ORBITAL
    Keyword: BASIS
    atoms 1-2 entry LI         line    20 file /Users/fevange/Source/psi4/objdir-Release/stage/share/psi4/basis/dz.gbs 


         ---------------------------------------------------------
                                   SCF
               by Justin Turney, Rob Parrish, Andy Simmonett
                          and Daniel G. A. Smith
                              RHF Reference
                        2 Threads,    500 MiB Core
         ---------------------------------------------------------

  ==> Geometry <==

    Molecular point group: d2h
    Full point group: D_inf_h

    Geometry (in Angstrom), charge = 0, multiplicity = 1:

       Center              X                  Y                   Z               Mass       
    ------------   -----------------  -----------------  -----------------  -----------------
         LI           0.000000000000     0.000000000000    -1.000000000000     7.016003436600
         LI           0.000000000000     0.000000000000     1.000000000000     7.016003436600

  Running in d2h symmetry.

  Rotational constants: A = ************  B =      1.20137  C =      1.20137 [cm^-1]
  Rotational constants: A = ************  B =  36016.16030  C =  36016.16030 [MHz]
  Nuclear repulsion =    2.381297448014998

  Charge       = 0
  Multiplicity = 1
  Electrons    = 6
  Nalpha       = 3
  Nbeta        = 3

  ==> Algorithm <==

  SCF Algorithm Type is PK.
  DIIS enabled.
  MOM disabled.
  Fractional occupation disabled.
  Guess Type is GWH.
  Energy threshold   = 1.00e-10
  Density threshold  = 1.00e-10
  Integral threshold = 1.00e-12

  ==> Primary Basis <==

  Basis Set: DZ
    Blend: DZ
    Number of shells: 12
    Number of basis functions: 20
    Number of Cartesian functions: 20
    Spherical Harmonics?: false
    Max angular momentum: 1

  ==> Integral Setup <==

  Using in-core PK algorithm.
   Calculation information:
      Number of atoms:                   2
      Number of AO shells:              12
      Number of primitives:             26
      Number of atomic orbitals:        20
      Number of basis functions:        20

      Integral cutoff                 1.00e-12
      Number of threads:                 2

  Performing in-core PK
  Using 44310 doubles for integral storage.
  We computed 3412 shell quartets total.
  Whereas there are 3081 unique shell quartets.
    10.74 percent of shell quartets recomputed by reordering.

  ==> DiskJK: Disk-Based J/K Matrices <==

    J tasked:                  Yes
    K tasked:                  Yes
    wK tasked:                  No
    Memory [MiB]:              375
    Schwarz Cutoff:          1E-12

    OpenMP threads:              2

  Minimum eigenvalue in the overlap matrix is 6.5960170734E-03.
  Reciprocal condition number of the overlap matrix is 1.7658990716E-03.
    Using symmetric orthogonalization.

  ==> Pre-Iterations <==

  SCF Guess: Generalized Wolfsberg-Helmholtz applied to core Hamiltonian.

   -------------------------------------------------------
    Irrep   Nso     Nmo     Nalpha   Nbeta   Ndocc  Nsocc
   -------------------------------------------------------
     Ag         6       6       1       1       1       0
     B1g        0       0       0       0       0       0
     B2g        2       2       0       0       0       0
     B3g        2       2       0       0       0       0
     Au         0       0       0       0       0       0
     B1u        6       6       2       2       2       0
     B2u        2       2       0       0       0       0
     B3u        2       2       0       0       0       0
   -------------------------------------------------------
    Total      20      20       3       3       3       0
   -------------------------------------------------------

  ==> Iterations <==

                        Total Energy        Delta E     RMS |[F,P]|

    Occupation by irrep:
             Ag   B1g   B2g   B3g    Au   B1u   B2u   B3u 
    DOCC [     2,    0,    0,    0,    0,    1,    0,    0 ]
    NA   [     2,    0,    0,    0,    0,    1,    0,    0 ]
    NB   [     2,    0,    0,    0,    0,    1,    0,    0 ]

   @RHF iter   1:   -13.86328592226845   -1.38633e+01   1.32705e-01 ADIIS
   @RHF iter   2:   -14.83151256644317   -9.68227e-01   8.08932e-03 DIIS/ADIIS
   @RHF iter   3:   -14.83897218043133   -7.45961e-03   1.50536e-03 DIIS/ADIIS
   @RHF iter   4:   -14.83973850086370   -7.66320e-04   5.08043e-04 DIIS/ADIIS
   @RHF iter   5:   -14.83984349646412   -1.04996e-04   7.82945e-05 DIIS
   @RHF iter   6:   -14.83984644158975   -2.94513e-06   1.24228e-05 DIIS
   @RHF iter   7:   -14.83984651200924   -7.04195e-08   7.77216e-08 DIIS
   @RHF iter   8:   -14.83984651201061   -1.36779e-12   1.11611e-08 DIIS
   @RHF iter   9:   -14.83984651201065   -4.79616e-14   2.86294e-09 DIIS
   @RHF iter  10:   -14.83984651201066   -3.55271e-15   8.34153e-11 DIIS
  Energy and wave function converged.


  ==> Post-Iterations <==

    Orbital Energies [Eh]
    ---------------------

    Doubly Occupied:                                                      

       1Ag    -2.470948     1B1u   -2.465815     2Ag    -0.194380  

    Virtual:                                                              

       2B1u    0.012721     1B3u    0.026034     1B2u    0.026034  
       3Ag     0.049075     1B3g    0.069563     1B2g    0.069563  
       3B1u    0.080420     4Ag     0.130086     2B3u    0.137741  
       2B2u    0.137741     5Ag     0.171764     2B3g    0.242777  
       2B2g    0.242777     4B1u    0.246004     5B1u    0.480486  
       6Ag     1.695539     6B1u    1.801802  

    Final Occupation by Irrep:
             Ag   B1g   B2g   B3g    Au   B1u   B2u   B3u 
    DOCC [     2,    0,    0,    0,    0,    1,    0,    0 ]
    NA   [     2,    0,    0,    0,    0,    1,    0,    0 ]
    NB   [     2,    0,    0,    0,    0,    1,    0,    0 ]

  @RHF Final Energy:   -14.83984651201066

   => Energetics <=

    Nuclear Repulsion Energy =              2.3812974480149975
    One-Electron Energy =                 -24.1800018422928318
    Two-Electron Energy =                   6.9588578822671767
    Total Energy =                        -14.8398465120106575

Computation Completed


Properties will be evaluated at   0.000000,   0.000000,   0.000000 [a0]

Properties computed using the SCF density matrix


 Multipole Moments:

 ------------------------------------------------------------------------------------
     Multipole            Electronic (a.u.)      Nuclear  (a.u.)        Total (a.u.)
 ------------------------------------------------------------------------------------

 L = 1.  Multiply by 2.5417464519 to convert [e a0] to [Debye]
 Dipole X            :          0.0000000            0.0000000            0.0000000
 Dipole Y            :          0.0000000            0.0000000            0.0000000
 Dipole Z            :          0.0000000            0.0000000            0.0000000
 Magnitude           :                                                    0.0000000

 ------------------------------------------------------------------------------------

*** tstop() called on MacBook-Pro-158.attlocal.net at Sat Sep 23 21:29:50 2023
Module time:
	user time   =       0.09 seconds =       0.00 minutes
	system time =       0.01 seconds =       0.00 minutes
	total time  =          0 seconds =       0.00 minutes
Total time:
	user time   =       0.96 seconds =       0.02 minutes
	system time =       1.77 seconds =       0.03 minutes
	total time  =          0 seconds =       0.00 minutes

  Read options for space GAS1
  Read options for space GAS2
  Read options for space GAS1
  Read options for space GAS2

  ==> MO Space Information <==

  -------------------------------------------------------------------------
                       Ag   B1g   B2g   B3g    Au   B1u   B2u   B3u   Sum
  -------------------------------------------------------------------------
    FROZEN_DOCC         0     0     0     0     0     0     0     0     0
    RESTRICTED_DOCC     0     0     0     0     0     0     0     0     0
    GAS1                6     0     2     2     0     6     0     0    16
    GAS2                0     0     0     0     0     0     2     2     4
    GAS3                0     0     0     0     0     0     0     0     0
    GAS4                0     0     0     0     0     0     0     0     0
    GAS5                0     0     0     0     0     0     0     0     0
    GAS6                0     0     0     0     0     0     0     0     0
    RESTRICTED_UOCC     0     0     0     0     0     0     0     0     0
    FROZEN_UOCC         0     0     0     0     0     0     0     0     0
    Total               6     0     2     2     0     6     2     2    20
  -------------------------------------------------------------------------   => Loading Basis Set <=

    Name: STO-3G
    Role: ORBITAL
    Keyword: MINAO_BASIS
    atoms 1-2 entry LI         line    31 file /Users/fevange/Source/psi4/objdir-Release/stage/share/psi4/basis/sto-3g.gbs 


  Forte will use psi4 integrals

  ==> Primary Basis Set Summary <==

  Basis Set: DZ
    Blend: DZ
    Number of shells: 12
    Number of basis functions: 20
    Number of Cartesian functions: 20
    Spherical Harmonics?: false
    Max angular momentum: 1


  JK created using conventional PK integrals
  Using in-core PK algorithm.
   Calculation information:
      Number of atoms:                   2
      Number of AO shells:              12
      Number of primitives:             26
      Number of atomic orbitals:        20
      Number of basis functions:        20

      Integral cutoff                 1.00e-12
      Number of threads:                 2

  Performing in-core PK
  Using 44310 doubles for integral storage.
  We computed 3412 shell quartets total.
  Whereas there are 3081 unique shell quartets.
    10.74 percent of shell quartets recomputed by reordering.

  ==> DiskJK: Disk-Based J/K Matrices <==

    J tasked:                  Yes
    K tasked:                  Yes
    wK tasked:                  No
    Memory [MiB]:              400
    Schwarz Cutoff:          1E-12

    OpenMP threads:              2



  ==> Integral Transformation <==

  Number of molecular orbitals:                         20
  Number of correlated molecular orbitals:              20
  Number of frozen occupied orbitals:                    0
  Number of frozen unoccupied orbitals:                  0
  Two-electron integral type:                 Conventional


  Computing Conventional Integrals	Presorting SO-basis two-electron integrals.
	Sorting File: SO Ints (nn|nn) nbuckets = 1
	Constructing frozen core operators
	Starting first half-transformation.
	Sorting half-transformed integrals.
	First half integral transformation complete.
	Starting second half-transformation.
	Two-electron integral transformation complete.

  Integral transformation done. 0.00609633 s
  Reading the two-electron integrals from disk
  Size of two-electron integrals:   0.003576 GB
  Timing for conventional integral transformation:            0.018 s.
  Timing for freezing core and virtual orbitals:              0.000 s.
  Timing for computing conventional integrals:                0.018 s.

  ==> Summary of Active Space Solver Input <==

    Irrep.  Multi.(2ms)      N
    --------------------------
       Ag      1  (  0)      1
    --------------------------
    N: number of roots
    ms: spin z component
    Total number of roots:   1
    --------------------------


--------------------------------------------------------------------------------
               Selected Configuration Interaction Excited States
  written by Jeffrey B. Schriber, Tianyuan Zhang, and Francesco A. Evangelista
--------------------------------------------------------------------------------

  ==> Calculation Information <==

  -----------------------------------------------------------------
    Multiplicity                             1    
    Symmetry                                 0    
    Number of roots                          1    
    Ms                                       0
    Excited Algorithm                        NONE
  -----------------------------------------------------------------
  Using 2 thread(s)
  Computing wavefunction for root 0

        ---------------------------------------------------------------
                      Adaptive Configuration Interaction
          written by Jeffrey B. Schriber and Francesco A. Evangelista
        ---------------------------------------------------------------

  ==> Reference Information <==

  There are 0 frozen orbitals.
  There are 20 active orbitals.

  ==> Calculation Information <==

  -----------------------------------------------------------------
    Multiplicity                             1    
    Symmetry                                 0    
    Number of roots                          1    
    Root used for properties                 0    
    Roots used for averaging                 1    
    Root averaging offset                    0    
    Sigma (Eh)                               1.00e-03
    Gamma (Eh^(-1))                          1.00e+00
    Convergence threshold                    1.00e-09
    Ms                                       0
    Diagonalization algorithm                SPARSE
    Excited Algorithm                        NONE
    Project out spin contaminants            True
    Enforce spin completeness of basis       False
    Enforce complete aimed selection         True
    Multiroot averaging                      Average
  -----------------------------------------------------------------
  Number of active orbitals: 20
  Number of active alpha electrons: 3
  Number of active beta electrons: 3

  ==> GAS Orbital Energies from SCF <==

    GAS        Energy  Index
    ------------------------
     1    -2.47094788      0
     1    -0.19438007      1
     1     0.04907488      2
     1     0.13008622      3
     1     0.17176448      4
     1     1.69553943      5
     1     0.06956279      6
     1     0.24277653      7
     1     0.06956279      8
     1     0.24277653      9
     1    -2.46581508     10
     1     0.01272077     11
     1     0.08042042     12
     1     0.24600374     13
     1     0.48048586     14
     1     1.80180167     15
     2     0.02603430     16
     2     0.13774056     17
     2     0.02603430     18
     2     0.13774056     19
    ------------------------

  ==> Number of Electrons in GAS <==

    GAS  MAX  MIN
    -------------
      1    6    4
      2    2    0
    -------------

  ==> Possible Electron Occupations in GAS <==

    Config.  1_A  1_B  2_A  2_B
    ---------------------------
         1     3    3    0    0
         2     3    2    0    1
         3     3    1    0    2
         4     2    3    1    0
         5     2    2    1    1
         6     1    3    2    0
    ---------------------------
    n_A/B: # of alpha/beta electrons in GASn

  ==> Building GAS Determinants <==

    Reference determinant: |22000000002000000000>


  ---------------------------------- Cycle 0 -----------------------------------

  ==> Diagonalizing the Hamiltonian in the P space <==

  Initial P space dimension: 1
  Not checking for spin-completeness.

  ==> Computing 1 Coupling Lists <==

  (N-1) a lists size counts
      Size      Count
         1          3
        α          2.342e-05 seconds
        β          8.458e-06 seconds

  ==> Computing 2 Coupling Lists <==

  (N-2) aa lists size counts
      Size      Count
         1          3
        αα         2.004e-05 seconds
  (N-2) ab lists size counts
      Size      Count
         1          9
        αβ         2.750e-05 seconds
        ββ         7.625e-06 seconds

  Davidson-Liu solver algorithm using SigmaVectorSparseList sigma algorithm

  Performing full diagonalization of the H matrix
  Found 1 roots with 2S+1 = 1 *
  Time spent diagonalizing H:   0.000197 s

    P-space  CI Energy Root   0        = -14.839846512011 Eh =   0.0000 eV, S^2 = 0.000000


  ==> Finding the Q space <==

  Using SR screening algorithm
  Time spent forming F space:             0.000328
  Time spent merging thread F spaces:             0.000161
  Size of F space: 685
  Time spent building sorting list: 0.000113
  Added 1 missing determinants in aimed selection (find_q_space).
  Dimension of the PQ space:                  126
  Time spent building the model space: 0.000780

  ==> Diagonalizing the Hamiltonian in the P + Q space <==

  Number of reference roots: 1

  ==> Computing 1 Coupling Lists <==

  (N-1) a lists size counts
      Size      Count
         1        273
         2         21
         3          7
         4          3
         5          6
        α          6.403e-04 seconds
        β          5.622e-04 seconds

  ==> Computing 2 Coupling Lists <==

  (N-2) aa lists size counts
      Size      Count
         1        138
         2         38
         3         12
         4         13
         5          4
         6          4
         8          4
        αα         5.610e-04 seconds
  (N-2) ab lists size counts
      Size      Count
         1        394
         2        133
         3         26
         4         24
         5         10
         6         10
         7          2
         8          8
        15          2
        16          2
        50          1
        αβ         1.576e-03 seconds
        ββ         5.040e-04 seconds

  Davidson-Liu solver algorithm using SigmaVectorSparseList sigma algorithm

  Performing full diagonalization of the H matrix
  Spin multiplicity of root 118 not close to integer (4.1231) 
  Spin multiplicity of root 119 not close to integer (4.1231) 
  Spin multiplicity of root 120 not close to integer (4.1231) 
  Spin multiplicity of root 121 not close to integer (4.1231) 
  Spin multiplicity of root 122 not close to integer (4.1231) 
  Spin multiplicity of root 123 not close to integer (4.1231) 
  Spin multiplicity of root 124 not close to integer (4.1231) 
  Spin multiplicity of root 125 not close to integer (4.1231) 
  Seeking 1 roots with <S^2> = 0.000000
     Root           Energy         <S^2>
    -------------------------------------
       0       -14.887247841389  0.000041
       1       -14.711049223746  0.000008
       2       -14.692629897152  0.000006
       3       -14.680248848912  0.000010
       4       -14.613109600491  2.000000
       5       -14.608025873251  2.000000
       6       -14.601753436285  0.000005
       7       -14.587208996430  2.000000
       8       -14.586454419951  0.000055
       9       -14.572868949985  0.000001
    -------------------------------------

    2S + 1   Roots
    --------------
       1      53
       2       7
       3      65
       4       1
    --------------
  Largest deviation from target S value: 0.000041

  Total time spent diagonalizing H:   0.012183 s

    PQ-space CI Energy Root   0        = -14.887247841389 Eh =   0.0000 eV, S^2 = 0.000041
    PQ-space CI Energy + EPT2 Root   0 = -14.888239879644 Eh =   0.0000 eV


  ==> GAS Contribution Analysis <==

  Root 0:
    Config.  1_A  1_B  2_A  2_B  Contribution
    -----------------------------------------
         1     3    3    0    0  91.29510499%
         2     3    2    0    1   0.00072464%
         3     3    1    0    2   0.00000000%
         4     2    3    1    0   0.00072464%
         5     2    2    1    1   8.70344574%
         6     1    3    2    0   0.00000000%
    -----------------------------------------
               GAS1      GAS2    Contribution
    -----------------------------------------
                  4         2     8.70344574%
                  5         1     0.00144927%
                  6         0    91.29510499%
    -----------------------------------------

  ==> Pruning the Q space <==

  Cycle 0 took: 0.015408 s


  ---------------------------------- Cycle 1 -----------------------------------

  ==> Diagonalizing the Hamiltonian in the P space <==

  Initial P space dimension: 38
  Not checking for spin-completeness.

  ==> Computing 1 Coupling Lists <==

  (N-1) a lists size counts
      Size      Count
         1         85
         2          6
         3          3
         4          2
        α          2.112e-04 seconds
        β          1.778e-04 seconds

  ==> Computing 2 Coupling Lists <==

  (N-2) aa lists size counts
      Size      Count
         1         48
         2         16
         3          6
         4          4
        αα         2.198e-04 seconds
  (N-2) ab lists size counts
      Size      Count
         1        160
         2         36
         3         16
         4          8
        30          1
        αβ         5.305e-04 seconds
        ββ         1.633e-04 seconds

  Davidson-Liu solver algorithm using SigmaVectorSparseList sigma algorithm

  Performing full diagonalization of the H matrix
  Spin multiplicity of root 37 not close to integer (4.1231) 
  Seeking 1 roots with <S^2> = 0.000000
     Root           Energy         <S^2>
    -------------------------------------
       0       -14.883654851185  0.000000
       1       -14.704127027263  0.000000
       2       -14.692302421473  0.000000
       3       -14.669441253973  0.000000
       4       -14.611834781218  2.000000
       5       -14.606664346568  2.000000
       6       -14.593871338200  0.000000
       7       -14.586429399715  2.000000
       8       -14.580269025005  0.000000
       9       -14.570354244005  0.000000
    -------------------------------------

    2S + 1   Roots
    --------------
       1      24
       3      14
    --------------
  Largest deviation from target S value: 0.000000

  Time spent diagonalizing H:   0.002652 s

    P-space  CI Energy Root   0        = -14.883654851185 Eh =   0.0000 eV, S^2 = 0.000000


  ==> Finding the Q space <==

  Using SR screening algorithm
  Time spent forming F space:             0.005397
  Time spent merging thread F spaces:             0.002589
  Size of F space: 11189
  Time spent building sorting list: 0.001728
  Dimension of the PQ space:                  268
  Time spent building the model space: 0.012041

  ==> Diagonalizing the Hamiltonian in the P + Q space <==

  Number of reference roots: 1

  ==> Computing 1 Coupling Lists <==

  (N-1) a lists size counts
      Size      Count
         1        514
         2         87
         3          8
         4          5
         5         12
         6          2
        α          1.292e-03 seconds
        β          1.154e-03 seconds

  ==> Computing 2 Coupling Lists <==

  (N-2) aa lists size counts
      Size      Count
         1        178
         2        160
         3         13
         4          6
         5         15
         6          7
         7          8
         8          4
         9          2
        10          2
        αα         1.136e-03 seconds
  (N-2) ab lists size counts
      Size      Count
         1        379
         2        437
         3         74
         4         23
         5         30
         6         16
         7          8
         8         16
        10         10
        11          5
        12          1
        13          1
        14          1
        17          2
        19          2
        23          3
        24          1
        56          1
        αβ         2.990e-03 seconds
        ββ         1.006e-03 seconds

  Davidson-Liu solver algorithm using SigmaVectorSparseList sigma algorithm

 num_guess_states = 2

 num_guess_dets = 50
  ndets_per_guess_ = 25
  ndets = 268
  Initial guess determinants:         50

  Spin-adaptation of the initial guess based on minimum spin-complete subset
  Guess determinants after screening: 50

  Initial guess solutions
  ========================
  Number   2S+1   Selected
  ------------------------
    31       1       *
    19       3        
  ========================
  Adding guess 0        2S+1 = 1    E = -17.254023
  Adding guess 1        2S+1 = 1    E = -17.135131
  Projecting out guess  2S+1 = 3    E = -17.156248

  Projecting out 1 solutions

  ==> Diagonalizing Hamiltonian <==

  Energy   convergence: 1.00e-10
  Residual convergence: 1.00e-01
  -----------------------------------------------------
    Iter.      Avg. Energy       Delta_E     Res. Norm
  -----------------------------------------------------
      1      -17.254023092208  -1.725e+01  +3.342e-01
      2      -17.270349688588  -1.633e-02  +2.097e-02
      3      -17.270446373991  -9.669e-05  +3.802e-03
      4      -17.270450995445  -4.621e-06  +3.993e-04
      5      -17.270450995445  +0.000e+00  +3.993e-04
  -----------------------------------------------------
  The Davidson-Liu algorithm converged in 6 iterations.
  Davidson-Liu procedure took  0.008372 s
  Total time spent diagonalizing H:   0.016879 s

    PQ-space CI Energy Root   0        = -14.889153547430 Eh =   0.0000 eV, S^2 = 0.000084
    PQ-space CI Energy + EPT2 Root   0 = -14.890152622913 Eh =   0.0000 eV


  ==> GAS Contribution Analysis <==

  Root 0:
    Config.  1_A  1_B  2_A  2_B  Contribution
    -----------------------------------------
         1     3    3    0    0  90.26587180%
         2     3    2    0    1   0.00075730%
         3     3    1    0    2   0.00000000%
         4     2    3    1    0   0.00075730%
         5     2    2    1    1   9.73261361%
         6     1    3    2    0   0.00000000%
    -----------------------------------------
               GAS1      GAS2    Contribution
    -----------------------------------------
                  4         2     9.73261361%
                  5         1     0.00151460%
                  6         0    90.26587180%
    -----------------------------------------

  ==> Pruning the Q space <==

  Added 1 missing determinants in aimed selection (prune_q_space).
  Cycle 1 took: 0.036235 s


  ---------------------------------- Cycle 2 -----------------------------------

  ==> Diagonalizing the Hamiltonian in the P space <==

  Initial P space dimension: 48
  Not checking for spin-completeness.

  ==> Computing 1 Coupling Lists <==

  (N-1) a lists size counts
      Size      Count
         1        104
         2          4
         4          8
        α          2.507e-04 seconds
        β          2.149e-04 seconds

  ==> Computing 2 Coupling Lists <==

  (N-2) aa lists size counts
      Size      Count
         1         56
         2         12
         4         16
        αα         2.242e-04 seconds
  (N-2) ab lists size counts
      Size      Count
         1        196
         2         28
         3          4
         4         32
        40          1
        αβ         6.453e-04 seconds
        ββ         1.970e-04 seconds

  Davidson-Liu solver algorithm using SigmaVectorSparseList sigma algorithm

  Performing full diagonalization of the H matrix
  Spin multiplicity of root 47 not close to integer (4.1231) 
  Seeking 1 roots with <S^2> = 0.000000
     Root           Energy         <S^2>
    -------------------------------------
       0       -14.884019633131  0.000000
       1       -14.774825784191  2.000000
       2       -14.753691793374  0.000000
       3       -14.704127027263  0.000000
       4       -14.699413182636  2.000000
       5       -14.698937765563  0.000000
       6       -14.681955682560  0.000000
       7       -14.669804311551  2.000000
       8       -14.662399205985  0.000000
       9       -14.643824742840  0.000000
    -------------------------------------

    2S + 1   Roots
    --------------
       1      30
       3      18
    --------------
  Largest deviation from target S value: 0.000000

  Time spent diagonalizing H:   0.003598 s

    P-space  CI Energy Root   0        = -14.884019633131 Eh =   0.0000 eV, S^2 = 0.000000


  ==> Finding the Q space <==

  Using SR screening algorithm
  Time spent forming F space:             0.006572
  Time spent merging thread F spaces:             0.002921
  Size of F space: 12211
  Time spent building sorting list: 0.001895
  Added 1 missing determinants in aimed selection (find_q_space).
  Dimension of the PQ space:                  272
  Time spent building the model space: 0.013846

  ==> Diagonalizing the Hamiltonian in the P + Q space <==

  Number of reference roots: 1

  ==> Computing 1 Coupling Lists <==

  (N-1) a lists size counts
      Size      Count
         1        518
         2         92
         3          7
         4          4
         5         13
         6          2
        α          1.311e-03 seconds
        β          1.165e-03 seconds

  ==> Computing 2 Coupling Lists <==

  (N-2) aa lists size counts
      Size      Count
         1        172
         2        167
         3         17
         4          6
         5         13
         6          6
         7          8
         8          5
         9          2
        10          2
        αα         1.130e-03 seconds
  (N-2) ab lists size counts
      Size      Count
         1        381
         2        449
         3         64
         4         33
         5         26
         6         18
         7          8
         8         14
         9          2
        10          8
        11          7
        12          1
        13          1
        14          1
        18          2
        21          2
        22          2
        23          1
        24          1
        56          1
        αβ         3.030e-03 seconds
        ββ         1.024e-03 seconds

  Davidson-Liu solver algorithm using SigmaVectorSparseList sigma algorithm

 num_guess_states = 2

 num_guess_dets = 50
  ndets_per_guess_ = 25
  ndets = 272
  Initial guess determinants:         50

  Spin-adaptation of the initial guess based on minimum spin-complete subset
  Guess determinants after screening: 50

  Initial guess solutions
  ========================
  Number   2S+1   Selected
  ------------------------
    31       1       *
    19       3        
  ========================
  Adding guess 0        2S+1 = 1    E = -17.254023
  Adding guess 1        2S+1 = 1    E = -17.135131
  Projecting out guess  2S+1 = 3    E = -17.156248

  Projecting out 1 solutions

  ==> Diagonalizing Hamiltonian <==

  Energy   convergence: 1.00e-10
  Residual convergence: 1.00e-01
  -----------------------------------------------------
    Iter.      Avg. Energy       Delta_E     Res. Norm
  -----------------------------------------------------
      1      -17.254023092208  -1.725e+01  +3.342e-01
      2      -17.270363303002  -1.634e-02  +2.094e-02
      3      -17.270459725674  -9.642e-05  +3.836e-03
      4      -17.270464392321  -4.667e-06  +4.042e-04
      5      -17.270464392321  +0.000e+00  +4.042e-04
  -----------------------------------------------------
  The Davidson-Liu algorithm converged in 6 iterations.
  Davidson-Liu procedure took  0.008293 s
  Total time spent diagonalizing H:   0.016931 s

    PQ-space CI Energy Root   0        = -14.889166944306 Eh =   0.0000 eV, S^2 = 0.000098
    PQ-space CI Energy + EPT2 Root   0 = -14.890163810516 Eh =   0.0000 eV


  ==> GAS Contribution Analysis <==

  Root 0:
    Config.  1_A  1_B  2_A  2_B  Contribution
    -----------------------------------------
         1     3    3    0    0  90.27235752%
         2     3    2    0    1   0.00075754%
         3     3    1    0    2   0.00000000%
         4     2    3    1    0   0.00075754%
         5     2    2    1    1   9.72612740%
         6     1    3    2    0   0.00000000%
    -----------------------------------------
               GAS1      GAS2    Contribution
    -----------------------------------------
                  4         2     9.72612740%
                  5         1     0.00151509%
                  6         0    90.27235752%
    -----------------------------------------

  ==> Pruning the Q space <==

  Added 1 missing determinants in aimed selection (prune_q_space).
  Cycle 2 took: 0.039012 s


  ---------------------------------- Cycle 3 -----------------------------------

  ==> Diagonalizing the Hamiltonian in the P space <==

  Initial P space dimension: 48
  Not checking for spin-completeness.

  ==> Computing 1 Coupling Lists <==

  (N-1) a lists size counts
      Size      Count
         1        104
         2          4
         4          8
        α          2.445e-04 seconds
        β          2.097e-04 seconds

  ==> Computing 2 Coupling Lists <==

  (N-2) aa lists size counts
      Size      Count
         1         56
         2         12
         4         16
        αα         2.165e-04 seconds
  (N-2) ab lists size counts
      Size      Count
         1        196
         2         28
         3          4
         4         32
        40          1
        αβ         6.443e-04 seconds
        ββ         1.892e-04 seconds

  Davidson-Liu solver algorithm using SigmaVectorSparseList sigma algorithm

  Performing full diagonalization of the H matrix
  Spin multiplicity of root 47 not close to integer (4.1231) 
  Seeking 1 roots with <S^2> = 0.000000
     Root           Energy         <S^2>
    -------------------------------------
       0       -14.884019633131  0.000000
       1       -14.774825784191  2.000000
       2       -14.753691793374  0.000000
       3       -14.704127027263  0.000000
       4       -14.699413182636  2.000000
       5       -14.698937765563  0.000000
       6       -14.681955682560  0.000000
       7       -14.669804311551  2.000000
       8       -14.662399205985  0.000000
       9       -14.643824742840  0.000000
    -------------------------------------

    2S + 1   Roots
    --------------
       1      30
       3      18
    --------------
  Largest deviation from target S value: 0.000000

  Time spent diagonalizing H:   0.003496 s

    P-space  CI Energy Root   0        = -14.884019633131 Eh =   0.0000 eV, S^2 = 0.000000


  ==> Finding the Q space <==

  Using SR screening algorithm
  Time spent forming F space:             0.006358
  Time spent merging thread F spaces:             0.002791
  Size of F space: 12211
  Time spent building sorting list: 0.001824
  Added 1 missing determinants in aimed selection (find_q_space).
  Dimension of the PQ space:                  272
  Time spent building the model space: 0.013313

  ==> Diagonalizing the Hamiltonian in the P + Q space <==

  Number of reference roots: 1

  ==> Computing 1 Coupling Lists <==

  (N-1) a lists size counts
      Size      Count
         1        518
         2         92
         3          7
         4          4
         5         13
         6          2
        α          1.265e-03 seconds
        β          1.128e-03 seconds

  ==> Computing 2 Coupling Lists <==

  (N-2) aa lists size counts
      Size      Count
         1        172
         2        167
         3         17
         4          6
         5         13
         6          6
         7          8
         8          5
         9          2
        10          2
        αα         1.127e-03 seconds
  (N-2) ab lists size counts
      Size      Count
         1        381
         2        449
         3         64
         4         33
         5         26
         6         18
         7          8
         8         14
         9          2
        10          8
        11          7
        12          1
        13          1
        14          1
        18          2
        21          2
        22          2
        23          1
        24          1
        56          1
        αβ         2.893e-03 seconds
        ββ         9.918e-04 seconds

  Davidson-Liu solver algorithm using SigmaVectorSparseList sigma algorithm

 num_guess_states = 2

 num_guess_dets = 50
  ndets_per_guess_ = 25
  ndets = 272
  Initial guess determinants:         50

  Spin-adaptation of the initial guess based on minimum spin-complete subset
  Guess determinants after screening: 50

  Initial guess solutions
  ========================
  Number   2S+1   Selected
  ------------------------
    31       1       *
    19       3        
  ========================
  Adding guess 0        2S+1 = 1    E = -17.254023
  Adding guess 1        2S+1 = 1    E = -17.135131
  Projecting out guess  2S+1 = 3    E = -17.156248

  Projecting out 1 solutions

  ==> Diagonalizing Hamiltonian <==

  Energy   convergence: 1.00e-10
  Residual convergence: 1.00e-01
  -----------------------------------------------------
    Iter.      Avg. Energy       Delta_E     Res. Norm
  -----------------------------------------------------
      1      -17.254023092208  -1.725e+01  +3.342e-01
      2      -17.270363303002  -1.634e-02  +2.094e-02
      3      -17.270459725674  -9.642e-05  +3.836e-03
      4      -17.270464392321  -4.667e-06  +4.042e-04
      5      -17.270464392321  +0.000e+00  +4.042e-04
  -----------------------------------------------------
  The Davidson-Liu algorithm converged in 6 iterations.
  Davidson-Liu procedure took  0.008129 s
  Total time spent diagonalizing H:   0.016440 s

    PQ-space CI Energy Root   0        = -14.889166944306 Eh =   0.0000 eV, S^2 = 0.000098
    PQ-space CI Energy + EPT2 Root   0 = -14.890163810516 Eh =   0.0000 eV


  ==> GAS Contribution Analysis <==

  Root 0:
    Config.  1_A  1_B  2_A  2_B  Contribution
    -----------------------------------------
         1     3    3    0    0  90.27235752%
         2     3    2    0    1   0.00075754%
         3     3    1    0    2   0.00000000%
         4     2    3    1    0   0.00075754%
         5     2    2    1    1   9.72612740%
         6     1    3    2    0   0.00000000%
    -----------------------------------------
               GAS1      GAS2    Contribution
    -----------------------------------------
                  4         2     9.72612740%
                  5         1     0.00151509%
                  6         0    90.27235752%
    -----------------------------------------
  ***** Calculation Converged *****

  ==> ACI Natural Orbitals <==

  (N-1) a lists size counts
      Size      Count
         1        518
         2         92
         3          7
         4          4
         5         13
         6          2
        1Ag     1.997677      1B1u    1.997660      2Ag     1.770717  
        1B3u    0.097252      1B2u    0.097252      3Ag     0.018308  
        2B1u    0.016493      3B1u    0.002183      4Ag     0.002178  
        5Ag     0.000084      4B1u    0.000065      6Ag     0.000026  
        5B1u    0.000024      1B3g    0.000023      1B2g    0.000023  
        2B2u    0.000017      2B3u    0.000017      6B1u    0.000002  
        2B3g    0.000000      2B2g    0.000000  

  ==> Excited state solver summary <==

  Iterations required:                         3
  Dimension of optimized determinant space:    272

  * Selected-CI Energy Root   0        = -14.889166944306 Eh =   0.0000 eV
  * Selected-CI Energy Root   0 + EPT2 = -14.890163810516 Eh =   0.0000 eV

  ==> Wavefunction Information <==

  Most important contributions to root   0:
    0   0.939519 0.882695916          46 |22000000002000000000>
    1  -0.149833 0.022450019          45 |20000000002000002000>
    2  -0.149833 0.022450019          44 |20000000002000000020>
    3  -0.102299 0.010465171          43 |200000000020000000+->
    4  -0.102299 0.010465171          42 |200000000020000000-+>
    5  -0.102299 0.010465171          41 |2000000000200000-+00>
    6  -0.102299 0.010465171          40 |2000000000200000+-00>
    7  -0.071788 0.005153568          39 |20000000002000000002>
    8  -0.071788 0.005153568          38 |20000000002000000200>
    9  -0.056306 0.003170396          37 |20020000002000000000>

  Saving information for root: 0

  ==> Energy Summary <==

    Multi.(2ms)  Irrep.  No.               Energy      <S^2>
    --------------------------------------------------------
       1  (  0)    Ag     0      -14.889166944306   0.000098
    --------------------------------------------------------

  ==> Dipole Moments [e a0] (Nuclear + Electronic) for Singlet (Ms = 0) Ag <==


  ==> Computing 1 Coupling Lists <==

  (N-1) a lists size counts
      Size      Count
        α          4.458e-06 seconds
        β          7.920e-07 seconds

  ==> Computing 2 Coupling Lists <==

  (N-2) aa lists size counts
      Size      Count
        αα         4.333e-06 seconds
  (N-2) ab lists size counts
      Size      Count
        αβ         4.250e-06 seconds
        ββ         7.500e-07 seconds
  (N-1) a lists size counts
      Size      Count
         1        518
         2         92
         3          7
         4          4
         5         13
         6          2
  1-RDM  took 0.003980 s (determinant)
       State           DM_X           DM_Y           DM_Z           |DM|
    --------------------------------------------------------------------
         0AG     0.00000000     0.00000000    -0.00000000     0.00000000
    --------------------------------------------------------------------
     Nuclear     0.00000000     0.00000000     0.00000000     0.00000000
    --------------------------------------------------------------------

  ==> Quadrupole Moments [e a0^2] (Nuclear + Electronic) for Singlet (Ms = 0) Ag <==


  ==> Computing 1 Coupling Lists <==

  (N-1) a lists size counts
      Size      Count
        α          4.500e-06 seconds
        β          7.920e-07 seconds

  ==> Computing 2 Coupling Lists <==

  (N-2) aa lists size counts
      Size      Count
        αα         4.375e-06 seconds
  (N-2) ab lists size counts
      Size      Count
        αβ         4.250e-06 seconds
        ββ         8.330e-07 seconds
  (N-1) a lists size counts
      Size      Count
         1        518
         2         92
         3          7
         4          4
         5         13
         6          2
  1-RDM  took 0.003887 s (determinant)
       State          QM_XX          QM_XY          QM_XZ          QM_YY          QM_YZ          QM_ZZ
    --------------------------------------------------------------------------------------------------
         0AG   -11.84873357     0.00000000     0.00000000   -11.84873357     0.00000000    -4.47327562
    --------------------------------------------------------------------------------------------------
     Nuclear     0.00000000     0.00000000     0.00000000     0.00000000     0.00000000    21.42638898
    --------------------------------------------------------------------------------------------------

  Time to prepare integrals:        0.029 seconds
  Time to run job          :        0.152 seconds
  Total                    :        0.181 seconds
    ACI energy............................................................................PASSED
    ACI+PT2 energy........................................................................PASSED

    Psi4 stopped on: Saturday, 23 September 2023 09:29PM
    Psi4 wall time for execution: 0:00:00.65

*** Psi4 exiting successfully. Buy a developer a beer!
