
    -----------------------------------------------------------------------
          Psi4: An Open-Source Ab Initio Electronic Structure Package
                               Psi4 1.4a2.dev1024 

                         Git: Rev {master} b603cfc dirty


    D. G. A. Smith, L. A. Burns, A. C. Simmonett, R. M. Parrish,
    M. C. Schieber, R. Galvelis, P. Kraus, H. Kruse, R. Di Remigio,
    A. Alenaizan, A. M. James, S. Lehtola, J. P. Misiewicz, M. Scheurer,
    R. A. Shaw, J. B. Schriber, Y. Xie, Z. L. Glick, D. A. Sirianni,
    J. S. O'Brien, J. M. Waldrop, A. Kumar, E. G. Hohenstein,
    B. P. Pritchard, B. R. Brooks, H. F. Schaefer III, A. Yu. Sokolov,
    K. Patkowski, A. E. DePrince III, U. Bozkaya, R. A. King,
    F. A. Evangelista, J. M. Turney, T. D. Crawford, C. D. Sherrill,
    J. Chem. Phys. 152(18) 184108 (2020). https://doi.org/10.1063/5.0006002

                            Additional Code Authors
    E. T. Seidl, C. L. Janssen, E. F. Valeev, M. L. Leininger,
    J. F. Gonthier, R. M. Richard, H. R. McAlexander, M. Saitow, X. Wang,
    P. Verma, and M. H. Lechner

             Previous Authors, Complete List of Code Contributors,
                       and Citations for Specific Modules
    https://github.com/psi4/psi4/blob/master/codemeta.json
    https://github.com/psi4/psi4/graphs/contributors
    http://psicode.org/psi4manual/master/introduction.html#citing-psifour

    -----------------------------------------------------------------------


    Psi4 started on: Tuesday, 27 October 2020 12:56AM

    Process ID: 60163
    Host:       Yorks-Mac.local
    PSIDATADIR: /Users/york/src/psi4new/psi4/share/psi4
    Memory:     500.0 MiB
    Threads:    1
    
  ==> Input File <==

--------------------------------------------------------------------------
#! Generated using commit GITCOMMIT 
# SA-GASSCF-MRPT2 for CORE EXCITED states with core orbital frozen
# Without CASSCF_FROZEN_ORBITAL this will collapse to ground state and not converge

import forte

refscf = -76.0172965561
refgasscf = -65.866749078651708
refdsrg = -66.085753612282389

memory 1000 mb
molecule h2o{
   O
   H  1 1.00
   H  1 1.00 2 103.1
}

set global {
  basis 6-31g**
  e_convergence 10
  d_convergence 10
  r_convergence 10
  guess gwh
  scf_type pk
  reference rhf
}

set scf_type direct
set forte {
  active_space_solver aci
  ms 0.0
  multiplicity 1
  sigma 0.00
  root_sym 0
  charge 0
  sci_enforce_spin_complete true
  spin_project_full true
  e_convergence 6
  charge 0
  active_ref_type gas
  GAS1 [1,0,0,0]
  GAS2 [3,0,1,2]
  GAS1MAX [2,1]
  GAS1MIN [0,0]
  AVG_STATE [[0,1,1],[2,1,1]]
  job_type casscf
  casscf_ci_solver aci
  casscf_maxiter 100
  casscf_e_convergence 1e-10
  casscf_active_frozen_orbital [0]
  casscf_diis_start 15
  casscf_semicanonicalize False
}

escf ,wfn = energy('scf',return_wfn = True)
egasscf,wfn_gasscf = energy('forte',ref_wfn = wfn, return_wfn = True)
compare_values(refgasscf, egasscf ,9, "GASSCF energy") #TEST

set forte {
  active_space_solver aci
  ms 0.0
  multiplicity 1
  sigma 0.00
  root_sym 0
  charge 0
  sci_enforce_spin_complete true
  e_convergence 6
  charge 0
  active_ref_type gas
  GAS1 [1,0,0,0]
  GAS2 [3,0,1,2]
  job_type newdriver
  correlation_solver dsrg-mrpt2
  dsrg_s 1.0
  calc_type sa
}

edsrg = energy('forte', ref_wfn = wfn_gasscf)
compare_values(refdsrg, edsrg, 9, "GASSCF-DSRG-MRPT2 energy") #TEST
--------------------------------------------------------------------------

  Memory set to 953.674 MiB by Python driver.

Scratch directory: /Users/york/scratch/psi4/

*** tstart() called on Yorks-Mac.local
*** at Tue Oct 27 00:56:36 2020

   => Loading Basis Set <=

    Name: 6-31G**
    Role: ORBITAL
    Keyword: BASIS
    atoms 1   entry O          line   149 file /Users/york/src/psi4new/psi4/share/psi4/basis/6-31gss.gbs 
    atoms 2-3 entry H          line    44 file /Users/york/src/psi4new/psi4/share/psi4/basis/6-31gss.gbs 


         ---------------------------------------------------------
                                   SCF
               by Justin Turney, Rob Parrish, Andy Simmonett
                          and Daniel G. A. Smith
                              RHF Reference
                        1 Threads,    953 MiB Core
         ---------------------------------------------------------

  ==> Geometry <==

    Molecular point group: c2v
    Full point group: C2v

    Geometry (in Angstrom), charge = 0, multiplicity = 1:

       Center              X                  Y                   Z               Mass       
    ------------   -----------------  -----------------  -----------------  -----------------
         O            0.000000000000     0.000000000000    -0.069592187400    15.994914619570
         H            0.000000000000    -0.783151105291     0.552239257834     1.007825032230
         H            0.000000000000     0.783151105291     0.552239257834     1.007825032230

  Running in c2v symmetry.

  Rotational constants: A =     24.35462  B =     13.63610  C =      8.74166 [cm^-1]
  Rotational constants: A = 730133.21529  B = 408800.04239  C = 262068.46393 [MHz]
  Nuclear repulsion =    8.804686653247025

  Charge       = 0
  Multiplicity = 1
  Electrons    = 10
  Nalpha       = 5
  Nbeta        = 5

  ==> Algorithm <==

  SCF Algorithm Type is DIRECT.
  DIIS enabled.
  MOM disabled.
  Fractional occupation disabled.
  Guess Type is GWH.
  Energy threshold   = 1.00e-10
  Density threshold  = 1.00e-10
  Integral threshold = 0.00e+00

  ==> Primary Basis <==

  Basis Set: 6-31G**
    Blend: 6-31G**
    Number of shells: 12
    Number of basis function: 25
    Number of Cartesian functions: 25
    Spherical Harmonics?: false
    Max angular momentum: 2

   => Loading Basis Set <=

    Name: (6-31G** AUX)
    Role: JKFIT
    Keyword: DF_BASIS_SCF
    atoms 1   entry O          line   221 file /Users/york/src/psi4new/psi4/share/psi4/basis/cc-pvdz-jkfit.gbs 
    atoms 2-3 entry H          line    51 file /Users/york/src/psi4new/psi4/share/psi4/basis/cc-pvdz-jkfit.gbs 

  Starting with a DF guess...

  ==> Integral Setup <==

  DFHelper Memory: AOs need 0.001 GiB; user supplied 0.698 GiB. Using in-core AOs.

  ==> MemDFJK: Density-Fitted J/K Matrices <==

    J tasked:                   Yes
    K tasked:                   Yes
    wK tasked:                   No
    OpenMP threads:               1
    Memory [MiB]:               715
    Algorithm:                 Core
    Schwarz Cutoff:           1E-12
    Mask sparsity (%):       0.0000
    Fitting Condition:        1E-10

   => Auxiliary Basis Set <=

  Basis Set: (6-31G** AUX)
    Blend: CC-PVDZ-JKFIT
    Number of shells: 42
    Number of basis function: 131
    Number of Cartesian functions: 131
    Spherical Harmonics?: false
    Max angular momentum: 3

  Minimum eigenvalue in the overlap matrix is 2.2571686435E-02.
  Reciprocal condition number of the overlap matrix is 5.1514795888E-03.
    Using symmetric orthogonalization.

  ==> Pre-Iterations <==

  SCF Guess: Generalized Wolfsberg-Helmholtz.

   -------------------------------------------------------
    Irrep   Nso     Nmo     Nalpha   Nbeta   Ndocc  Nsocc
   -------------------------------------------------------
     A1        12      12       3       3       3       0
     A2         2       2       0       0       0       0
     B1         4       4       1       1       1       0
     B2         7       7       1       1       1       0
   -------------------------------------------------------
    Total      25      25       5       5       5       0
   -------------------------------------------------------

  ==> Iterations <==

                           Total Energy        Delta E     RMS |[F,P]|

   @DF-RHF iter   1:   -74.69502194331994   -7.46950e+01   1.19380e-01 DIIS
   @DF-RHF iter   2:   -75.63883488360746   -9.43813e-01   7.21524e-02 DIIS
   @DF-RHF iter   3:   -76.01065330024663   -3.71818e-01   7.66497e-03 DIIS
   @DF-RHF iter   4:   -76.01705150839236   -6.39821e-03   1.07848e-03 DIIS
   @DF-RHF iter   5:   -76.01724771498378   -1.96207e-04   2.45196e-04 DIIS
   @DF-RHF iter   6:   -76.01725930218001   -1.15872e-05   5.17439e-05 DIIS
   @DF-RHF iter   7:   -76.01725996692933   -6.64749e-07   8.86755e-06 DIIS
   @DF-RHF iter   8:   -76.01725998301265   -1.60833e-08   1.68546e-06 DIIS
   @DF-RHF iter   9:   -76.01725998411617   -1.10352e-09   3.99731e-07 DIIS
   @DF-RHF iter  10:   -76.01725998416693   -5.07612e-11   4.32937e-08 DIIS
   @DF-RHF iter  11:   -76.01725998416728   -3.55271e-13   4.33252e-09 DIIS
   @DF-RHF iter  12:   -76.01725998416723    5.68434e-14   4.75419e-10 DIIS
   @DF-RHF iter  13:   -76.01725998416731   -8.52651e-14   4.32046e-11 DIIS

  DF guess converged.

  ==> DirectJK: Integral-Direct J/K Matrices <==

    J tasked:                  Yes
    K tasked:                  Yes
    wK tasked:                  No
    Integrals threads:           1
    Schwarz Cutoff:          1E-12

   @RHF iter  14:   -76.01729654450097   -7.60173e+01   1.19915e-05 DIIS
   @RHF iter  15:   -76.01729655577866   -1.12777e-08   1.64017e-06 DIIS
   @RHF iter  16:   -76.01729655606727   -2.88608e-10   4.89639e-07 DIIS
   @RHF iter  17:   -76.01729655608833   -2.10605e-11   1.68507e-07 DIIS
   @RHF iter  18:   -76.01729655609125   -2.92744e-12   4.58642e-08 DIIS
   @RHF iter  19:   -76.01729655609148   -2.27374e-13   5.21060e-09 DIIS
   @RHF iter  20:   -76.01729655609148    0.00000e+00   7.84812e-10 DIIS
   @RHF iter  21:   -76.01729655609154   -5.68434e-14   1.27029e-10 DIIS
   @RHF iter  22:   -76.01729655609157   -2.84217e-14   2.82298e-11 DIIS
  Energy and wave function converged.


  ==> Post-Iterations <==

    Orbital Energies [Eh]
    ---------------------

    Doubly Occupied:                                                      

       1A1   -20.569000     2A1    -1.320609     1B2    -0.678724  
       3A1    -0.563930     1B1    -0.495004  

    Virtual:                                                              

       4A1     0.202466     2B2     0.292719     3B2     0.981164  
       5A1     1.056318     6A1     1.129179     2B1     1.168639  
       4B2     1.294985     7A1     1.413596     1A2     1.802875  
       8A1     1.806916     3B1     1.918871     9A1     2.513249  
       5B2     2.537822     6B2     2.713577     2A2     2.921065  
       4B1     2.947486    10A1     3.291755    11A1     3.620730  
       7B2     3.874917    12A1     4.077740  

    Final Occupation by Irrep:
             A1    A2    B1    B2 
    DOCC [     3,    0,    1,    1 ]

  @RHF Final Energy:   -76.01729655609157

   => Energetics <=

    Nuclear Repulsion Energy =              8.8046866532470247
    One-Electron Energy =                -122.3894315645718223
    Two-Electron Energy =                  37.5674483552332390
    Total Energy =                        -76.0172965560915657

Computation Completed


Properties will be evaluated at   0.000000,   0.000000,   0.000000 [a0]

Properties computed using the SCF density matrix

  Nuclear Dipole Moment: [e a0]
     X:     0.0000      Y:     0.0000      Z:     1.0351

  Electronic Dipole Moment: [e a0]
     X:     0.0000      Y:     0.0000      Z:    -0.1532

  Dipole Moment: [e a0]
     X:     0.0000      Y:     0.0000      Z:     0.8819     Total:     0.8819

  Dipole Moment: [D]
     X:     0.0000      Y:     0.0000      Z:     2.2414     Total:     2.2414


*** tstop() called on Yorks-Mac.local at Tue Oct 27 00:56:36 2020
Module time:
	user time   =       0.24 seconds =       0.00 minutes
	system time =       0.01 seconds =       0.00 minutes
	total time  =          0 seconds =       0.00 minutes
Total time:
	user time   =       0.24 seconds =       0.00 minutes
	system time =       0.01 seconds =       0.00 minutes
	total time  =          0 seconds =       0.00 minutes

Scratch directory: /Users/york/scratch/psi4/

 Data is an array -> call again
 Data is an array -> call again
  Forte
  ----------------------------------------------------------------------------
  A suite of quantum chemistry methods for strongly correlated electrons

    git branch: gasci-dsrg-semi - git commit: e830fbeb

  Developed by:
    Francesco A. Evangelista, Chenyang Li, Kevin P. Hannon,
    Jeffrey B. Schriber, Tianyuan Zhang, Chenxi Cai,
    Nan He, Nicholas Stair, Shuhe Wang, Renke Huang
  ----------------------------------------------------------------------------

  Size of Determinant class: 128 bits
  Preparing forte objects from a psi4 Wavefunction object   => Loading Basis Set <=

    Name: STO-3G
    Role: ORBITAL
    Keyword: MINAO_BASIS
    atoms 1   entry O          line    81 file /Users/york/src/psi4new/psi4/share/psi4/basis/sto-3g.gbs 
    atoms 2-3 entry H          line    19 file /Users/york/src/psi4new/psi4/share/psi4/basis/sto-3g.gbs 


  Read options for space GAS1
  Read options for space GAS2
  Read options for space GAS1
  Read options for space GAS2

  ==> MO Space Information <==

  -------------------------------------------------
                       A1    A2    B1    B2   Sum
  -------------------------------------------------
    FROZEN_DOCC         0     0     0     0     0
    RESTRICTED_DOCC     0     0     0     0     0
    GAS1                1     0     0     0     1
    GAS2                3     0     1     2     6
    GAS3                0     0     0     0     0
    GAS4                0     0     0     0     0
    GAS5                0     0     0     0     0
    GAS6                0     0     0     0     0
    RESTRICTED_UOCC     8     2     3     5    18
    FROZEN_UOCC         0     0     0     0     0
    Total              12     2     4     7    25
  -------------------------------------------------
  Forte will use psi4 integrals
  JK created using conventional PK integrals
  Using in-core PK algorithm.
   Calculation information:
      Number of atoms:                   3
      Number of AO shells:              12
      Number of primitives:             25
      Number of atomic orbitals:        25
      Number of basis functions:        25

      Integral cutoff                 1.00e-12
      Number of threads:                 1

  Performing in-core PK
  Using 105950 doubles for integral storage.
  We computed 3081 shell quartets total.
  Whereas there are 3081 unique shell quartets.



  ==> Integral Transformation <==

  Number of molecular orbitals:                    25
  Number of correlated molecular orbitals:         25
  Number of frozen occupied orbitals:               0
  Number of frozen unoccupied orbitals:             0
  Two-electron integral type:              Conventional


  Overall Conventional Integrals timings


  Computing Conventional Integrals	Presorting SO-basis two-electron integrals.
	Sorting File: SO Ints (nn|nn) nbuckets = 1
	Constructing frozen core operators
	Starting first half-transformation.
	Sorting half-transformed integrals.
	First half integral transformation complete.
	Starting second half-transformation.
	Two-electron integral transformation complete.

  Integral transformation done. 0.01360903 s
  Reading the two-electron integrals from disk
  Size of two-electron integrals:   0.008731 GB
  Timing for conventional integral transformation:            0.032 s.
  Timing for freezing core and virtual orbitals:              0.000 s.
  Conventional integrals take 0.03228414 s

                -----------------------------------------------
                  Complete Active Space Self Consistent Field
                                 Kevin Hannon
                -----------------------------------------------
  Using in-core PK algorithm.
   Calculation information:
      Number of atoms:                   3
      Number of AO shells:              12
      Number of primitives:             25
      Number of atomic orbitals:        25
      Number of basis functions:        25

      Integral cutoff                 1.00e-12
      Number of threads:                 1

  Performing in-core PK
  Using 105950 doubles for integral storage.
  We computed 3081 shell quartets total.
  Whereas there are 3081 unique shell quartets.


    JK takes 0.01899 s

  ==> CASSCF Iteration <==

  iter    ||g||           Delta_E            E_CASSCF       CONV_TYPE

  Transform Integrals takes 0.00684457 s.

  Performing a CAS with ACI

  ==> Summary of Active Space Solver Input <==

    Irrep.  Multi.(2ms)      N
    --------------------------
       A1      1  (  0)      1
       B1      1  (  0)      1
    --------------------------
    N: number of roots
    ms: spin z component
    Total number of roots:   2
    --------------------------


-------------------------------------------------------------------------------
               Selected Configuration Interaction Excited States
  written by Jeffrey B. Schriber, Tianyuan Zhang and Francesco A. Evangelista
-------------------------------------------------------------------------------

  ==> Reference Information <==

  ==> Calculation Information <==

  -----------------------------------------------------------------
    Multiplicity                             1    
    Symmetry                                 0    
    Number of roots                          1    
    Ms                                       0
    Excited Algorithm                        NONE
  -----------------------------------------------------------------
  Using 1 threads
  Computing wavefunction for root 0

        ---------------------------------------------------------------
                      Adaptive Configuration Interaction
          written by Jeffrey B. Schriber and Francesco A. Evangelista
        ---------------------------------------------------------------

  ==> Reference Information <==

  There are 0 frozen orbitals.
  There are 7 active orbitals.

  ==> Calculation Information <==

  -----------------------------------------------------------------
    Multiplicity                             1    
    Symmetry                                 0    
    Number of roots                          1    
    Root used for properties                 0    
    Sigma (Eh)                               0.00e+00
    Gamma (Eh^(-1))                          1.00e+00
    Convergence threshold                    1.00e-09
    Ms                                       0
    Diagonalization algorithm                SPARSE
    Excited Algorithm                        NONE
    Project out spin contaminants            True
    Enforce spin completeness of basis       True
    Enforce complete aimed selection         True
  -----------------------------------------------------------------
  Number of active alpha electrons: 5
  Number of active beta electrons: 5
  Maximum reference space size: 1000
  The maximum number of electrons in GAS1 is 2
  The minimum number of electrons in GAS1 is 0
  The maximum number of electrons in GAS2 is 10 
  The minimum number of electrons in GAS2 is 0
  
  Possible electron occupations in the GAS 
  GAS1_A  GAS1_B  GAS2_A  GAS2_B  
     1       1       4       4    
     1       0       4       5    
     0       1       5       4    
     0       0       5       5    

  GAS Orbital Energies
  GAS   Energies    Orb 
  1  -20.568999574  0 
  2  -1.320609273  1 
  2  -0.563930450  2 
  2   0.202465902  3 
  2  -0.495003944  4 
  2  -0.678724187  5 
  2   0.292719335  6 

  ---------------------------------- Cycle 0 -----------------------------------


  ==> Diagonalizing the Hamiltonian in the P space <==

  Initial P space dimension: 133
  Spin-complete dimension of the P space: 133 determinants

  ==> Computing Coupling Lists <==
  --------------------------------
        α          0.000245 s
        β          0.000247 s
        αα         0.000376 s
        ββ         0.000376 s
        αβ         0.001007 s
  --------------------------------

  Davidson-Liu solver algorithm using SigmaVectorSparseList sigma algorithm

  Performing diagonalization of the H matrix
  Found 70 roots with 2S+1 = 1 *
  Found 56 roots with 2S+1 = 3
  Found 7 roots with 2S+1 = 5
  Time spent diagonalizing H:   0.005766 s

    P-space  CI Energy Root   0        = -76.029945793736 Eh =   0.0000 eV, S^2 = 0.000000


  ==> Finding the Q space <==

  Using SR screening algorithm
  Time spent forming F space:             0.000768
  Time spent merging thread F spaces:             0.000021
  size of hash: 0
  Time spent building sorting list: 0.000004
  Size of F space: 0
  Time spent building the model space: 0.000851
  Spin-complete dimension of the PQ space: 133

  ==> Diagonalizing the Hamiltonian in the P + Q space <==

  Number of reference roots: 1

  ==> Computing Coupling Lists <==
  --------------------------------
        α          0.000246 s
        β          0.000240 s
        αα         0.000373 s
        ββ         0.000369 s
        αβ         0.000989 s
  --------------------------------

  Davidson-Liu solver algorithm using SigmaVectorSparseList sigma algorithm

  Performing diagonalization of the H matrix
  Found 70 roots with 2S+1 = 1 *
  Found 56 roots with 2S+1 = 3
  Found 7 roots with 2S+1 = 5
  Total time spent diagonalizing H:   0.005442 s

    PQ-space CI Energy Root   0        = -76.029945793736 Eh =   0.0000 eV, S^2 = 0.000000
    PQ-space CI Energy + EPT2 Root   0 = -76.029945793736 Eh =   0.0000 eV

  
  GAS Contribution Analysis  
  GAS contributions root 0: 
  GAS1_A    GASI_B    GAS2_A    GAS2_B        Cont  
     1         1         4         4        0.999999549  
     1         0         4         5        0.000000181  
     0         1         5         4        0.000000181  
     0         0         5         5        0.000000090  

           0                  10            0.000000090  
           1                  9            0.000000362  
           2                  8            0.999999549  


  ==> Pruning the Q space <==

  Cycle 0 took: 0.013012 s

  ---------------------------------- Cycle 1 -----------------------------------


  ==> Diagonalizing the Hamiltonian in the P space <==

  Initial P space dimension: 133
  Spin-complete dimension of the P space: 133 determinants

  ==> Computing Coupling Lists <==
  --------------------------------
        α          0.000247 s
        β          0.000243 s
        αα         0.000371 s
        ββ         0.000371 s
        αβ         0.000999 s
  --------------------------------

  Davidson-Liu solver algorithm using SigmaVectorSparseList sigma algorithm

  Performing diagonalization of the H matrix
  Found 70 roots with 2S+1 = 1 *
  Found 56 roots with 2S+1 = 3
  Found 7 roots with 2S+1 = 5
  Time spent diagonalizing H:   0.005351 s

    P-space  CI Energy Root   0        = -76.029945793736 Eh =   0.0000 eV, S^2 = 0.000000


  ==> Finding the Q space <==

  Using SR screening algorithm
  Time spent forming F space:             0.000885
  Time spent merging thread F spaces:             0.000016
  size of hash: 0
  Time spent building sorting list: 0.000004
  Size of F space: 0
  Time spent building the model space: 0.000948
  Spin-complete dimension of the PQ space: 133

  ==> Diagonalizing the Hamiltonian in the P + Q space <==

  Number of reference roots: 1

  ==> Computing Coupling Lists <==
  --------------------------------
        α          0.000247 s
        β          0.000241 s
        αα         0.000370 s
        ββ         0.000386 s
        αβ         0.001008 s
  --------------------------------

  Davidson-Liu solver algorithm using SigmaVectorSparseList sigma algorithm

  Performing diagonalization of the H matrix
  Found 70 roots with 2S+1 = 1 *
  Found 56 roots with 2S+1 = 3
  Found 7 roots with 2S+1 = 5
  Total time spent diagonalizing H:   0.005441 s

    PQ-space CI Energy Root   0        = -76.029945793736 Eh =   0.0000 eV, S^2 = 0.000000
    PQ-space CI Energy + EPT2 Root   0 = -76.029945793736 Eh =   0.0000 eV

  
  GAS Contribution Analysis  
  GAS contributions root 0: 
  GAS1_A    GASI_B    GAS2_A    GAS2_B        Cont  
     1         1         4         4        0.999999549  
     1         0         4         5        0.000000181  
     0         1         5         4        0.000000181  
     0         0         5         5        0.000000090  

           0                  10            0.000000090  
           1                  9            0.000000362  
           2                  8            0.999999549  

  ***** Calculation Converged *****

  ==> ACI Natural Orbitals <==


  ==> Computing Coupling Lists <==
  --------------------------------
        α          0.000254 s
        β          0.000247 s
        1A1     2.000000      1B1     1.999763      2A1     1.999632  
        3A1     1.992837      1B2     1.990959      2B2     0.009046  
        4A1     0.007763  

  ==> Excited state solver summary <==

  Iterations required:                         1
  Dimension of optimized determinant space:    133

  * Selected-CI Energy Root   0        = -76.029945793736 Eh =   0.0000 eV
  * Selected-CI Energy Root   0 + EPT2 = -76.029945793736 Eh =   0.0000 eV

  ==> Wavefunction Information <==

  Most important contributions to root   0:
    0  -0.995550 0.991119643         132 |2220220>
    1   0.047916 0.002295913         131 |2220202>
    2  -0.028911 0.000835846         130 |22-+2+->
    3  -0.028911 0.000835846         129 |22+-2-+>
    4   0.027687 0.000766589         128 |2202220>
    5  -0.018759 0.000351914         127 |2+2-2-+>
    6  -0.018759 0.000351914         126 |2-2+2+->
    7   0.018138 0.000328970         125 |2222200>
    8   0.016774 0.000281351         124 |2-+2220>
    9   0.016774 0.000281351         123 |2+-2220>

  Saving information for root: 0

-------------------------------------------------------------------------------
               Selected Configuration Interaction Excited States
  written by Jeffrey B. Schriber, Tianyuan Zhang and Francesco A. Evangelista
-------------------------------------------------------------------------------

  ==> Reference Information <==

  ==> Calculation Information <==

  -----------------------------------------------------------------
    Multiplicity                             1    
    Symmetry                                 2    
    Number of roots                          1    
    Ms                                       0
    Excited Algorithm                        NONE
  -----------------------------------------------------------------
  Using 1 threads
  Computing wavefunction for root 0

        ---------------------------------------------------------------
                      Adaptive Configuration Interaction
          written by Jeffrey B. Schriber and Francesco A. Evangelista
        ---------------------------------------------------------------

  ==> Reference Information <==

  There are 0 frozen orbitals.
  There are 7 active orbitals.

  ==> Calculation Information <==

  -----------------------------------------------------------------
    Multiplicity                             1    
    Symmetry                                 2    
    Number of roots                          1    
    Root used for properties                 0    
    Sigma (Eh)                               0.00e+00
    Gamma (Eh^(-1))                          1.00e+00
    Convergence threshold                    1.00e-09
    Ms                                       0
    Diagonalization algorithm                SPARSE
    Excited Algorithm                        NONE
    Project out spin contaminants            True
    Enforce spin completeness of basis       True
    Enforce complete aimed selection         True
  -----------------------------------------------------------------
  Number of active alpha electrons: 5
  Number of active beta electrons: 5
  Maximum reference space size: 1000
  The maximum number of electrons in GAS1 is 1
  The minimum number of electrons in GAS1 is 0
  The maximum number of electrons in GAS2 is 10 
  The minimum number of electrons in GAS2 is 0
  
  Possible electron occupations in the GAS 
  GAS1_A  GAS1_B  GAS2_A  GAS2_B  
     1       0       4       5    
     0       1       5       4    
     0       0       5       5    

  GAS Orbital Energies
  GAS   Energies    Orb 
  1  -20.568999574  0 
  2  -1.320609273  1 
  2  -0.563930450  2 
  2   0.202465902  3 
  2  -0.495003944  4 
  2  -0.678724187  5 
  2   0.292719335  6 

  ---------------------------------- Cycle 0 -----------------------------------


  ==> Diagonalizing the Hamiltonian in the P space <==

  Initial P space dimension: 40
  Spin-complete dimension of the P space: 40 determinants

  ==> Computing Coupling Lists <==
  --------------------------------
        α          0.000083 s
        β          0.000085 s
        αα         0.000139 s
        ββ         0.000133 s
        αβ         0.000347 s
  --------------------------------

  Davidson-Liu solver algorithm using SigmaVectorSparseList sigma algorithm

  Performing diagonalization of the H matrix
  Found 16 roots with 2S+1 = 1 *
  Found 20 roots with 2S+1 = 3
  Found 4 roots with 2S+1 = 5
  Time spent diagonalizing H:   0.001283 s

    P-space  CI Energy Root   0        = -55.026128671613 Eh =   0.0000 eV, S^2 = 0.000000


  ==> Finding the Q space <==

  Using SR screening algorithm
  Time spent forming F space:             0.000202
  Time spent merging thread F spaces:             0.000006
  size of hash: 0
  Time spent building sorting list: 0.000004
  Size of F space: 0
  Time spent building the model space: 0.000237
  Spin-complete dimension of the PQ space: 40

  ==> Diagonalizing the Hamiltonian in the P + Q space <==

  Number of reference roots: 1

  ==> Computing Coupling Lists <==
  --------------------------------
        α          0.000084 s
        β          0.000083 s
        αα         0.000139 s
        ββ         0.000135 s
        αβ         0.000345 s
  --------------------------------

  Davidson-Liu solver algorithm using SigmaVectorSparseList sigma algorithm

  Performing diagonalization of the H matrix
  Found 16 roots with 2S+1 = 1 *
  Found 20 roots with 2S+1 = 3
  Found 4 roots with 2S+1 = 5
  Total time spent diagonalizing H:   0.001281 s

    PQ-space CI Energy Root   0        = -55.026128671613 Eh =   0.0000 eV, S^2 = 0.000000
    PQ-space CI Energy + EPT2 Root   0 = -55.026128671613 Eh =   0.0000 eV

  
  GAS Contribution Analysis  
  GAS contributions root 0: 
  GAS1_A    GASI_B    GAS2_A    GAS2_B        Cont  
     1         0         4         5        0.499997257  
     0         1         5         4        0.499997257  
     0         0         5         5        0.000005485  

           0                  10            0.000005485  
           1                  9            0.999994515  


  ==> Pruning the Q space <==

  Cycle 0 took: 0.003206 s

  ---------------------------------- Cycle 1 -----------------------------------


  ==> Diagonalizing the Hamiltonian in the P space <==

  Initial P space dimension: 40
  Spin-complete dimension of the P space: 40 determinants

  ==> Computing Coupling Lists <==
  --------------------------------
        α          0.000085 s
        β          0.000083 s
        αα         0.000139 s
        ββ         0.000132 s
        αβ         0.000349 s
  --------------------------------

  Davidson-Liu solver algorithm using SigmaVectorSparseList sigma algorithm

  Performing diagonalization of the H matrix
  Found 16 roots with 2S+1 = 1 *
  Found 20 roots with 2S+1 = 3
  Found 4 roots with 2S+1 = 5
  Time spent diagonalizing H:   0.001329 s

    P-space  CI Energy Root   0        = -55.026128671613 Eh =   0.0000 eV, S^2 = 0.000000


  ==> Finding the Q space <==

  Using SR screening algorithm
  Time spent forming F space:             0.000204
  Time spent merging thread F spaces:             0.000006
  size of hash: 0
  Time spent building sorting list: 0.000004
  Size of F space: 0
  Time spent building the model space: 0.000239
  Spin-complete dimension of the PQ space: 40

  ==> Diagonalizing the Hamiltonian in the P + Q space <==

  Number of reference roots: 1

  ==> Computing Coupling Lists <==
  --------------------------------
        α          0.000085 s
        β          0.000083 s
        αα         0.000138 s
        ββ         0.000132 s
        αβ         0.000353 s
  --------------------------------

  Davidson-Liu solver algorithm using SigmaVectorSparseList sigma algorithm

  Performing diagonalization of the H matrix
  Found 16 roots with 2S+1 = 1 *
  Found 20 roots with 2S+1 = 3
  Found 4 roots with 2S+1 = 5
  Total time spent diagonalizing H:   0.001330 s

    PQ-space CI Energy Root   0        = -55.026128671613 Eh =   0.0000 eV, S^2 = 0.000000
    PQ-space CI Energy + EPT2 Root   0 = -55.026128671613 Eh =   0.0000 eV

  
  GAS Contribution Analysis  
  GAS contributions root 0: 
  GAS1_A    GASI_B    GAS2_A    GAS2_B        Cont  
     1         0         4         5        0.499997257  
     0         1         5         4        0.499997257  
     0         0         5         5        0.000005485  

           0                  10            0.000005485  
           1                  9            0.999994515  

  ***** Calculation Converged *****

  ==> ACI Natural Orbitals <==


  ==> Computing Coupling Lists <==
  --------------------------------
        α          0.000083 s
        β          0.000082 s
        1A1     1.999999      2A1     1.999994      1B2     1.999938  
        3A1     1.583734      1B1     1.000000      4A1     0.999993  
        2B2     0.416343  

  ==> Excited state solver summary <==

  Iterations required:                         1
  Dimension of optimized determinant space:    40

  * Selected-CI Energy Root   0        = -55.026128671613 Eh =   0.0000 eV
  * Selected-CI Energy Root   0 + EPT2 = -55.026128671613 Eh =   0.0000 eV

  ==> Wavefunction Information <==

  Most important contributions to root   0:
    0  -0.579098 0.335354658          39 |+222-20>
    1  -0.579098 0.335354658          38 |-222+20>
    2  -0.301190 0.090715187          37 |+220-22>
    3  -0.301190 0.090715187          36 |-220+22>
    4  -0.171603 0.029447502          35 |+222--+>
    5  -0.171603 0.029447502          34 |-222++->
    6  -0.170226 0.028977025          33 |-222+-+>
    7  -0.170226 0.028977025          32 |+222-+->
    8   0.065603 0.004303708          31 |+2-+-22>
    9   0.065603 0.004303708          30 |-2+-+22>

  Saving information for root: 0

  ==> Energy Summary <==

    Multi.(2ms)  Irrep.  No.               Energy
    ---------------------------------------------
       1  (  0)    A1     0      -76.029945793736
    ---------------------------------------------
       1  (  0)    B1     0      -55.026128671613
    ---------------------------------------------

  ==> Computing Coupling Lists <==
  --------------------------------
        α          0.000000 s
        β          0.000000 s
        αα         0.000000 s
        ββ         0.000000 s
        αβ         0.000000 s
  --------------------------------

  ==> Computing Coupling Lists <==
  --------------------------------
        α          0.000254 s
        β          0.000252 s
  1-RDM  took 0.000830 s (determinant)
        αα         0.000388 s
        ββ         0.000385 s
        αβ         0.001008 s
  --------------------------------
  2-RDMS took 0.002239 s (determinant)

  ==> Computing Coupling Lists <==
  --------------------------------
        α          0.000000 s
        β          0.000000 s
        αα         0.000000 s
        ββ         0.000000 s
        αβ         0.000000 s
  --------------------------------

  ==> Computing Coupling Lists <==
  --------------------------------
        α          0.000083 s
        β          0.000082 s
  1-RDM  took 0.000300 s (determinant)
        αα         0.000133 s
        ββ         0.000133 s
        αβ         0.000349 s
  --------------------------------
  2-RDMS took 0.000784 s (determinant)

 CAS took 0.039102 seconds.

 FormFockIntermediates took 0.00070403 s.

 FormOrbitalGradient took 0.00016156 s.

 FormDiagHessian took 0.00021218 s.

 Update function takes 0.00110064 s
    1 0.153058779276   -65.528037232674   -65.528037232674    0.0 s       ~

  Transform Integrals takes 0.00591862 s.

  Performing a CAS with ACI

  ==> Summary of Active Space Solver Input <==

    Irrep.  Multi.(2ms)      N
    --------------------------
       A1      1  (  0)      1
       B1      1  (  0)      1
    --------------------------
    N: number of roots
    ms: spin z component
    Total number of roots:   2
    --------------------------


-------------------------------------------------------------------------------
               Selected Configuration Interaction Excited States
  written by Jeffrey B. Schriber, Tianyuan Zhang and Francesco A. Evangelista
-------------------------------------------------------------------------------

  ==> Reference Information <==

  ==> Calculation Information <==

  -----------------------------------------------------------------
    Multiplicity                             1    
    Symmetry                                 0    
    Number of roots                          1    
    Ms                                       0
    Excited Algorithm                        NONE
  -----------------------------------------------------------------
  Using 1 threads
  Computing wavefunction for root 0

        ---------------------------------------------------------------
                      Adaptive Configuration Interaction
          written by Jeffrey B. Schriber and Francesco A. Evangelista
        ---------------------------------------------------------------

  ==> Reference Information <==

  There are 0 frozen orbitals.
  There are 7 active orbitals.

  ==> Calculation Information <==

  -----------------------------------------------------------------
    Multiplicity                             1    
    Symmetry                                 0    
    Number of roots                          1    
    Root used for properties                 0    
    Sigma (Eh)                               0.00e+00
    Gamma (Eh^(-1))                          1.00e+00
    Convergence threshold                    1.00e-09
    Ms                                       0
    Diagonalization algorithm                SPARSE
    Excited Algorithm                        NONE
    Project out spin contaminants            True
    Enforce spin completeness of basis       True
    Enforce complete aimed selection         True
  -----------------------------------------------------------------
  Number of active alpha electrons: 5
  Number of active beta electrons: 5
  Maximum reference space size: 1000
  The maximum number of electrons in GAS1 is 2
  The minimum number of electrons in GAS1 is 0
  The maximum number of electrons in GAS2 is 10 
  The minimum number of electrons in GAS2 is 0
  
  Possible electron occupations in the GAS 
  GAS1_A  GAS1_B  GAS2_A  GAS2_B  
     1       1       4       4    
     1       0       4       5    
     0       1       5       4    
     0       0       5       5    

  GAS Orbital Energies
  GAS   Energies    Orb 
  1  -20.568999574  0 
  2  -1.320609273  1 
  2  -0.563930450  2 
  2   0.202465902  3 
  2  -0.495003944  4 
  2  -0.678724187  5 
  2   0.292719335  6 

  ---------------------------------- Cycle 0 -----------------------------------


  ==> Diagonalizing the Hamiltonian in the P space <==

  Initial P space dimension: 133
  Spin-complete dimension of the P space: 133 determinants

  ==> Computing Coupling Lists <==
  --------------------------------
        α          0.000247 s
        β          0.000244 s
        αα         0.000378 s
        ββ         0.000381 s
        αβ         0.001004 s
  --------------------------------

  Davidson-Liu solver algorithm using SigmaVectorSparseList sigma algorithm

  Performing diagonalization of the H matrix
  Found 70 roots with 2S+1 = 1 *
  Found 56 roots with 2S+1 = 3
  Found 7 roots with 2S+1 = 5
  Time spent diagonalizing H:   0.005572 s

    P-space  CI Energy Root   0        = -75.913828325651 Eh =   0.0000 eV, S^2 = 0.000000


  ==> Finding the Q space <==

  Using SR screening algorithm
  Time spent forming F space:             0.000782
  Time spent merging thread F spaces:             0.000017
  size of hash: 0
  Time spent building sorting list: 0.000004
  Size of F space: 0
  Time spent building the model space: 0.000848
  Spin-complete dimension of the PQ space: 133

  ==> Diagonalizing the Hamiltonian in the P + Q space <==

  Number of reference roots: 1

  ==> Computing Coupling Lists <==
  --------------------------------
        α          0.000250 s
        β          0.000245 s
        αα         0.000381 s
        ββ         0.000380 s
        αβ         0.001009 s
  --------------------------------

  Davidson-Liu solver algorithm using SigmaVectorSparseList sigma algorithm

  Performing diagonalization of the H matrix
  Found 70 roots with 2S+1 = 1 *
  Found 56 roots with 2S+1 = 3
  Found 7 roots with 2S+1 = 5
  Total time spent diagonalizing H:   0.005567 s

    PQ-space CI Energy Root   0        = -75.913828325651 Eh =   0.0000 eV, S^2 = 0.000000
    PQ-space CI Energy + EPT2 Root   0 = -75.913828325651 Eh =   0.0000 eV

  
  GAS Contribution Analysis  
  GAS contributions root 0: 
  GAS1_A    GASI_B    GAS2_A    GAS2_B        Cont  
     1         1         4         4        0.999993727  
     1         0         4         5        0.000002597  
     0         1         5         4        0.000002597  
     0         0         5         5        0.000001079  

           0                  10            0.000001079  
           1                  9            0.000005194  
           2                  8            0.999993727  


  ==> Pruning the Q space <==

  Cycle 0 took: 0.012935 s

  ---------------------------------- Cycle 1 -----------------------------------


  ==> Diagonalizing the Hamiltonian in the P space <==

  Initial P space dimension: 133
  Spin-complete dimension of the P space: 133 determinants

  ==> Computing Coupling Lists <==
  --------------------------------
        α          0.000254 s
        β          0.000253 s
        αα         0.000380 s
        ββ         0.000386 s
        αβ         0.001127 s
  --------------------------------

  Davidson-Liu solver algorithm using SigmaVectorSparseList sigma algorithm

  Performing diagonalization of the H matrix
  Found 70 roots with 2S+1 = 1 *
  Found 56 roots with 2S+1 = 3
  Found 7 roots with 2S+1 = 5
  Time spent diagonalizing H:   0.005701 s

    P-space  CI Energy Root   0        = -75.913828325651 Eh =   0.0000 eV, S^2 = 0.000000


  ==> Finding the Q space <==

  Using SR screening algorithm
  Time spent forming F space:             0.000815
  Time spent merging thread F spaces:             0.000017
  size of hash: 0
  Time spent building sorting list: 0.000004
  Size of F space: 0
  Time spent building the model space: 0.000879
  Spin-complete dimension of the PQ space: 133

  ==> Diagonalizing the Hamiltonian in the P + Q space <==

  Number of reference roots: 1

  ==> Computing Coupling Lists <==
  --------------------------------
        α          0.000254 s
        β          0.000253 s
        αα         0.000381 s
        ββ         0.000388 s
        αβ         0.001021 s
  --------------------------------

  Davidson-Liu solver algorithm using SigmaVectorSparseList sigma algorithm

  Performing diagonalization of the H matrix
  Found 70 roots with 2S+1 = 1 *
  Found 56 roots with 2S+1 = 3
  Found 7 roots with 2S+1 = 5
  Total time spent diagonalizing H:   0.005601 s

    PQ-space CI Energy Root   0        = -75.913828325651 Eh =   0.0000 eV, S^2 = 0.000000
    PQ-space CI Energy + EPT2 Root   0 = -75.913828325651 Eh =   0.0000 eV

  
  GAS Contribution Analysis  
  GAS contributions root 0: 
  GAS1_A    GASI_B    GAS2_A    GAS2_B        Cont  
     1         1         4         4        0.999993727  
     1         0         4         5        0.000002597  
     0         1         5         4        0.000002597  
     0         0         5         5        0.000001079  

           0                  10            0.000001079  
           1                  9            0.000005194  
           2                  8            0.999993727  

  ***** Calculation Converged *****

  ==> ACI Natural Orbitals <==


  ==> Computing Coupling Lists <==
  --------------------------------
        α          0.000254 s
        β          0.000251 s
        1A1     1.999996      1B1     1.998147      2A1     1.997397  
        3A1     1.967491      1B2     1.965251      4A1     0.036051  
        2B2     0.035667  

  ==> Excited state solver summary <==

  Iterations required:                         1
  Dimension of optimized determinant space:    133

  * Selected-CI Energy Root   0        = -75.913828325651 Eh =   0.0000 eV
  * Selected-CI Energy Root   0 + EPT2 = -75.913828325651 Eh =   0.0000 eV

  ==> Wavefunction Information <==

  Most important contributions to root   0:
    0   0.936668 0.877347229         132 |2220220>
    1  -0.169341 0.028676368         131 |22202+->
    2  -0.169341 0.028676368         130 |22202-+>
    3   0.138871 0.019285151         129 |22+-220>
    4   0.138871 0.019285151         128 |22-+220>
    5  -0.059686 0.003562438         127 |2220202>
    6   0.048568 0.002358832         126 |2-2+220>
    7   0.048568 0.002358832         125 |2+2-220>
    8  -0.047436 0.002250205         124 |2202220>
    9  -0.041397 0.001713702         123 |2222200>

  Saving information for root: 0

-------------------------------------------------------------------------------
               Selected Configuration Interaction Excited States
  written by Jeffrey B. Schriber, Tianyuan Zhang and Francesco A. Evangelista
-------------------------------------------------------------------------------

  ==> Reference Information <==

  ==> Calculation Information <==

  -----------------------------------------------------------------
    Multiplicity                             1    
    Symmetry                                 2    
    Number of roots                          1    
    Ms                                       0
    Excited Algorithm                        NONE
  -----------------------------------------------------------------
  Using 1 threads
  Computing wavefunction for root 0

        ---------------------------------------------------------------
                      Adaptive Configuration Interaction
          written by Jeffrey B. Schriber and Francesco A. Evangelista
        ---------------------------------------------------------------

  ==> Reference Information <==

  There are 0 frozen orbitals.
  There are 7 active orbitals.

  ==> Calculation Information <==

  -----------------------------------------------------------------
    Multiplicity                             1    
    Symmetry                                 2    
    Number of roots                          1    
    Root used for properties                 0    
    Sigma (Eh)                               0.00e+00
    Gamma (Eh^(-1))                          1.00e+00
    Convergence threshold                    1.00e-09
    Ms                                       0
    Diagonalization algorithm                SPARSE
    Excited Algorithm                        NONE
    Project out spin contaminants            True
    Enforce spin completeness of basis       True
    Enforce complete aimed selection         True
  -----------------------------------------------------------------
  Number of active alpha electrons: 5
  Number of active beta electrons: 5
  Maximum reference space size: 1000
  The maximum number of electrons in GAS1 is 1
  The minimum number of electrons in GAS1 is 0
  The maximum number of electrons in GAS2 is 10 
  The minimum number of electrons in GAS2 is 0
  
  Possible electron occupations in the GAS 
  GAS1_A  GAS1_B  GAS2_A  GAS2_B  
     1       0       4       5    
     0       1       5       4    
     0       0       5       5    

  GAS Orbital Energies
  GAS   Energies    Orb 
  1  -20.568999574  0 
  2  -1.320609273  1 
  2  -0.563930450  2 
  2   0.202465902  3 
  2  -0.495003944  4 
  2  -0.678724187  5 
  2   0.292719335  6 

  ---------------------------------- Cycle 0 -----------------------------------


  ==> Diagonalizing the Hamiltonian in the P space <==

  Initial P space dimension: 40
  Spin-complete dimension of the P space: 40 determinants

  ==> Computing Coupling Lists <==
  --------------------------------
        α          0.000083 s
        β          0.000082 s
        αα         0.000138 s
        ββ         0.000133 s
        αβ         0.000347 s
  --------------------------------

  Davidson-Liu solver algorithm using SigmaVectorSparseList sigma algorithm

  Performing diagonalization of the H matrix
  Found 16 roots with 2S+1 = 1 *
  Found 20 roots with 2S+1 = 3
  Found 4 roots with 2S+1 = 5
  Time spent diagonalizing H:   0.001291 s

    P-space  CI Energy Root   0        = -55.758029257687 Eh =   0.0000 eV, S^2 = 0.000000


  ==> Finding the Q space <==

  Using SR screening algorithm
  Time spent forming F space:             0.000198
  Time spent merging thread F spaces:             0.000006
  size of hash: 0
  Time spent building sorting list: 0.000004
  Size of F space: 0
  Time spent building the model space: 0.000233
  Spin-complete dimension of the PQ space: 40

  ==> Diagonalizing the Hamiltonian in the P + Q space <==

  Number of reference roots: 1

  ==> Computing Coupling Lists <==
  --------------------------------
        α          0.000084 s
        β          0.000085 s
        αα         0.000139 s
        ββ         0.000134 s
        αβ         0.000346 s
  --------------------------------

  Davidson-Liu solver algorithm using SigmaVectorSparseList sigma algorithm

  Performing diagonalization of the H matrix
  Found 16 roots with 2S+1 = 1 *
  Found 20 roots with 2S+1 = 3
  Found 4 roots with 2S+1 = 5
  Total time spent diagonalizing H:   0.001283 s

    PQ-space CI Energy Root   0        = -55.758029257687 Eh =   0.0000 eV, S^2 = 0.000000
    PQ-space CI Energy + EPT2 Root   0 = -55.758029257687 Eh =   0.0000 eV

  
  GAS Contribution Analysis  
  GAS contributions root 0: 
  GAS1_A    GASI_B    GAS2_A    GAS2_B        Cont  
     1         0         4         5        0.499993956  
     0         1         5         4        0.499993956  
     0         0         5         5        0.000012088  

           0                  10            0.000012088  
           1                  9            0.999987912  


  ==> Pruning the Q space <==

  Cycle 0 took: 0.003203 s

  ---------------------------------- Cycle 1 -----------------------------------


  ==> Diagonalizing the Hamiltonian in the P space <==

  Initial P space dimension: 40
  Spin-complete dimension of the P space: 40 determinants

  ==> Computing Coupling Lists <==
  --------------------------------
        α          0.000084 s
        β          0.000084 s
        αα         0.000142 s
        ββ         0.000133 s
        αβ         0.000352 s
  --------------------------------

  Davidson-Liu solver algorithm using SigmaVectorSparseList sigma algorithm

  Performing diagonalization of the H matrix
  Found 16 roots with 2S+1 = 1 *
  Found 20 roots with 2S+1 = 3
  Found 4 roots with 2S+1 = 5
  Time spent diagonalizing H:   0.001304 s

    P-space  CI Energy Root   0        = -55.758029257687 Eh =   0.0000 eV, S^2 = 0.000000


  ==> Finding the Q space <==

  Using SR screening algorithm
  Time spent forming F space:             0.000199
  Time spent merging thread F spaces:             0.000006
  size of hash: 0
  Time spent building sorting list: 0.000003
  Size of F space: 0
  Time spent building the model space: 0.000234
  Spin-complete dimension of the PQ space: 40

  ==> Diagonalizing the Hamiltonian in the P + Q space <==

  Number of reference roots: 1

  ==> Computing Coupling Lists <==
  --------------------------------
        α          0.000085 s
        β          0.000084 s
        αα         0.000143 s
        ββ         0.000135 s
        αβ         0.000353 s
  --------------------------------

  Davidson-Liu solver algorithm using SigmaVectorSparseList sigma algorithm

  Performing diagonalization of the H matrix
  Found 16 roots with 2S+1 = 1 *
  Found 20 roots with 2S+1 = 3
  Found 4 roots with 2S+1 = 5
  Total time spent diagonalizing H:   0.001312 s

    PQ-space CI Energy Root   0        = -55.758029257687 Eh =   0.0000 eV, S^2 = 0.000000
    PQ-space CI Energy + EPT2 Root   0 = -55.758029257687 Eh =   0.0000 eV

  
  GAS Contribution Analysis  
  GAS contributions root 0: 
  GAS1_A    GASI_B    GAS2_A    GAS2_B        Cont  
     1         0         4         5        0.499993956  
     0         1         5         4        0.499993956  
     0         0         5         5        0.000012088  

           0                  10            0.000012088  
           1                  9            0.999987912  

  ***** Calculation Converged *****

  ==> ACI Natural Orbitals <==


  ==> Computing Coupling Lists <==
  --------------------------------
        α          0.000083 s
        β          0.000083 s
        1A1     1.999971      2A1     1.999941      1B2     1.997424  
        3A1     1.584962      1B1     1.000000      4A1     0.999984  
        2B2     0.417718  

  ==> Excited state solver summary <==

  Iterations required:                         1
  Dimension of optimized determinant space:    40

  * Selected-CI Energy Root   0        = -55.758029257687 Eh =   0.0000 eV
  * Selected-CI Energy Root   0 + EPT2 = -55.758029257687 Eh =   0.0000 eV

  ==> Wavefunction Information <==

  Most important contributions to root   0:
    0  -0.575234 0.330894162          39 |+222-20>
    1  -0.575234 0.330894162          38 |-222+20>
    2  -0.299492 0.089695253          37 |+220-22>
    3  -0.299492 0.089695253          36 |-220+22>
    4  -0.183892 0.033816130          35 |+222--+>
    5  -0.183892 0.033816130          34 |-222++->
    6  -0.174782 0.030548576          33 |-222+-+>
    7  -0.174782 0.030548576          32 |+222-+->
    8   0.071653 0.005134165          31 |+2-+-22>
    9   0.071653 0.005134165          30 |-2+-+22>

  Saving information for root: 0

  ==> Energy Summary <==

    Multi.(2ms)  Irrep.  No.               Energy
    ---------------------------------------------
       1  (  0)    A1     0      -75.913828325651
    ---------------------------------------------
       1  (  0)    B1     0      -55.758029257687
    ---------------------------------------------

  ==> Computing Coupling Lists <==
  --------------------------------
        α          0.000000 s
        β          0.000000 s
        αα         0.000000 s
        ββ         0.000000 s
        αβ         0.000000 s
  --------------------------------

  ==> Computing Coupling Lists <==
  --------------------------------
        α          0.000250 s
        β          0.000245 s
  1-RDM  took 0.000820 s (determinant)
        αα         0.000391 s
        ββ         0.000385 s
        αβ         0.001017 s
  --------------------------------
  2-RDMS took 0.002250 s (determinant)

  ==> Computing Coupling Lists <==
  --------------------------------
        α          0.000000 s
        β          0.000000 s
        αα         0.000000 s
        ββ         0.000000 s
        αβ         0.000000 s
  --------------------------------

  ==> Computing Coupling Lists <==
  --------------------------------
        α          0.000085 s
        β          0.000083 s
  1-RDM  took 0.000303 s (determinant)
        αα         0.000136 s
        ββ         0.000135 s
        αβ         0.000351 s
  --------------------------------
  2-RDMS took 0.000791 s (determinant)

 CAS took 0.039274 seconds.

 FormFockIntermediates took 0.00069865 s.

 FormOrbitalGradient took 0.00012807 s.

 FormDiagHessian took 0.00017117 s.

 Update function takes 0.00101815 s
    2 0.045110149097    -0.307891558995   -65.835928791669    0.0 s       ~

  Transform Integrals takes 0.00589945 s.

  Performing a CAS with ACI

  ==> Summary of Active Space Solver Input <==

    Irrep.  Multi.(2ms)      N
    --------------------------
       A1      1  (  0)      1
       B1      1  (  0)      1
    --------------------------
    N: number of roots
    ms: spin z component
    Total number of roots:   2
    --------------------------


-------------------------------------------------------------------------------
               Selected Configuration Interaction Excited States
  written by Jeffrey B. Schriber, Tianyuan Zhang and Francesco A. Evangelista
-------------------------------------------------------------------------------

  ==> Reference Information <==

  ==> Calculation Information <==

  -----------------------------------------------------------------
    Multiplicity                             1    
    Symmetry                                 0    
    Number of roots                          1    
    Ms                                       0
    Excited Algorithm                        NONE
  -----------------------------------------------------------------
  Using 1 threads
  Computing wavefunction for root 0

        ---------------------------------------------------------------
                      Adaptive Configuration Interaction
          written by Jeffrey B. Schriber and Francesco A. Evangelista
        ---------------------------------------------------------------

  ==> Reference Information <==

  There are 0 frozen orbitals.
  There are 7 active orbitals.

  ==> Calculation Information <==

  -----------------------------------------------------------------
    Multiplicity                             1    
    Symmetry                                 0    
    Number of roots                          1    
    Root used for properties                 0    
    Sigma (Eh)                               0.00e+00
    Gamma (Eh^(-1))                          1.00e+00
    Convergence threshold                    1.00e-09
    Ms                                       0
    Diagonalization algorithm                SPARSE
    Excited Algorithm                        NONE
    Project out spin contaminants            True
    Enforce spin completeness of basis       True
    Enforce complete aimed selection         True
  -----------------------------------------------------------------
  Number of active alpha electrons: 5
  Number of active beta electrons: 5
  Maximum reference space size: 1000
  The maximum number of electrons in GAS1 is 2
  The minimum number of electrons in GAS1 is 0
  The maximum number of electrons in GAS2 is 10 
  The minimum number of electrons in GAS2 is 0
  
  Possible electron occupations in the GAS 
  GAS1_A  GAS1_B  GAS2_A  GAS2_B  
     1       1       4       4    
     1       0       4       5    
     0       1       5       4    
     0       0       5       5    

  GAS Orbital Energies
  GAS   Energies    Orb 
  1  -20.568999574  0 
  2  -1.320609273  1 
  2  -0.563930450  2 
  2   0.202465902  3 
  2  -0.495003944  4 
  2  -0.678724187  5 
  2   0.292719335  6 

  ---------------------------------- Cycle 0 -----------------------------------


  ==> Diagonalizing the Hamiltonian in the P space <==

  Initial P space dimension: 133
  Spin-complete dimension of the P space: 133 determinants

  ==> Computing Coupling Lists <==
  --------------------------------
        α          0.000250 s
        β          0.000246 s
        αα         0.000379 s
        ββ         0.000380 s
        αβ         0.001014 s
  --------------------------------

  Davidson-Liu solver algorithm using SigmaVectorSparseList sigma algorithm

  Performing diagonalization of the H matrix
  Found 70 roots with 2S+1 = 1 *
  Found 56 roots with 2S+1 = 3
  Found 7 roots with 2S+1 = 5
  Time spent diagonalizing H:   0.005557 s

    P-space  CI Energy Root   0        = -75.992030962486 Eh =   0.0000 eV, S^2 = 0.000000


  ==> Finding the Q space <==

  Using SR screening algorithm
  Time spent forming F space:             0.000788
  Time spent merging thread F spaces:             0.000017
  size of hash: 0
  Time spent building sorting list: 0.000004
  Size of F space: 0
  Time spent building the model space: 0.000853
  Spin-complete dimension of the PQ space: 133

  ==> Diagonalizing the Hamiltonian in the P + Q space <==

  Number of reference roots: 1

  ==> Computing Coupling Lists <==
  --------------------------------
        α          0.000250 s
        β          0.000248 s
        αα         0.000379 s
        ββ         0.000378 s
        αβ         0.001010 s
  --------------------------------

  Davidson-Liu solver algorithm using SigmaVectorSparseList sigma algorithm

  Performing diagonalization of the H matrix
  Found 70 roots with 2S+1 = 1 *
  Found 56 roots with 2S+1 = 3
  Found 7 roots with 2S+1 = 5
  Total time spent diagonalizing H:   0.005559 s

    PQ-space CI Energy Root   0        = -75.992030962486 Eh =   0.0000 eV, S^2 = 0.000000
    PQ-space CI Energy + EPT2 Root   0 = -75.992030962486 Eh =   0.0000 eV

  
  GAS Contribution Analysis  
  GAS contributions root 0: 
  GAS1_A    GASI_B    GAS2_A    GAS2_B        Cont  
     1         1         4         4        0.999995302  
     1         0         4         5        0.000001905  
     0         1         5         4        0.000001905  
     0         0         5         5        0.000000887  

           0                  10            0.000000887  
           1                  9            0.000003810  
           2                  8            0.999995302  


  ==> Pruning the Q space <==

  Cycle 0 took: 0.012919 s

  ---------------------------------- Cycle 1 -----------------------------------


  ==> Diagonalizing the Hamiltonian in the P space <==

  Initial P space dimension: 133
  Spin-complete dimension of the P space: 133 determinants

  ==> Computing Coupling Lists <==
  --------------------------------
        α          0.000253 s
        β          0.000254 s
        αα         0.000382 s
        ββ         0.000380 s
        αβ         0.001013 s
  --------------------------------

  Davidson-Liu solver algorithm using SigmaVectorSparseList sigma algorithm

  Performing diagonalization of the H matrix
  Found 70 roots with 2S+1 = 1 *
  Found 56 roots with 2S+1 = 3
  Found 7 roots with 2S+1 = 5
  Time spent diagonalizing H:   0.005404 s

    P-space  CI Energy Root   0        = -75.992030962486 Eh =   0.0000 eV, S^2 = -0.000000


  ==> Finding the Q space <==

  Using SR screening algorithm
  Time spent forming F space:             0.000816
  Time spent merging thread F spaces:             0.000017
  size of hash: 0
  Time spent building sorting list: 0.000004
  Size of F space: 0
  Time spent building the model space: 0.000881
  Spin-complete dimension of the PQ space: 133

  ==> Diagonalizing the Hamiltonian in the P + Q space <==

  Number of reference roots: 1

  ==> Computing Coupling Lists <==
  --------------------------------
        α          0.000254 s
        β          0.000251 s
        αα         0.000381 s
        ββ         0.000379 s
        αβ         0.001014 s
  --------------------------------

  Davidson-Liu solver algorithm using SigmaVectorSparseList sigma algorithm

  Performing diagonalization of the H matrix
  Found 70 roots with 2S+1 = 1 *
  Found 56 roots with 2S+1 = 3
  Found 7 roots with 2S+1 = 5
  Total time spent diagonalizing H:   0.005409 s

    PQ-space CI Energy Root   0        = -75.992030962486 Eh =   0.0000 eV, S^2 = -0.000000
    PQ-space CI Energy + EPT2 Root   0 = -75.992030962486 Eh =   0.0000 eV

  
  GAS Contribution Analysis  
  GAS contributions root 0: 
  GAS1_A    GASI_B    GAS2_A    GAS2_B        Cont  
     1         1         4         4        0.999995302  
     1         0         4         5        0.000001905  
     0         1         5         4        0.000001905  
     0         0         5         5        0.000000887  

           0                  10            0.000000887  
           1                  9            0.000003810  
           2                  8            0.999995302  

  ***** Calculation Converged *****

  ==> ACI Natural Orbitals <==


  ==> Computing Coupling Lists <==
  --------------------------------
        α          0.000252 s
        β          0.000253 s
        1A1     1.999997      1B1     1.998610      2A1     1.998005  
        3A1     1.969045      1B2     1.967093      2B2     0.033850  
        4A1     0.033400  

  ==> Excited state solver summary <==

  Iterations required:                         1
  Dimension of optimized determinant space:    133

  * Selected-CI Energy Root   0        = -75.992030962486 Eh =   0.0000 eV
  * Selected-CI Energy Root   0 + EPT2 = -75.992030962486 Eh =   0.0000 eV

  ==> Wavefunction Information <==

  Most important contributions to root   0:
    0   0.959274 0.920206885         132 |2220220>
    1   0.116753 0.013631315         131 |22+-220>
    2   0.116753 0.013631315         130 |22-+220>
    3  -0.110885 0.012295479         129 |22202+->
    4  -0.110885 0.012295479         128 |22202-+>
    5  -0.076132 0.005796040         127 |2220202>
    6  -0.052060 0.002710262         126 |2202220>
    7   0.046096 0.002124884         125 |22-+2+->
    8   0.046096 0.002124884         124 |22+-2-+>
    9  -0.037481 0.001404789         123 |2222200>

  Saving information for root: 0

-------------------------------------------------------------------------------
               Selected Configuration Interaction Excited States
  written by Jeffrey B. Schriber, Tianyuan Zhang and Francesco A. Evangelista
-------------------------------------------------------------------------------

  ==> Reference Information <==

  ==> Calculation Information <==

  -----------------------------------------------------------------
    Multiplicity                             1    
    Symmetry                                 2    
    Number of roots                          1    
    Ms                                       0
    Excited Algorithm                        NONE
  -----------------------------------------------------------------
  Using 1 threads
  Computing wavefunction for root 0

        ---------------------------------------------------------------
                      Adaptive Configuration Interaction
          written by Jeffrey B. Schriber and Francesco A. Evangelista
        ---------------------------------------------------------------

  ==> Reference Information <==

  There are 0 frozen orbitals.
  There are 7 active orbitals.

  ==> Calculation Information <==

  -----------------------------------------------------------------
    Multiplicity                             1    
    Symmetry                                 2    
    Number of roots                          1    
    Root used for properties                 0    
    Sigma (Eh)                               0.00e+00
    Gamma (Eh^(-1))                          1.00e+00
    Convergence threshold                    1.00e-09
    Ms                                       0
    Diagonalization algorithm                SPARSE
    Excited Algorithm                        NONE
    Project out spin contaminants            True
    Enforce spin completeness of basis       True
    Enforce complete aimed selection         True
  -----------------------------------------------------------------
  Number of active alpha electrons: 5
  Number of active beta electrons: 5
  Maximum reference space size: 1000
  The maximum number of electrons in GAS1 is 1
  The minimum number of electrons in GAS1 is 0
  The maximum number of electrons in GAS2 is 10 
  The minimum number of electrons in GAS2 is 0
  
  Possible electron occupations in the GAS 
  GAS1_A  GAS1_B  GAS2_A  GAS2_B  
     1       0       4       5    
     0       1       5       4    
     0       0       5       5    

  GAS Orbital Energies
  GAS   Energies    Orb 
  1  -20.568999574  0 
  2  -1.320609273  1 
  2  -0.563930450  2 
  2   0.202465902  3 
  2  -0.495003944  4 
  2  -0.678724187  5 
  2   0.292719335  6 

  ---------------------------------- Cycle 0 -----------------------------------


  ==> Diagonalizing the Hamiltonian in the P space <==

  Initial P space dimension: 40
  Spin-complete dimension of the P space: 40 determinants

  ==> Computing Coupling Lists <==
  --------------------------------
        α          0.000085 s
        β          0.000085 s
        αα         0.000140 s
        ββ         0.000225 s
        αβ         0.000365 s
  --------------------------------

  Davidson-Liu solver algorithm using SigmaVectorSparseList sigma algorithm

  Performing diagonalization of the H matrix
  Found 16 roots with 2S+1 = 1 *
  Found 20 roots with 2S+1 = 3
  Found 4 roots with 2S+1 = 5
  Time spent diagonalizing H:   0.001430 s

    P-space  CI Energy Root   0        = -55.736573542196 Eh =   0.0000 eV, S^2 = 0.000000


  ==> Finding the Q space <==

  Using SR screening algorithm
  Time spent forming F space:             0.000196
  Time spent merging thread F spaces:             0.000005
  size of hash: 0
  Time spent building sorting list: 0.000003
  Size of F space: 0
  Time spent building the model space: 0.000231
  Spin-complete dimension of the PQ space: 40

  ==> Diagonalizing the Hamiltonian in the P + Q space <==

  Number of reference roots: 1

  ==> Computing Coupling Lists <==
  --------------------------------
        α          0.000086 s
        β          0.000086 s
        αα         0.000135 s
        ββ         0.000133 s
        αβ         0.000343 s
  --------------------------------

  Davidson-Liu solver algorithm using SigmaVectorSparseList sigma algorithm

  Performing diagonalization of the H matrix
  Found 16 roots with 2S+1 = 1 *
  Found 20 roots with 2S+1 = 3
  Found 4 roots with 2S+1 = 5
  Total time spent diagonalizing H:   0.001257 s

    PQ-space CI Energy Root   0        = -55.736573542196 Eh =   0.0000 eV, S^2 = 0.000000
    PQ-space CI Energy + EPT2 Root   0 = -55.736573542196 Eh =   0.0000 eV

  
  GAS Contribution Analysis  
  GAS contributions root 0: 
  GAS1_A    GASI_B    GAS2_A    GAS2_B        Cont  
     1         0         4         5        0.499993546  
     0         1         5         4        0.499993546  
     0         0         5         5        0.000012909  

           0                  10            0.000012909  
           1                  9            0.999987091  


  ==> Pruning the Q space <==

  Cycle 0 took: 0.003321 s

  ---------------------------------- Cycle 1 -----------------------------------


  ==> Diagonalizing the Hamiltonian in the P space <==

  Initial P space dimension: 40
  Spin-complete dimension of the P space: 40 determinants

  ==> Computing Coupling Lists <==
  --------------------------------
        α          0.000086 s
        β          0.000085 s
        αα         0.000137 s
        ββ         0.000132 s
        αβ         0.000338 s
  --------------------------------

  Davidson-Liu solver algorithm using SigmaVectorSparseList sigma algorithm

  Performing diagonalization of the H matrix
  Found 16 roots with 2S+1 = 1 *
  Found 20 roots with 2S+1 = 3
  Found 4 roots with 2S+1 = 5
  Time spent diagonalizing H:   0.001275 s

    P-space  CI Energy Root   0        = -55.736573542196 Eh =   0.0000 eV, S^2 = 0.000000


  ==> Finding the Q space <==

  Using SR screening algorithm
  Time spent forming F space:             0.000192
  Time spent merging thread F spaces:             0.000005
  size of hash: 0
  Time spent building sorting list: 0.000003
  Size of F space: 0
  Time spent building the model space: 0.000226
  Spin-complete dimension of the PQ space: 40

  ==> Diagonalizing the Hamiltonian in the P + Q space <==

  Number of reference roots: 1

  ==> Computing Coupling Lists <==
  --------------------------------
        α          0.000086 s
        β          0.000085 s
        αα         0.000136 s
        ββ         0.000134 s
        αβ         0.000340 s
  --------------------------------

  Davidson-Liu solver algorithm using SigmaVectorSparseList sigma algorithm

  Performing diagonalization of the H matrix
  Found 16 roots with 2S+1 = 1 *
  Found 20 roots with 2S+1 = 3
  Found 4 roots with 2S+1 = 5
  Total time spent diagonalizing H:   0.001341 s

    PQ-space CI Energy Root   0        = -55.736573542196 Eh =   0.0000 eV, S^2 = 0.000000
    PQ-space CI Energy + EPT2 Root   0 = -55.736573542196 Eh =   0.0000 eV

  
  GAS Contribution Analysis  
  GAS contributions root 0: 
  GAS1_A    GASI_B    GAS2_A    GAS2_B        Cont  
     1         0         4         5        0.499993546  
     0         1         5         4        0.499993546  
     0         0         5         5        0.000012909  

           0                  10            0.000012909  
           1                  9            0.999987091  

  ***** Calculation Converged *****

  ==> ACI Natural Orbitals <==


  ==> Computing Coupling Lists <==
  --------------------------------
        α          0.000084 s
        β          0.000082 s
        1A1     1.999968      2A1     1.999948      1B2     1.998555  
        3A1     1.500726      1B1     1.000000      4A1     0.999981  
        2B2     0.500822  

  ==> Excited state solver summary <==

  Iterations required:                         1
  Dimension of optimized determinant space:    40

  * Selected-CI Energy Root   0        = -55.736573542196 Eh =   0.0000 eV
  * Selected-CI Energy Root   0 + EPT2 = -55.736573542196 Eh =   0.0000 eV

  ==> Wavefunction Information <==

  Most important contributions to root   0:
    0  -0.545943 0.298053330          39 |+222-20>
    1  -0.545943 0.298053330          38 |-222+20>
    2  -0.324214 0.105114600          37 |+220-22>
    3  -0.324214 0.105114600          36 |-220+22>
    4  -0.197196 0.038886167          35 |+222--+>
    5  -0.197196 0.038886167          34 |-222++->
    6  -0.189205 0.035798400          33 |-222+-+>
    7  -0.189205 0.035798400          32 |+222-+->
    8   0.084142 0.007079864          31 |+2-+-22>
    9   0.084142 0.007079864          30 |-2+-+22>

  Saving information for root: 0

  ==> Energy Summary <==

    Multi.(2ms)  Irrep.  No.               Energy
    ---------------------------------------------
       1  (  0)    A1     0      -75.992030962486
    ---------------------------------------------
       1  (  0)    B1     0      -55.736573542196
    ---------------------------------------------

  ==> Computing Coupling Lists <==
  --------------------------------
        α          0.000000 s
        β          0.000000 s
        αα         0.000000 s
        ββ         0.000000 s
        αβ         0.000000 s
  --------------------------------

  ==> Computing Coupling Lists <==
  --------------------------------
        α          0.000255 s
        β          0.000314 s
  1-RDM  took 0.000996 s (determinant)
        αα         0.000393 s
        ββ         0.000387 s
        αβ         0.001338 s
  --------------------------------
  2-RDMS took 0.002689 s (determinant)

  ==> Computing Coupling Lists <==
  --------------------------------
        α          0.000000 s
        β          0.000000 s
        αα         0.000000 s
        ββ         0.000000 s
        αβ         0.000000 s
  --------------------------------

  ==> Computing Coupling Lists <==
  --------------------------------
        α          0.000087 s
        β          0.000156 s
  1-RDM  took 0.000376 s (determinant)
        αα         0.000132 s
        ββ         0.000130 s
        αβ         0.000339 s
  --------------------------------
  2-RDMS took 0.000784 s (determinant)

 CAS took 0.039827 seconds.

 FormFockIntermediates took 0.00073963 s.

 FormOrbitalGradient took 0.00013333 s.

 FormDiagHessian took 0.00016460 s.

 Update function takes 0.00105668 s
    3 0.007513732549    -0.028373460672   -65.864302252341    0.0 s       ~

  Transform Integrals takes 0.00582021 s.

  Performing a CAS with ACI

  ==> Summary of Active Space Solver Input <==

    Irrep.  Multi.(2ms)      N
    --------------------------
       A1      1  (  0)      1
       B1      1  (  0)      1
    --------------------------
    N: number of roots
    ms: spin z component
    Total number of roots:   2
    --------------------------


-------------------------------------------------------------------------------
               Selected Configuration Interaction Excited States
  written by Jeffrey B. Schriber, Tianyuan Zhang and Francesco A. Evangelista
-------------------------------------------------------------------------------

  ==> Reference Information <==

  ==> Calculation Information <==

  -----------------------------------------------------------------
    Multiplicity                             1    
    Symmetry                                 0    
    Number of roots                          1    
    Ms                                       0
    Excited Algorithm                        NONE
  -----------------------------------------------------------------
  Using 1 threads
  Computing wavefunction for root 0

        ---------------------------------------------------------------
                      Adaptive Configuration Interaction
          written by Jeffrey B. Schriber and Francesco A. Evangelista
        ---------------------------------------------------------------

  ==> Reference Information <==

  There are 0 frozen orbitals.
  There are 7 active orbitals.

  ==> Calculation Information <==

  -----------------------------------------------------------------
    Multiplicity                             1    
    Symmetry                                 0    
    Number of roots                          1    
    Root used for properties                 0    
    Sigma (Eh)                               0.00e+00
    Gamma (Eh^(-1))                          1.00e+00
    Convergence threshold                    1.00e-09
    Ms                                       0
    Diagonalization algorithm                SPARSE
    Excited Algorithm                        NONE
    Project out spin contaminants            True
    Enforce spin completeness of basis       True
    Enforce complete aimed selection         True
  -----------------------------------------------------------------
  Number of active alpha electrons: 5
  Number of active beta electrons: 5
  Maximum reference space size: 1000
  The maximum number of electrons in GAS1 is 2
  The minimum number of electrons in GAS1 is 0
  The maximum number of electrons in GAS2 is 10 
  The minimum number of electrons in GAS2 is 0
  
  Possible electron occupations in the GAS 
  GAS1_A  GAS1_B  GAS2_A  GAS2_B  
     1       1       4       4    
     1       0       4       5    
     0       1       5       4    
     0       0       5       5    

  GAS Orbital Energies
  GAS   Energies    Orb 
  1  -20.568999574  0 
  2  -1.320609273  1 
  2  -0.563930450  2 
  2   0.202465902  3 
  2  -0.495003944  4 
  2  -0.678724187  5 
  2   0.292719335  6 

  ---------------------------------- Cycle 0 -----------------------------------


  ==> Diagonalizing the Hamiltonian in the P space <==

  Initial P space dimension: 133
  Spin-complete dimension of the P space: 133 determinants

  ==> Computing Coupling Lists <==
  --------------------------------
        α          0.000257 s
        β          0.000260 s
        αα         0.000385 s
        ββ         0.000380 s
        αβ         0.000954 s
[...]
    max(T2)                        =      0.294980226433804
    ||T1||                         =      0.265976955163312
    ||T2||                         =      2.741227434480236

  Energy took      0.086 s


  ==> De-Normal-Order DSRG Transformed Hamiltonian <==

    Computing the scalar term                ... Done. Timing    0.000 s
    Computing the 1-body term                ... Done. Timing    0.000 s

  ==> Rotate DSRG Transformed Hamiltonian back to Original Basis <==

    Rotating 1-body term to original basis   ... Done. Timing    0.000 s
    Rotating 2-body term to original basis   ... Done. Timing    0.003 s

  ==> Summary of Active Space Solver Input <==

    Irrep.  Multi.(2ms)      N
    --------------------------
       A1      1  (  0)      1
       B1      1  (  0)      1
    --------------------------
    N: number of roots
    ms: spin z component
    Total number of roots:   2
    --------------------------


-------------------------------------------------------------------------------
               Selected Configuration Interaction Excited States
  written by Jeffrey B. Schriber, Tianyuan Zhang and Francesco A. Evangelista
-------------------------------------------------------------------------------

  ==> Reference Information <==

  ==> Calculation Information <==

  -----------------------------------------------------------------
    Multiplicity                             1    
    Symmetry                                 0    
    Number of roots                          1    
    Ms                                       0
    Excited Algorithm                        NONE
  -----------------------------------------------------------------
  Using 1 threads
  Computing wavefunction for root 0

        ---------------------------------------------------------------
                      Adaptive Configuration Interaction
          written by Jeffrey B. Schriber and Francesco A. Evangelista
        ---------------------------------------------------------------

  ==> Reference Information <==

  There are 0 frozen orbitals.
  There are 7 active orbitals.

  ==> Calculation Information <==

  -----------------------------------------------------------------
    Multiplicity                             1    
    Symmetry                                 0    
    Number of roots                          1    
    Root used for properties                 0    
    Sigma (Eh)                               0.00e+00
    Gamma (Eh^(-1))                          1.00e+00
    Convergence threshold                    1.00e-09
    Ms                                       0
    Diagonalization algorithm                SPARSE
    Excited Algorithm                        NONE
    Project out spin contaminants            True
    Enforce spin completeness of basis       True
    Enforce complete aimed selection         True
  -----------------------------------------------------------------
  Number of active alpha electrons: 5
  Number of active beta electrons: 5
  Maximum reference space size: 1000
  The maximum number of electrons in GAS1 is 2
  The minimum number of electrons in GAS1 is 0
  The maximum number of electrons in GAS2 is 10 
  The minimum number of electrons in GAS2 is 0
  
  Possible electron occupations in the GAS 
  GAS1_A  GAS1_B  GAS2_A  GAS2_B  
     1       1       4       4    
     1       0       4       5    
     0       1       5       4    
     0       0       5       5    

  GAS Orbital Energies
  GAS   Energies    Orb 
  1  -20.568999574  0 
  2  -1.320609273  1 
  2  -0.563930450  2 
  2   0.202465902  3 
  2  -0.495003944  4 
  2  -0.678724187  5 
  2   0.292719335  6 

  ---------------------------------- Cycle 0 -----------------------------------


  ==> Diagonalizing the Hamiltonian in the P space <==

  Initial P space dimension: 133
  Spin-complete dimension of the P space: 133 determinants

  ==> Computing Coupling Lists <==
  --------------------------------
        α          0.000264 s
        β          0.000264 s
        αα         0.000404 s
        ββ         0.000401 s
        αβ         0.001006 s
  --------------------------------

  Davidson-Liu solver algorithm using SigmaVectorSparseList sigma algorithm

  Performing diagonalization of the H matrix
  Found 70 roots with 2S+1 = 1 *
  Found 56 roots with 2S+1 = 3
  Found 7 roots with 2S+1 = 5
  Time spent diagonalizing H:   0.005646 s

    P-space  CI Energy Root   0        = -76.189339598469 Eh =   0.0000 eV, S^2 = -0.000000


  ==> Finding the Q space <==

  Using SR screening algorithm
  Time spent forming F space:             0.000752
  Time spent merging thread F spaces:             0.000017
  size of hash: 0
  Time spent building sorting list: 0.000004
  Size of F space: 0
  Time spent building the model space: 0.000818
  Spin-complete dimension of the PQ space: 133

  ==> Diagonalizing the Hamiltonian in the P + Q space <==

  Number of reference roots: 1

  ==> Computing Coupling Lists <==
  --------------------------------
        α          0.000243 s
        β          0.000249 s
        αα         0.000391 s
        ββ         0.000389 s
        αβ         0.000990 s
  --------------------------------

  Davidson-Liu solver algorithm using SigmaVectorSparseList sigma algorithm

  Performing diagonalization of the H matrix
  Found 70 roots with 2S+1 = 1 *
  Found 56 roots with 2S+1 = 3
  Found 7 roots with 2S+1 = 5
  Total time spent diagonalizing H:   0.005499 s

    PQ-space CI Energy Root   0        = -76.189339598469 Eh =   0.0000 eV, S^2 = -0.000000
    PQ-space CI Energy + EPT2 Root   0 = -76.189339598469 Eh =   0.0000 eV

  
  GAS Contribution Analysis  
  GAS contributions root 0: 
  GAS1_A    GASI_B    GAS2_A    GAS2_B        Cont  
     1         1         4         4        0.999995351  
     1         0         4         5        0.000001808  
     0         1         5         4        0.000001808  
     0         0         5         5        0.000001032  

           0                  10            0.000001032  
           1                  9            0.000003616  
           2                  8            0.999995351  


  ==> Pruning the Q space <==

  Cycle 0 took: 0.012889 s

  ---------------------------------- Cycle 1 -----------------------------------


  ==> Diagonalizing the Hamiltonian in the P space <==

  Initial P space dimension: 133
  Spin-complete dimension of the P space: 133 determinants

  ==> Computing Coupling Lists <==
  --------------------------------
        α          0.000247 s
        β          0.000250 s
        αα         0.000389 s
        ββ         0.000392 s
        αβ         0.000985 s
  --------------------------------

  Davidson-Liu solver algorithm using SigmaVectorSparseList sigma algorithm

  Performing diagonalization of the H matrix
  Found 70 roots with 2S+1 = 1 *
  Found 56 roots with 2S+1 = 3
  Found 7 roots with 2S+1 = 5
  Time spent diagonalizing H:   0.005322 s

    P-space  CI Energy Root   0        = -76.189339598469 Eh =   0.0000 eV, S^2 = 0.000000


  ==> Finding the Q space <==

  Using SR screening algorithm
  Time spent forming F space:             0.000787
  Time spent merging thread F spaces:             0.000017
  size of hash: 0
  Time spent building sorting list: 0.000004
  Size of F space: 0
  Time spent building the model space: 0.000852
  Spin-complete dimension of the PQ space: 133

  ==> Diagonalizing the Hamiltonian in the P + Q space <==

  Number of reference roots: 1

  ==> Computing Coupling Lists <==
  --------------------------------
        α          0.000247 s
        β          0.000254 s
        αα         0.000397 s
        ββ         0.000395 s
        αβ         0.000994 s
  --------------------------------

  Davidson-Liu solver algorithm using SigmaVectorSparseList sigma algorithm

  Performing diagonalization of the H matrix
  Found 70 roots with 2S+1 = 1 *
  Found 56 roots with 2S+1 = 3
  Found 7 roots with 2S+1 = 5
  Total time spent diagonalizing H:   0.005677 s

    PQ-space CI Energy Root   0        = -76.189339598469 Eh =   0.0000 eV, S^2 = 0.000000
    PQ-space CI Energy + EPT2 Root   0 = -76.189339598469 Eh =   0.0000 eV

  
  GAS Contribution Analysis  
  GAS contributions root 0: 
  GAS1_A    GASI_B    GAS2_A    GAS2_B        Cont  
     1         1         4         4        0.999995351  
     1         0         4         5        0.000001808  
     0         1         5         4        0.000001808  
     0         0         5         5        0.000001032  

           0                  10            0.000001032  
           1                  9            0.000003616  
           2                  8            0.999995351  

  ***** Calculation Converged *****

  ==> ACI Natural Orbitals <==


  ==> Computing Coupling Lists <==
  --------------------------------
        α          0.000256 s
        β          0.000264 s
        1A1     1.999997      1B1     1.998138      2A1     1.997938  
        3A1     1.979375      1B2     1.978838      4A1     0.023075  
        2B2     0.022638  

  ==> Excited state solver summary <==

  Iterations required:                         1
  Dimension of optimized determinant space:    133

  * Selected-CI Energy Root   0        = -76.189339598469 Eh =   0.0000 eV
  * Selected-CI Energy Root   0 + EPT2 = -76.189339598469 Eh =   0.0000 eV

  ==> Wavefunction Information <==

  Most important contributions to root   0:
    0   0.986136 0.972464045         132 |2220220>
    1  -0.073565 0.005411765         131 |2220202>
    2  -0.050324 0.002532485         130 |2202220>
    3   0.045557 0.002075439         129 |22-+220>
    4   0.045557 0.002075439         128 |22+-220>
    5   0.040897 0.001672573         127 |22-+2+->
    6   0.040897 0.001672573         126 |22+-2-+>
    7  -0.034939 0.001220703         125 |2200222>
    8  -0.033009 0.001089614         124 |2222200>
    9  -0.031751 0.001008135         123 |2-+2220>

  Saving information for root: 0

-------------------------------------------------------------------------------
               Selected Configuration Interaction Excited States
  written by Jeffrey B. Schriber, Tianyuan Zhang and Francesco A. Evangelista
-------------------------------------------------------------------------------

  ==> Reference Information <==

  ==> Calculation Information <==

  -----------------------------------------------------------------
    Multiplicity                             1    
    Symmetry                                 2    
    Number of roots                          1    
    Ms                                       0
    Excited Algorithm                        NONE
  -----------------------------------------------------------------
  Using 1 threads
  Computing wavefunction for root 0

        ---------------------------------------------------------------
                      Adaptive Configuration Interaction
          written by Jeffrey B. Schriber and Francesco A. Evangelista
        ---------------------------------------------------------------

  ==> Reference Information <==

  There are 0 frozen orbitals.
  There are 7 active orbitals.

  ==> Calculation Information <==

  -----------------------------------------------------------------
    Multiplicity                             1    
    Symmetry                                 2    
    Number of roots                          1    
    Root used for properties                 0    
    Sigma (Eh)                               0.00e+00
    Gamma (Eh^(-1))                          1.00e+00
    Convergence threshold                    1.00e-09
    Ms                                       0
    Diagonalization algorithm                SPARSE
    Excited Algorithm                        NONE
    Project out spin contaminants            True
    Enforce spin completeness of basis       True
    Enforce complete aimed selection         True
  -----------------------------------------------------------------
  Number of active alpha electrons: 5
  Number of active beta electrons: 5
  Maximum reference space size: 1000
  The maximum number of electrons in GAS1 is 1
  The minimum number of electrons in GAS1 is 0
  The maximum number of electrons in GAS2 is 10 
  The minimum number of electrons in GAS2 is 0
  
  Possible electron occupations in the GAS 
  GAS1_A  GAS1_B  GAS2_A  GAS2_B  
     1       0       4       5    
     0       1       5       4    
     0       0       5       5    

  GAS Orbital Energies
  GAS   Energies    Orb 
  1  -20.568999574  0 
  2  -1.320609273  1 
  2  -0.563930450  2 
  2   0.202465902  3 
  2  -0.495003944  4 
  2  -0.678724187  5 
  2   0.292719335  6 

  ---------------------------------- Cycle 0 -----------------------------------


  ==> Diagonalizing the Hamiltonian in the P space <==

  Initial P space dimension: 40
  Spin-complete dimension of the P space: 40 determinants

  ==> Computing Coupling Lists <==
  --------------------------------
        α          0.000079 s
        β          0.000081 s
        αα         0.000171 s
        ββ         0.000132 s
        αβ         0.000350 s
  --------------------------------

  Davidson-Liu solver algorithm using SigmaVectorSparseList sigma algorithm

  Performing diagonalization of the H matrix
  Found 16 roots with 2S+1 = 1 *
  Found 20 roots with 2S+1 = 3
  Found 4 roots with 2S+1 = 5
  Time spent diagonalizing H:   0.001322 s

    P-space  CI Energy Root   0        = -55.982167626096 Eh =   0.0000 eV, S^2 = 0.000000


  ==> Finding the Q space <==

  Using SR screening algorithm
  Time spent forming F space:             0.000188
  Time spent merging thread F spaces:             0.000006
  size of hash: 0
  Time spent building sorting list: 0.000005
  Size of F space: 0
  Time spent building the model space: 0.000229
  Spin-complete dimension of the PQ space: 40

  ==> Diagonalizing the Hamiltonian in the P + Q space <==

  Number of reference roots: 1

  ==> Computing Coupling Lists <==
  --------------------------------
        α          0.000081 s
        β          0.000082 s
        αα         0.000130 s
        ββ         0.000131 s
        αβ         0.000345 s
  --------------------------------

  Davidson-Liu solver algorithm using SigmaVectorSparseList sigma algorithm

  Performing diagonalization of the H matrix
  Found 16 roots with 2S+1 = 1 *
  Found 20 roots with 2S+1 = 3
  Found 4 roots with 2S+1 = 5
  Total time spent diagonalizing H:   0.001274 s

    PQ-space CI Energy Root   0        = -55.982167626096 Eh =   0.0000 eV, S^2 = 0.000000
    PQ-space CI Energy + EPT2 Root   0 = -55.982167626096 Eh =   0.0000 eV

  
  GAS Contribution Analysis  
  GAS contributions root 0: 
  GAS1_A    GASI_B    GAS2_A    GAS2_B        Cont  
     1         0         4         5        0.499993649  
     0         1         5         4        0.499993649  
     0         0         5         5        0.000012701  

           0                  10            0.000012701  
           1                  9            0.999987299  


  ==> Pruning the Q space <==

  Cycle 0 took: 0.003236 s

  ---------------------------------- Cycle 1 -----------------------------------


  ==> Diagonalizing the Hamiltonian in the P space <==

  Initial P space dimension: 40
  Spin-complete dimension of the P space: 40 determinants

  ==> Computing Coupling Lists <==
  --------------------------------
        α          0.000078 s
        β          0.000079 s
        αα         0.000132 s
        ββ         0.000131 s
        αβ         0.000344 s
  --------------------------------

  Davidson-Liu solver algorithm using SigmaVectorSparseList sigma algorithm

  Performing diagonalization of the H matrix
  Found 16 roots with 2S+1 = 1 *
  Found 20 roots with 2S+1 = 3
  Found 4 roots with 2S+1 = 5
  Time spent diagonalizing H:   0.001283 s

    P-space  CI Energy Root   0        = -55.982167626096 Eh =   0.0000 eV, S^2 = 0.000000


  ==> Finding the Q space <==

  Using SR screening algorithm
  Time spent forming F space:             0.000199
  Time spent merging thread F spaces:             0.000006
  size of hash: 0
  Time spent building sorting list: 0.000004
  Size of F space: 0
  Time spent building the model space: 0.000241
  Spin-complete dimension of the PQ space: 40

  ==> Diagonalizing the Hamiltonian in the P + Q space <==

  Number of reference roots: 1

  ==> Computing Coupling Lists <==
  --------------------------------
        α          0.000079 s
        β          0.000080 s
        αα         0.000134 s
        ββ         0.000134 s
        αβ         0.000349 s
  --------------------------------

  Davidson-Liu solver algorithm using SigmaVectorSparseList sigma algorithm

  Performing diagonalization of the H matrix
  Found 16 roots with 2S+1 = 1 *
  Found 20 roots with 2S+1 = 3
  Found 4 roots with 2S+1 = 5
  Total time spent diagonalizing H:   0.001297 s

    PQ-space CI Energy Root   0        = -55.982167626096 Eh =   0.0000 eV, S^2 = 0.000000
    PQ-space CI Energy + EPT2 Root   0 = -55.982167626096 Eh =   0.0000 eV

  
  GAS Contribution Analysis  
  GAS contributions root 0: 
  GAS1_A    GASI_B    GAS2_A    GAS2_B        Cont  
     1         0         4         5        0.499993649  
     0         1         5         4        0.499993649  
     0         0         5         5        0.000012701  

           0                  10            0.000012701  
           1                  9            0.999987299  

  ***** Calculation Converged *****

  ==> ACI Natural Orbitals <==


  ==> Computing Coupling Lists <==
  --------------------------------
        α          0.000080 s
        β          0.000082 s
        1A1     1.999984      2A1     1.999857      1B2     1.998497  
        3A1     1.636589      1B1     1.000000      4A1     0.999984  
        2B2     0.365089  

  ==> Excited state solver summary <==

  Iterations required:                         1
  Dimension of optimized determinant space:    40

  * Selected-CI Energy Root   0        = -55.982167626096 Eh =   0.0000 eV
  * Selected-CI Energy Root   0 + EPT2 = -55.982167626096 Eh =   0.0000 eV

  ==> Wavefunction Information <==

  Most important contributions to root   0:
    0  -0.591494 0.349865190          39 |+222-20>
    1  -0.591494 0.349865190          38 |-222+20>
    2  -0.276288 0.076334877          37 |+220-22>
    3  -0.276288 0.076334877          36 |-220+22>
    4  -0.175981 0.030969181          35 |+222--+>
    5  -0.175981 0.030969181          34 |-222++->
    6  -0.164895 0.027190463          33 |-222+-+>
    7  -0.164895 0.027190463          32 |+222-+->
    8   0.073169 0.005353656          31 |+2-+-22>
    9   0.073169 0.005353656          30 |-2+-+22>

  Saving information for root: 0

  ==> Energy Summary <==

    Multi.(2ms)  Irrep.  No.               Energy
    ---------------------------------------------
       1  (  0)    A1     0      -76.189339598469
    ---------------------------------------------
       1  (  0)    B1     0      -55.982167626096
    ---------------------------------------------

  ==> Total Timings (s) for Computing Commutators <==

             [H1, T1]    [H1, T2]    [H2, T1]    [H2, T2]
    -----------------------------------------------------
    -> C0       0.000       0.001       0.002       0.062
    -> C1       0.000       0.003       0.003       0.052
    -> C2                   0.003       0.003       0.022
    -----------------------------------------------------


  Time to prepare integrals:        0.055 seconds
  Time to run job          :        0.575 seconds
  Total                    :        0.575 seconds    GASSCF-DSRG-MRPT2 energy..............................................................PASSED

    Psi4 stopped on: Tuesday, 27 October 2020 12:56AM
    Psi4 wall time for execution: 0:00:01.83

*** Psi4 exiting successfully. Buy a developer a beer!
