
    -----------------------------------------------------------------------
          Psi4: An Open-Source Ab Initio Electronic Structure Package
                               Psi4 undefined 

                         Git: Rev {master} e512d40 


    R. M. Parrish, L. A. Burns, D. G. A. Smith, A. C. Simmonett,
    A. E. DePrince III, E. G. Hohenstein, U. Bozkaya, A. Yu. Sokolov,
    R. Di Remigio, R. M. Richard, J. F. Gonthier, A. M. James,
    H. R. McAlexander, A. Kumar, M. Saitow, X. Wang, B. P. Pritchard,
    P. Verma, H. F. Schaefer III, K. Patkowski, R. A. King, E. F. Valeev,
    F. A. Evangelista, J. M. Turney, T. D. Crawford, and C. D. Sherrill,
    J. Chem. Theory Comput. 13(7) pp 3185--3197 (2017).
    (doi: 10.1021/acs.jctc.7b00174)


                         Additional Contributions by
    P. Kraus, H. Kruse, M. H. Lechner, M. C. Schieber, R. A. Shaw,
    A. Alenaizan, R. Galvelis, Z. L. Glick, S. Lehtola, and J. P. Misiewicz

    -----------------------------------------------------------------------


    Psi4 started on: Tuesday, 30 July 2019 03:54PM

    Process ID: 2984
    Host:       CHE-FEVANGE-01I (2)
    PSIDATADIR: /Users/fevange/Source/psi4/objdir-Debug/stage/share/psi4
    Memory:     500.0 MiB
    Threads:    1
    
  ==> Input File <==

--------------------------------------------------------------------------
#! Generated using commit GITCOMMIT
#! Perform aci on benzyne 

import forte

memory 500 mb

refscf    = -229.20378006852584 
refaci    = -229.359450812283
refacipt2 = -229.360444943286

molecule mbenzyne{
  0 1
   C   0.0000000000  -2.5451795941   0.0000000000
   C   0.0000000000   2.5451795941   0.0000000000
   C  -2.2828001669  -1.3508352528   0.0000000000
   C   2.2828001669  -1.3508352528   0.0000000000
   C   2.2828001669   1.3508352528   0.0000000000
   C  -2.2828001669   1.3508352528   0.0000000000
   H  -4.0782187459  -2.3208602146   0.0000000000
   H   4.0782187459  -2.3208602146   0.0000000000
   H   4.0782187459   2.3208602146   0.0000000000
   H  -4.0782187459   2.3208602146   0.0000000000

  units bohr
}

set globals{
   basis                   DZ
   df_basis_mp2            cc-pvdz-ri
   reference               uhf 
   scf_type                pk
   d_convergence           10
   e_convergence           12
   guess gwh
}

set forte {
  multiplicity 1
  frozen_docc                       [2,1,0,0,0,0,2,1]
  restricted_docc	                  [3,2,0,0,0,0,2,3]
  active                            [1,0,1,2,1,2,1,0]
  root_sym                          0
  nroot                             1
  active_space_solver               aci
  sigma	                            0.001
  aci_add_aimed_degenerate          false
  sci_project_out_spin_contaminants false
  diag_algorithm                    full
  aci_batched_screening             true
  aci_nbatch                        8
  active_guess_size                 100
}
set_num_threads(4)

scf = energy('scf')
compare_values(refscf, scf,10,"SCF Energy")

energy('forte')
compare_values(refaci, variable("ACI ENERGY"),10,"ACI energy")
compare_values(refacipt2, variable("ACI+PT2 ENERGY"),8,"ACI+PT2 energy")


--------------------------------------------------------------------------

  Memory set to 476.837 MiB by Python driver.
  Python driver attempted to set threads to 4.
  Psi4 was compiled without OpenMP, setting threads to 1.

*** tstart() called on CHE-FEVANGE-01I (2)
*** at Tue Jul 30 15:54:24 2019

   => Loading Basis Set <=

    Name: DZ
    Role: ORBITAL
    Keyword: BASIS
    atoms 1-6  entry C          line    63 file /Users/fevange/Source/psi4/objdir-Debug/stage/share/psi4/basis/dz.gbs 
    atoms 7-10 entry H          line    12 file /Users/fevange/Source/psi4/objdir-Debug/stage/share/psi4/basis/dz.gbs 


         ---------------------------------------------------------
                                   SCF
               by Justin Turney, Rob Parrish, Andy Simmonett
                          and Daniel G. A. Smith
                              UHF Reference
                        1 Threads,    476 MiB Core
         ---------------------------------------------------------

  ==> Geometry <==

    Molecular point group: d2h
    Full point group: D2h

    Geometry (in Bohr), charge = 0, multiplicity = 1:

       Center              X                  Y                   Z               Mass       
    ------------   -----------------  -----------------  -----------------  -----------------
         C            0.000000000000    -2.545179594100     0.000000000000    12.000000000000
         C           -0.000000000000     2.545179594100     0.000000000000    12.000000000000
         C           -2.282800166900    -1.350835252800     0.000000000000    12.000000000000
         C            2.282800166900    -1.350835252800     0.000000000000    12.000000000000
         C            2.282800166900     1.350835252800     0.000000000000    12.000000000000
         C           -2.282800166900     1.350835252800     0.000000000000    12.000000000000
         H           -4.078218745900    -2.320860214600     0.000000000000     1.007825032230
         H            4.078218745900    -2.320860214600     0.000000000000     1.007825032230
         H            4.078218745900     2.320860214600     0.000000000000     1.007825032230
         H           -4.078218745900     2.320860214600     0.000000000000     1.007825032230

  Running in d2h symmetry.

  Rotational constants: A =      0.22736  B =      0.18979  C =      0.10344 [cm^-1]
  Rotational constants: A =   6816.18331  B =   5689.87778  C =   3101.15628 [MHz]
  Nuclear repulsion =  186.022640325180561

  Charge       = 0
  Multiplicity = 1
  Electrons    = 40
  Nalpha       = 20
  Nbeta        = 20

  ==> Algorithm <==

  SCF Algorithm Type is PK.
  DIIS enabled.
  MOM disabled.
  Fractional occupation disabled.
  Guess Type is GWH.
  Energy threshold   = 1.00e-12
  Density threshold  = 1.00e-10
  Integral threshold = 0.00e+00

  ==> Primary Basis <==

  Basis Set: DZ
    Blend: DZ
    Number of shells: 44
    Number of basis function: 68
    Number of Cartesian functions: 68
    Spherical Harmonics?: false
    Max angular momentum: 1

  ==> Pre-Iterations <==

   -------------------------------------------------------
    Irrep   Nso     Nmo     Nalpha   Nbeta   Ndocc  Nsocc
   -------------------------------------------------------
     Ag        16      16       0       0       0       0
     B1g       12      12       0       0       0       0
     B2g        2       2       0       0       0       0
     B3g        4       4       0       0       0       0
     Au         2       2       0       0       0       0
     B1u        4       4       0       0       0       0
     B2u       16      16       0       0       0       0
     B3u       12      12       0       0       0       0
   -------------------------------------------------------
    Total      68      68      20      20      20       0
   -------------------------------------------------------

  ==> Integral Setup <==

  Using in-core PK algorithm.
   Calculation information:
      Number of atoms:                  10
      Number of AO shells:              44
      Number of primitives:            100
      Number of atomic orbitals:        68
      Number of basis functions:        68

      Integral cutoff                 1.00e-12
      Number of threads:                 1

  Performing in-core PK
  Using 5506062 doubles for integral storage.
  We computed 444486 shell quartets total.
  Whereas there are 490545 unique shell quartets.

  ==> DiskJK: Disk-Based J/K Matrices <==

    J tasked:                  Yes
    K tasked:                  Yes
    wK tasked:                  No
    Memory [MiB]:              357
    Schwarz Cutoff:          1E-12

    OpenMP threads:              1

  Minimum eigenvalue in the overlap matrix is 1.2357549023E-03.
  Using Symmetric Orthogonalization.

  SCF Guess: Generalized Wolfsberg-Helmholtz.

  ==> Iterations <==

                        Total Energy        Delta E     RMS |[F,P]|

    Occupation by irrep:
             Ag   B1g   B2g   B3g    Au   B1u   B2u   B3u 
    DOCC [     5,    3,    1,    1,    0,    1,    5,    4 ]
    SOCC [     0,    0,    0,    0,    0,    0,    0,    0 ]

   @UHF iter   1:  -222.73886988260335   -2.22739e+02   1.51240e-01 DIIS
   @UHF iter   2:  -228.94916670333717   -6.21030e+00   1.96397e-02 DIIS
   @UHF iter   3:  -229.17461926724087   -2.25453e-01   7.45007e-03 DIIS
   @UHF iter   4:  -229.20266252706182   -2.80433e-02   1.25838e-03 DIIS
   @UHF iter   5:  -229.20361131103832   -9.48784e-04   4.99976e-04 DIIS
   @UHF iter   6:  -229.20376929432882   -1.57983e-04   9.56964e-05 DIIS
   @UHF iter   7:  -229.20377943149134   -1.01372e-05   1.83472e-05 DIIS
   @UHF iter   8:  -229.20378004040938   -6.08918e-07   3.76286e-06 DIIS
   @UHF iter   9:  -229.20378006754032   -2.71309e-08   7.97538e-07 DIIS
   @UHF iter  10:  -229.20378006850009   -9.59773e-10   1.59077e-07 DIIS
   @UHF iter  11:  -229.20378006852499   -2.48974e-11   1.89072e-08 DIIS
   @UHF iter  12:  -229.20378006852550   -5.11591e-13   2.04794e-09 DIIS
   @UHF iter  13:  -229.20378006852525    2.55795e-13   3.05060e-10 DIIS
   @UHF iter  14:  -229.20378006852539   -1.42109e-13   5.38408e-11 DIIS
  Energy and wave function converged.


  ==> Post-Iterations <==

   @Spin Contamination Metric:   4.263256415E-14
   @S^2 Expected:                0.000000000E+00
   @S^2 Observed:                4.263256415E-14
   @S   Expected:                0.000000000E+00
   @S   Observed:                0.000000000E+00

    Orbital Energies [Eh]
    ---------------------

    Alpha Occupied:                                                       

       1Ag   -11.287300     1B2u  -11.286763     1B3u  -11.286743  
       1B1g  -11.285798     2Ag   -11.285074     2B2u  -11.284780  
       3Ag    -1.192405     2B3u   -1.051895     3B2u   -1.029334  
       2B1g   -0.858677     4Ag    -0.815933     5Ag    -0.670466  
       4B2u   -0.660452     3B3u   -0.656412     4B3u   -0.600374  
       3B1g   -0.544475     1B1u   -0.533875     1B2g   -0.366811  
       1B3g   -0.363792     5B2u   -0.275375  

    Alpha Virtual:                                                        

       6Ag    -0.043625     1Au     0.091850     2B1u    0.135833  
       4B1g    0.279898     7Ag     0.280901     5B3u    0.305922  
       6B2u    0.320966     2B3g    0.321911     8Ag     0.334606  
       7B2u    0.368408     6B3u    0.394878     7B3u    0.429263  
       3B1u    0.456784     5B1g    0.460077     8B2u    0.471115  
       2B2g    0.516968     3B3g    0.518047     6B1g    0.524938  
       9Ag     0.542824    10Ag     0.573895     2Au     0.601354  
       4B1u    0.622181     9B2u    0.631390    11Ag     0.675079  
       7B1g    0.685754     8B3u    0.693033     4B3g    0.700054  
      10B2u    0.724636    12Ag     0.828521     8B1g    0.838317  
       9B3u    0.926991    11B2u    0.983757     9B1g    1.084158  
      10B1g    1.167689    12B2u    1.174943    13Ag     1.182021  
      10B3u    1.242380    13B2u    1.248216    14Ag     1.436682  
      11B3u    1.446256    11B1g    1.565632    14B2u    1.689435  
      15Ag    23.619164    15B2u   23.860114    12B3u   23.920263  
      12B1g   24.002140    16Ag    24.028964    16B2u   24.159455  

    Beta Occupied:                                                        

       1Ag   -11.287300     1B2u  -11.286763     1B3u  -11.286743  
       1B1g  -11.285798     2Ag   -11.285074     2B2u  -11.284780  
       3Ag    -1.192405     2B3u   -1.051895     3B2u   -1.029334  
       2B1g   -0.858677     4Ag    -0.815933     5Ag    -0.670466  
       4B2u   -0.660452     3B3u   -0.656412     4B3u   -0.600374  
       3B1g   -0.544475     1B1u   -0.533875     1B2g   -0.366811  
       1B3g   -0.363792     5B2u   -0.275375  

    Beta Virtual:                                                         

       6Ag    -0.043625     1Au     0.091850     2B1u    0.135833  
       4B1g    0.279898     7Ag     0.280901     5B3u    0.305922  
       6B2u    0.320966     2B3g    0.321911     8Ag     0.334606  
       7B2u    0.368408     6B3u    0.394878     7B3u    0.429263  
       3B1u    0.456784     5B1g    0.460077     8B2u    0.471115  
       2B2g    0.516968     3B3g    0.518047     6B1g    0.524938  
       9Ag     0.542824    10Ag     0.573895     2Au     0.601354  
       4B1u    0.622181     9B2u    0.631390    11Ag     0.675079  
       7B1g    0.685754     8B3u    0.693033     4B3g    0.700054  
      10B2u    0.724636    12Ag     0.828521     8B1g    0.838317  
       9B3u    0.926991    11B2u    0.983757     9B1g    1.084158  
      10B1g    1.167689    12B2u    1.174943    13Ag     1.182021  
      10B3u    1.242380    13B2u    1.248216    14Ag     1.436682  
      11B3u    1.446256    11B1g    1.565632    14B2u    1.689435  
      15Ag    23.619164    15B2u   23.860114    12B3u   23.920263  
      12B1g   24.002140    16Ag    24.028964    16B2u   24.159455  

    Final Occupation by Irrep:
             Ag   B1g   B2g   B3g    Au   B1u   B2u   B3u 
    DOCC [     5,    3,    1,    1,    0,    1,    5,    4 ]
    SOCC [     0,    0,    0,    0,    0,    0,    0,    0 ]

  @UHF Final Energy:  -229.20378006852539

   => Energetics <=

    Nuclear Repulsion Energy =            186.0226403251805607
    One-Electron Energy =                -675.7793704486330171
    Two-Electron Energy =                 260.5529500549270665
    Total Energy =                       -229.2037800685254183

  UHF NO Occupations:
  HONO-2 :    4B3u 2.0000000
  HONO-1 :    4 Ag 2.0000000
  HONO-0 :    5 Ag 2.0000000
  LUNO+0 :    6B2u 0.0000000
  LUNO+1 :    6 Ag 0.0000000
  LUNO+2 :    4B1g 0.0000000
  LUNO+3 :    5B3u 0.0000000


Computation Completed


Properties will be evaluated at   0.000000,   0.000000,   0.000000 [a0]

Properties computed using the SCF density matrix

  Nuclear Dipole Moment: [e a0]
     X:     0.0000      Y:     0.0000      Z:     0.0000

  Electronic Dipole Moment: [e a0]
     X:     0.0000      Y:     0.0000      Z:     0.0000

  Dipole Moment: [e a0]
     X:     0.0000      Y:     0.0000      Z:     0.0000     Total:     0.0000

  Dipole Moment: [D]
     X:     0.0000      Y:     0.0000      Z:     0.0000     Total:     0.0000


*** tstop() called on CHE-FEVANGE-01I (2) at Tue Jul 30 15:54:28 2019
Module time:
	user time   =       3.76 seconds =       0.06 minutes
	system time =       0.08 seconds =       0.00 minutes
	total time  =          4 seconds =       0.07 minutes
Total time:
	user time   =       3.76 seconds =       0.06 minutes
	system time =       0.08 seconds =       0.00 minutes
	total time  =          4 seconds =       0.07 minutes
    SCF Energy........................................................PASSED

*** tstart() called on CHE-FEVANGE-01I (2)
*** at Tue Jul 30 15:54:28 2019

   => Loading Basis Set <=

    Name: DZ
    Role: ORBITAL
    Keyword: BASIS
    atoms 1-6  entry C          line    63 file /Users/fevange/Source/psi4/objdir-Debug/stage/share/psi4/basis/dz.gbs 
    atoms 7-10 entry H          line    12 file /Users/fevange/Source/psi4/objdir-Debug/stage/share/psi4/basis/dz.gbs 


         ---------------------------------------------------------
                                   SCF
               by Justin Turney, Rob Parrish, Andy Simmonett
                          and Daniel G. A. Smith
                              UHF Reference
                        1 Threads,    476 MiB Core
         ---------------------------------------------------------

  ==> Geometry <==

    Molecular point group: d2h
    Full point group: D2h

    Geometry (in Bohr), charge = 0, multiplicity = 1:

       Center              X                  Y                   Z               Mass       
    ------------   -----------------  -----------------  -----------------  -----------------
         C            0.000000000000    -2.545179594100     0.000000000000    12.000000000000
         C           -0.000000000000     2.545179594100     0.000000000000    12.000000000000
         C           -2.282800166900    -1.350835252800     0.000000000000    12.000000000000
         C            2.282800166900    -1.350835252800     0.000000000000    12.000000000000
         C            2.282800166900     1.350835252800     0.000000000000    12.000000000000
         C           -2.282800166900     1.350835252800     0.000000000000    12.000000000000
         H           -4.078218745900    -2.320860214600     0.000000000000     1.007825032230
         H            4.078218745900    -2.320860214600     0.000000000000     1.007825032230
         H            4.078218745900     2.320860214600     0.000000000000     1.007825032230
         H           -4.078218745900     2.320860214600     0.000000000000     1.007825032230

  Running in d2h symmetry.

  Rotational constants: A =      0.22736  B =      0.18979  C =      0.10344 [cm^-1]
  Rotational constants: A =   6816.18331  B =   5689.87778  C =   3101.15628 [MHz]
  Nuclear repulsion =  186.022640325180561

  Charge       = 0
  Multiplicity = 1
  Electrons    = 40
  Nalpha       = 20
  Nbeta        = 20

  ==> Algorithm <==

  SCF Algorithm Type is PK.
  DIIS enabled.
  MOM disabled.
  Fractional occupation disabled.
  Guess Type is GWH.
  Energy threshold   = 1.00e-12
  Density threshold  = 1.00e-10
  Integral threshold = 0.00e+00

  ==> Primary Basis <==

  Basis Set: DZ
    Blend: DZ
    Number of shells: 44
    Number of basis function: 68
    Number of Cartesian functions: 68
    Spherical Harmonics?: false
    Max angular momentum: 1

  ==> Pre-Iterations <==

   -------------------------------------------------------
    Irrep   Nso     Nmo     Nalpha   Nbeta   Ndocc  Nsocc
   -------------------------------------------------------
     Ag        16      16       0       0       0       0
     B1g       12      12       0       0       0       0
     B2g        2       2       0       0       0       0
     B3g        4       4       0       0       0       0
     Au         2       2       0       0       0       0
     B1u        4       4       0       0       0       0
     B2u       16      16       0       0       0       0
     B3u       12      12       0       0       0       0
   -------------------------------------------------------
    Total      68      68      20      20      20       0
   -------------------------------------------------------

  ==> Integral Setup <==

  Using in-core PK algorithm.
   Calculation information:
      Number of atoms:                  10
      Number of AO shells:              44
      Number of primitives:            100
      Number of atomic orbitals:        68
      Number of basis functions:        68

      Integral cutoff                 1.00e-12
      Number of threads:                 1

  Performing in-core PK
  Using 5506062 doubles for integral storage.
  We computed 444486 shell quartets total.
  Whereas there are 490545 unique shell quartets.

  ==> DiskJK: Disk-Based J/K Matrices <==

    J tasked:                  Yes
    K tasked:                  Yes
    wK tasked:                  No
    Memory [MiB]:              357
    Schwarz Cutoff:          1E-12

    OpenMP threads:              1

  Minimum eigenvalue in the overlap matrix is 1.2357549023E-03.
  Using Symmetric Orthogonalization.

  SCF Guess: Generalized Wolfsberg-Helmholtz.

  ==> Iterations <==

                        Total Energy        Delta E     RMS |[F,P]|

    Occupation by irrep:
             Ag   B1g   B2g   B3g    Au   B1u   B2u   B3u 
    DOCC [     5,    3,    1,    1,    0,    1,    5,    4 ]
    SOCC [     0,    0,    0,    0,    0,    0,    0,    0 ]

   @UHF iter   1:  -222.73886988260290   -2.22739e+02   1.51240e-01 DIIS
   @UHF iter   2:  -228.94916670333751   -6.21030e+00   1.96397e-02 DIIS
   @UHF iter   3:  -229.17461926724079   -2.25453e-01   7.45007e-03 DIIS
   @UHF iter   4:  -229.20266252706207   -2.80433e-02   1.25838e-03 DIIS
   @UHF iter   5:  -229.20361131103834   -9.48784e-04   4.99976e-04 DIIS
   @UHF iter   6:  -229.20376929432919   -1.57983e-04   9.56964e-05 DIIS
   @UHF iter   7:  -229.20377943149168   -1.01372e-05   1.83472e-05 DIIS
   @UHF iter   8:  -229.20378004040930   -6.08918e-07   3.76286e-06 DIIS
   @UHF iter   9:  -229.20378006754055   -2.71313e-08   7.97538e-07 DIIS
   @UHF iter  10:  -229.20378006850041   -9.59858e-10   1.59077e-07 DIIS
   @UHF iter  11:  -229.20378006852530   -2.48974e-11   1.89072e-08 DIIS
   @UHF iter  12:  -229.20378006852565   -3.41061e-13   2.04794e-09 DIIS
   @UHF iter  13:  -229.20378006852559    5.68434e-14   3.05061e-10 DIIS
   @UHF iter  14:  -229.20378006852542    1.70530e-13   5.38374e-11 DIIS
  Energy and wave function converged.


  ==> Post-Iterations <==

   @Spin Contamination Metric:   1.065814104E-14
   @S^2 Expected:                0.000000000E+00
   @S^2 Observed:                1.065814104E-14
   @S   Expected:                0.000000000E+00
   @S   Observed:                0.000000000E+00

    Orbital Energies [Eh]
    ---------------------

    Alpha Occupied:                                                       

       1Ag   -11.287300     1B2u  -11.286763     1B3u  -11.286743  
       1B1g  -11.285798     2Ag   -11.285074     2B2u  -11.284780  
       3Ag    -1.192405     2B3u   -1.051895     3B2u   -1.029334  
       2B1g   -0.858677     4Ag    -0.815933     5Ag    -0.670466  
       4B2u   -0.660452     3B3u   -0.656412     4B3u   -0.600374  
       3B1g   -0.544475     1B1u   -0.533875     1B2g   -0.366811  
       1B3g   -0.363792     5B2u   -0.275375  

    Alpha Virtual:                                                        

       6Ag    -0.043625     1Au     0.091850     2B1u    0.135833  
       4B1g    0.279898     7Ag     0.280901     5B3u    0.305922  
       6B2u    0.320966     2B3g    0.321911     8Ag     0.334606  
       7B2u    0.368408     6B3u    0.394878     7B3u    0.429263  
       3B1u    0.456784     5B1g    0.460077     8B2u    0.471115  
       2B2g    0.516968     3B3g    0.518047     6B1g    0.524938  
       9Ag     0.542824    10Ag     0.573895     2Au     0.601354  
       4B1u    0.622181     9B2u    0.631390    11Ag     0.675079  
       7B1g    0.685754     8B3u    0.693033     4B3g    0.700054  
      10B2u    0.724636    12Ag     0.828521     8B1g    0.838317  
       9B3u    0.926991    11B2u    0.983757     9B1g    1.084158  
      10B1g    1.167689    12B2u    1.174943    13Ag     1.182021  
      10B3u    1.242380    13B2u    1.248216    14Ag     1.436682  
      11B3u    1.446256    11B1g    1.565632    14B2u    1.689435  
      15Ag    23.619164    15B2u   23.860114    12B3u   23.920263  
      12B1g   24.002140    16Ag    24.028964    16B2u   24.159455  

    Beta Occupied:                                                        

       1Ag   -11.287300     1B2u  -11.286763     1B3u  -11.286743  
       1B1g  -11.285798     2Ag   -11.285074     2B2u  -11.284780  
       3Ag    -1.192405     2B3u   -1.051895     3B2u   -1.029334  
       2B1g   -0.858677     4Ag    -0.815933     5Ag    -0.670466  
       4B2u   -0.660452     3B3u   -0.656412     4B3u   -0.600374  
       3B1g   -0.544475     1B1u   -0.533875     1B2g   -0.366811  
       1B3g   -0.363792     5B2u   -0.275375  

    Beta Virtual:                                                         

       6Ag    -0.043625     1Au     0.091850     2B1u    0.135833  
       4B1g    0.279898     7Ag     0.280901     5B3u    0.305922  
       6B2u    0.320966     2B3g    0.321911     8Ag     0.334606  
       7B2u    0.368408     6B3u    0.394878     7B3u    0.429263  
       3B1u    0.456784     5B1g    0.460077     8B2u    0.471115  
       2B2g    0.516968     3B3g    0.518047     6B1g    0.524938  
       9Ag     0.542824    10Ag     0.573895     2Au     0.601354  
       4B1u    0.622181     9B2u    0.631390    11Ag     0.675079  
       7B1g    0.685754     8B3u    0.693033     4B3g    0.700054  
      10B2u    0.724636    12Ag     0.828521     8B1g    0.838317  
       9B3u    0.926991    11B2u    0.983757     9B1g    1.084158  
      10B1g    1.167689    12B2u    1.174943    13Ag     1.182021  
      10B3u    1.242380    13B2u    1.248216    14Ag     1.436682  
      11B3u    1.446256    11B1g    1.565632    14B2u    1.689435  
      15Ag    23.619164    15B2u   23.860114    12B3u   23.920263  
      12B1g   24.002140    16Ag    24.028964    16B2u   24.159455  

    Final Occupation by Irrep:
             Ag   B1g   B2g   B3g    Au   B1u   B2u   B3u 
    DOCC [     5,    3,    1,    1,    0,    1,    5,    4 ]
    SOCC [     0,    0,    0,    0,    0,    0,    0,    0 ]

  @UHF Final Energy:  -229.20378006852542

   => Energetics <=

    Nuclear Repulsion Energy =            186.0226403251805607
    One-Electron Energy =                -675.7793704486332445
    Two-Electron Energy =                 260.5529500549272939
    Total Energy =                       -229.2037800685254183

  UHF NO Occupations:
  HONO-2 :    4B3u 2.0000000
  HONO-1 :    5 Ag 2.0000000
  HONO-0 :    5B2u 2.0000000
  LUNO+0 :    5B3u 0.0000000
  LUNO+1 :    4B1g 0.0000000
  LUNO+2 :    6 Ag 0.0000000
  LUNO+3 :    6B2u 0.0000000


Computation Completed


Properties will be evaluated at   0.000000,   0.000000,   0.000000 [a0]

Properties computed using the SCF density matrix

  Nuclear Dipole Moment: [e a0]
     X:     0.0000      Y:     0.0000      Z:     0.0000

  Electronic Dipole Moment: [e a0]
     X:     0.0000      Y:     0.0000      Z:     0.0000

  Dipole Moment: [e a0]
     X:     0.0000      Y:     0.0000      Z:     0.0000     Total:     0.0000

  Dipole Moment: [D]
     X:     0.0000      Y:     0.0000      Z:     0.0000     Total:     0.0000


*** tstop() called on CHE-FEVANGE-01I (2) at Tue Jul 30 15:54:32 2019
Module time:
	user time   =       3.88 seconds =       0.06 minutes
	system time =       0.05 seconds =       0.00 minutes
	total time  =          4 seconds =       0.07 minutes
Total time:
	user time   =       7.66 seconds =       0.13 minutes
	system time =       0.13 seconds =       0.00 minutes
	total time  =          8 seconds =       0.13 minutes
   => Loading Basis Set <=

    Name: STO-3G
    Role: ORBITAL
    Keyword: MINAO_BASIS
    atoms 1-6  entry C          line    61 file /Users/fevange/Source/psi4/objdir-Debug/stage/share/psi4/basis/sto-3g.gbs 
    atoms 7-10 entry H          line    19 file /Users/fevange/Source/psi4/objdir-Debug/stage/share/psi4/basis/sto-3g.gbs 


  Forte
  ----------------------------------------------------------------------------
  A suite of quantum chemistry methods for strongly correlated electrons

    git branch: onedet - git commit: 97fa2368

  Developed by:
    Francesco A. Evangelista, Chenyang Li, Kevin P. Hannon,
    Jeffrey B. Schriber, Tianyuan Zhang, Chenxi Cai,
    Nan He, Nicholas Stair, Shuhe Wang, Renke Huang
  ----------------------------------------------------------------------------

  Size of Determinant class: 32

  ==> MO Space Information <==

  Read options for space FROZEN_DOCC
  Read options for space RESTRICTED_DOCC
  Read options for space ACTIVE
  -------------------------------------------------------------------------
                       Ag   B1g   B2g   B3g    Au   B1u   B2u   B3u   Sum
  -------------------------------------------------------------------------
    FROZEN_DOCC         2     1     0     0     0     0     2     1     6
    RESTRICTED_DOCC     3     2     0     0     0     0     2     3    10
    ACTIVE              1     0     1     2     1     2     1     0     8
    RESTRICTED_UOCC    10     9     1     2     1     2    11     8    44
    FROZEN_UOCC         0     0     0     0     0     0     0     0     0
    Total              16    12     2     4     2     4    16    12    68
  -------------------------------------------------------------------------

  ==> Integral Transformation <==

  Number of molecular orbitals:                    68
  Number of correlated molecular orbitals:         62
  Number of frozen occupied orbitals:               6
  Number of frozen unoccupied orbitals:             0
  Two-electron integral type:              Conventional


  Overall Conventional Integrals timings

	Presorting SO-basis two-electron integrals.
	Sorting File: SO Ints (nn|nn) nbuckets = 1
	Transforming the one-electron integrals and constructing Fock matrices
	Starting first half-transformation.
	Sorting half-transformed integrals.
	First half integral transformation complete.
	Starting second half-transformation.
	Two-electron integral transformation complete.

  Integral transformation done. 0.42158347 s
  Reading the two-electron integrals from disk
  Size of two-electron integrals:   0.477911 GB  Using in-core PK algorithm.
   Calculation information:
      Number of atoms:                  10
      Number of AO shells:              44
      Number of primitives:            100
      Number of atomic orbitals:        68
      Number of basis functions:        68

      Integral cutoff                 1.00e-12
      Number of threads:                 1

  Performing in-core PK
  Using 5506062 doubles for integral storage.
  We computed 444486 shell quartets total.
  Whereas there are 490545 unique shell quartets.


  Frozen-core energy           -289.380972996875 a.u.
  Timing for frozen one-body operator:                        3.052 s.
  Resorting integrals after freezing core.
  Timing for freezing core and virtual orbitals:              4.921 s.
  Conventional integrals take 9.42222466 s

  ==> Summary of Active Space Solver Input <==

    Irrep.  Multi.  Nstates
    -------------------------
      Ag       1        1
    -------------------------
    Total number of states: 1
    -------------------------


-------------------------------------------------------------------------------
               Selected Configuration Interaction Excited States
  written by Jeffrey B. Schriber, Tianyuan Zhang and Francesco A. Evangelista
-------------------------------------------------------------------------------

  ==> Reference Information <==

  ==> Calculation Information <==

  -----------------------------------------------------------------
    Multiplicity                             1    
    Symmetry                                 0    
    Number of roots                          1    
    Ms                                       0
    Excited Algorithm                        NONE
  -----------------------------------------------------------------
  Using 1 threads
  Computing wavefunction for root 0

        ---------------------------------------------------------------
                      Adaptive Configuration Interaction
          written by Jeffrey B. Schriber and Francesco A. Evangelista
        ---------------------------------------------------------------

  ==> Reference Information <==

  There are 16 frozen orbitals.
  There are 8 active orbitals.

  ==> Calculation Information <==

  -----------------------------------------------------------------
    Multiplicity                             1    
    Symmetry                                 0    
    Number of roots                          1    
    Root used for properties                 0    
    Sigma (Eh)                               1.00e-03
    Gamma (Eh^(-1))                          1.00e+00
    Convergence threshold                    1.00e-09
    Ms                                       0
    Diagonalization algorithm                FULL
    Determinant selection criterion          Second-order Energy
    Selection criterion                      Aimed selection
    Excited Algorithm                        NONE
    Project out spin contaminants            False
    Enforce spin completeness of basis       True
    Enforce complete aimed selection         False
  -----------------------------------------------------------------
  Number of active alpha electrons: 4
  Number of active beta electrons: 4
  Maximum reference space size: 100
  Number of reference determinants: 35
  Reference generated from 7 MOs
  Using streamlined Q-space builder.

  ==> Cycle 0 <==

  Initial P space dimension: 35
  Spin-complete dimension of the P space: 35 determinants

  ==> Computing Coupling Lists <==
  --------------------------------
        α          0.000257 s
        β          0.000239 s
        αα         0.000359 s
        ββ         0.000331 s
        αβ         0.000838 s
  --------------------------------
  Time spent diagonalizing H:   0.000970 s

    P-space  CI Energy Root   0        = -229.318652507118 Eh =   0.0000 eV

  Using batched Q_space algorithm
  Setting nbin to 1 based on estimated memory ( 0.408 MB)
  Overwriting nbin to 8 based on user input
 -----------------------------------------
                Bin 0
  Build: 0.002263
  Merge: 0.000044
    Build F                  0.002335 
    Build criteria vector    0.000162
    Sort vector              0.000030
    Screening                0.000011
    Added 32 dets of 98 from bin 0
                Bin 1
  Build: 0.002034
  Merge: 0.000015
    Build F                  0.002077 
    Build criteria vector    0.000051
    Sort vector              0.000006
    Screening                0.000003
    Added 38 dets of 30 from bin 1
                Bin 2
  Build: 0.002214
  Merge: 0.000025
    Build F                  0.002286 
    Build criteria vector    0.000077
    Sort vector              0.000012
    Screening                0.000001
    Added 46 dets of 44 from bin 2
                Bin 3
  Build: 0.002058
  Merge: 0.000033
    Build F                  0.002123 
    Build criteria vector    0.000104
    Sort vector              0.000015
    Screening                0.000001
    Added 58 dets of 68 from bin 3
                Bin 4
  Build: 0.001975
  Merge: 0.000012
    Build F                  0.002009 
    Build criteria vector    0.000038
    Sort vector              0.000004
    Screening                0.000001
    Added 62 dets of 24 from bin 4
                Bin 5
  Build: 0.001949
  Merge: 0.000026
    Build F                  0.001994 
    Build criteria vector    0.000094
    Sort vector              0.000012
    Screening                0.000003
    Added 76 dets of 64 from bin 5
                Bin 6
  Build: 0.001839
  Merge: 0.000026
    Build F                  0.001884 
    Build criteria vector    0.000092
    Sort vector              0.000012
    Screening                0.000001
    Added 85 dets of 66 from bin 6
                Bin 7
  Build: 0.001847
  Merge: 0.000014
    Build F                  0.001887 
    Build criteria vector    0.000044
    Sort vector              0.000005
    Screening                0.000001
    Added 90 dets of 28 from bin 7
 ------------------------------------
  Screened out 0.0004298535 Eh of correlation
  Dimension of the truncated SD space: 90 determinants
  Time spent building the external space (default): 0.017779 s

  Time spent sorting: 0.000017
  Time spent selecting: 0.000026
  Dimension of the P + Q space: 91 determinants
  Time spent screening the model space: 0.000038 s
  Time spent building the model space: 0.017876
  Spin-complete dimension of the PQ space: 99

  ==> Computing Coupling Lists <==
  --------------------------------
        α          0.000548 s
        β          0.000547 s
        αα         0.000793 s
        ββ         0.000809 s
        αβ         0.002073 s
  --------------------------------
  Total time spent diagonalizing H:   0.004977 s

    PQ-space CI Energy Root   0        = -229.356624016532 Eh =   0.0000 eV
    PQ-space CI Energy + EPT2 Root   0 = -229.357578060931 Eh =   0.0000 eV


  Most important contributions to root   0:
    0  -0.817270 0.667929891          34 |02200202>
    1   0.496007 0.246023229          31 |22200200>
    2   0.105327 0.011093841          90 |00202202>
    3   0.081050 0.006569035          17 |02000222>
    4  -0.071903 0.005170105          85 |20202200>
    5  -0.063763 0.004065696           9 |22000220>
    6  -0.061977 0.003841162          87 |0-+0-2+2>
    7  -0.061977 0.003841162          86 |0+-0+2-2>
    8   0.060357 0.003642990          18 |-2-002++>
    9   0.060357 0.003642990          30 |+2+002-->

  Spin state for root 0: S^2 = 0.000000, S = 0.000, singlet
  Cycle 0 took: 0.032247 s

  ==> Cycle 1 <==

  Initial P space dimension: 66
  Spin-complete dimension of the P space: 79 determinants

  ==> Computing Coupling Lists <==
  --------------------------------
        α          0.000434 s
        β          0.000433 s
        αα         0.000938 s
        ββ         0.000726 s
        αβ         0.001565 s
  --------------------------------
  Time spent diagonalizing H:   0.003172 s

    P-space  CI Energy Root   0        = -229.356432159433 Eh =   0.0000 eV

  Using batched Q_space algorithm
  Setting nbin to 1 based on estimated memory ( 0.920 MB)
  Overwriting nbin to 8 based on user input
 -----------------------------------------
                Bin 0
  Build: 0.005381
  Merge: 0.000046
    Build F                  0.005480 
    Build criteria vector    0.000148
    Sort vector              0.000025
    Screening                0.000006
    Added 35 dets of 101 from bin 0
                Bin 1
  Build: 0.004137
  Merge: 0.000008
    Build F                  0.004161 
    Build criteria vector    0.000027
    Sort vector              0.000003
    Screening                0.000001
    Added 40 dets of 18 from bin 1
                Bin 2
  Build: 0.004215
  Merge: 0.000027
    Build F                  0.004263 
    Build criteria vector    0.000096
    Sort vector              0.000013
    Screening                0.000001
    Added 55 dets of 68 from bin 2
                Bin 3
  Build: 0.004283
  Merge: 0.000024
    Build F                  0.004346 
    Build criteria vector    0.000078
    Sort vector              0.000014
    Screening                0.000001
    Added 64 dets of 52 from bin 3
                Bin 4
  Build: 0.004238
  Merge: 0.000010
    Build F                  0.004272 
    Build criteria vector    0.000031
    Sort vector              0.000005
    Screening                0.000003
    Added 71 dets of 20 from bin 4
                Bin 5
  Build: 0.004210
  Merge: 0.000027
    Build F                  0.004256 
    Build criteria vector    0.000099
    Sort vector              0.000017
    Screening                0.000001
    Added 96 dets of 74 from bin 5
                Bin 6
  Build: 0.003795
  Merge: 0.000024
    Build F                  0.003837 
    Build criteria vector    0.000086
    Sort vector              0.000013
    Screening                0.000001
    Added 109 dets of 70 from bin 6
                Bin 7
  Build: 0.004068
  Merge: 0.000017
    Build F                  0.004137 
    Build criteria vector    0.000059
    Sort vector              0.000008
    Screening                0.000001
    Added 115 dets of 40 from bin 7
 ------------------------------------
  Screened out 0.0004690814 Eh of correlation
  Dimension of the truncated SD space: 115 determinants
  Time spent building the external space (default): 0.035824 s

  Time spent sorting: 0.000021
  Time spent selecting: 0.000023
  Dimension of the P + Q space: 137 determinants
  Time spent screening the model space: 0.000033 s
  Time spent building the model space: 0.035909
  Spin-complete dimension of the PQ space: 213

  ==> Computing Coupling Lists <==
  --------------------------------
        α          0.001100 s
        β          0.000990 s
        αα         0.001444 s
        ββ         0.001462 s
        αβ         0.003536 s
  --------------------------------
  Total time spent diagonalizing H:   0.025914 s

    PQ-space CI Energy Root   0        = -229.359500053706 Eh =   0.0000 eV
    PQ-space CI Energy + EPT2 Root   0 = -229.360487448538 Eh =   0.0000 eV


  Most important contributions to root   0:
    0  -0.813377 0.661581654          65 |02200202>
    1   0.491027 0.241107996          64 |22200200>
    2   0.111789 0.012496721          63 |00202202>
    3   0.084398 0.007122963          62 |02000222>
    4  -0.075014 0.005627038          61 |20202200>
    5  -0.066413 0.004410621          58 |0+-0+2-2>
    6  -0.066413 0.004410621          59 |0-+0-2+2>
    7  -0.066029 0.004359795          60 |22000220>
    8   0.063057 0.003976139          57 |-2-002++>
    9   0.063057 0.003976139          56 |+2+002-->

  Spin state for root 0: S^2 = 0.000000, S = 0.000, singlet
  Cycle 1 took: 0.079897 s

  ==> Cycle 2 <==

  Initial P space dimension: 101
  Spin-complete dimension of the P space: 126 determinants

  ==> Computing Coupling Lists <==
  --------------------------------
        α          0.000691 s
        β          0.000597 s
        αα         0.000838 s
        ββ         0.000936 s
        αβ         0.002124 s
  --------------------------------
  Time spent diagonalizing H:   0.007434 s

    P-space  CI Energy Root   0        = -229.358649016457 Eh =   0.0000 eV

  Using batched Q_space algorithm
  Setting nbin to 1 based on estimated memory ( 1.468 MB)
  Overwriting nbin to 8 based on user input
 -----------------------------------------
                Bin 0
  Build: 0.007247
  Merge: 0.000044
    Build F                  0.007353 
    Build criteria vector    0.000150
    Sort vector              0.000021
    Screening                0.000005
    Added 28 dets of 102 from bin 0
                Bin 1
  Build: 0.006672
  Merge: 0.000017
    Build F                  0.006722 
    Build criteria vector    0.000057
    Sort vector              0.000006
    Screening                0.000000
    Added 28 dets of 38 from bin 1
                Bin 2
  Build: 0.006946
  Merge: 0.000028
    Build F                  0.007029 
    Build criteria vector    0.000096
    Sort vector              0.000014
    Screening                0.000004
    Added 40 dets of 64 from bin 2
                Bin 3
  Build: 0.006514
  Merge: 0.000025
    Build F                  0.006558 
    Build criteria vector    0.000090
    Sort vector              0.000013
    Screening                0.000001
    Added 44 dets of 72 from bin 3
                Bin 4
  Build: 0.006377
  Merge: 0.000015
    Build F                  0.006437 
    Build criteria vector    0.000056
    Sort vector              0.000007
    Screening                0.000001
    Added 46 dets of 36 from bin 4
                Bin 5
  Build: 0.006229
  Merge: 0.000025
    Build F                  0.006277 
    Build criteria vector    0.000092
    Sort vector              0.000012
    Screening                0.000001
    Added 64 dets of 72 from bin 5
                Bin 6
  Build: 0.005921
  Merge: 0.000028
    Build F                  0.005968 
    Build criteria vector    0.000103
    Sort vector              0.000015
    Screening                0.000003
    Added 73 dets of 84 from bin 6
                Bin 7
  Build: 0.006341
  Merge: 0.000018
    Build F                  0.006410 
    Build criteria vector    0.000064
    Sort vector              0.000012
    Screening                0.000001
    Added 76 dets of 46 from bin 7
 ------------------------------------
  Screened out 0.0004732699 Eh of correlation
  Dimension of the truncated SD space: 76 determinants
  Time spent building the external space (default): 0.053950 s

  Time spent sorting: 0.000014
  Time spent selecting: 0.000017
  Dimension of the P + Q space: 147 determinants
  Time spent screening the model space: 0.000029 s
  Time spent building the model space: 0.054025
  Spin-complete dimension of the PQ space: 237

  ==> Computing Coupling Lists <==
  --------------------------------
        α          0.001105 s
        β          0.001164 s
        αα         0.001604 s
        ββ         0.001623 s
        αβ         0.003765 s
  --------------------------------
  Total time spent diagonalizing H:   0.032364 s

    PQ-space CI Energy Root   0        = -229.359494492392 Eh =   0.0000 eV
    PQ-space CI Energy + EPT2 Root   0 = -229.360478867315 Eh =   0.0000 eV


  Most important contributions to root   0:
    0   0.813239 0.661356861         100 |02200202>
    1  -0.490489 0.240579012          99 |22200200>
    2  -0.112154 0.012578445          98 |00202202>
    3  -0.084126 0.007077254          97 |02000222>
    4   0.074846 0.005601948          96 |20202200>
    5   0.066496 0.004421724          95 |0+-0+2-2>
    6   0.066496 0.004421724          94 |0-+0-2+2>
    7   0.065804 0.004330119          93 |22000220>
    8  -0.063206 0.003995056          92 |-2-002++>
    9  -0.063206 0.003995056          91 |+2+002-->

  Spin state for root 0: S^2 = 0.000000, S = 0.000, singlet
  Cycle 2 took: 0.111003 s

  ==> Cycle 3 <==

  Initial P space dimension: 98
  Spin-complete dimension of the P space: 124 determinants

  ==> Computing Coupling Lists <==
  --------------------------------
        α          0.000669 s
        β          0.000665 s
        αα         0.001022 s
        ββ         0.000837 s
        αβ         0.002157 s
  --------------------------------
  Time spent diagonalizing H:   0.007751 s

    P-space  CI Energy Root   0        = -229.358592932768 Eh =   0.0000 eV

  Using batched Q_space algorithm
  Setting nbin to 1 based on estimated memory ( 1.444 MB)
  Overwriting nbin to 8 based on user input
 -----------------------------------------
                Bin 0
  Build: 0.006645
  Merge: 0.000045
    Build F                  0.006748 
    Build criteria vector    0.000142
    Sort vector              0.000024
    Screening                0.000005
    Added 28 dets of 102 from bin 0
                Bin 1
  Build: 0.006184
  Merge: 0.000015
    Build F                  0.006219 
    Build criteria vector    0.000051
    Sort vector              0.000006
    Screening                0.000000
    Added 28 dets of 38 from bin 1
                Bin 2
  Build: 0.006534
  Merge: 0.000036
    Build F                  0.006642 
    Build criteria vector    0.000108
    Sort vector              0.000014
    Screening                0.000004
    Added 39 dets of 64 from bin 2
                Bin 3
  Build: 0.006749
  Merge: 0.000029
    Build F                  0.006821 
    Build criteria vector    0.000101
    Sort vector              0.000015
    Screening                0.000001
    Added 43 dets of 72 from bin 3
                Bin 4
  Build: 0.006506
  Merge: 0.000016
    Build F                  0.006549 
    Build criteria vector    0.000051
    Sort vector              0.000007
    Screening                0.000001
    Added 45 dets of 36 from bin 4
                Bin 5
  Build: 0.007210
  Merge: 0.000026
    Build F                  0.007286 
    Build criteria vector    0.000101
    Sort vector              0.000014
    Screening                0.000001
    Added 63 dets of 72 from bin 5
                Bin 6
  Build: 0.006114
  Merge: 0.000029
    Build F                  0.006166 
    Build criteria vector    0.000105
    Sort vector              0.000017
    Screening                0.000004
    Added 74 dets of 86 from bin 6
                Bin 7
  Build: 0.006050
  Merge: 0.000018
    Build F                  0.006100 
    Build criteria vector    0.000065
    Sort vector              0.000008
    Screening                0.000001
    Added 77 dets of 46 from bin 7
 ------------------------------------
  Screened out 0.0004727106 Eh of correlation
  Dimension of the truncated SD space: 77 determinants
  Time spent building the external space (default): 0.053727 s

  Time spent sorting: 0.000017
  Time spent selecting: 0.000015
  Dimension of the P + Q space: 146 determinants
  Time spent screening the model space: 0.000025 s
  Time spent building the model space: 0.053800
  Spin-complete dimension of the PQ space: 237

  ==> Computing Coupling Lists <==
  --------------------------------
        α          0.001312 s
        β          0.001133 s
        αα         0.001674 s
        ββ         0.001583 s
        αβ         0.003773 s
  --------------------------------
  Total time spent diagonalizing H:   0.031608 s

    PQ-space CI Energy Root   0        = -229.359494492392 Eh =   0.0000 eV
    PQ-space CI Energy + EPT2 Root   0 = -229.360487802956 Eh =   0.0000 eV

  ***** Calculation Converged *****

  ==> Excited state solver summary <==

  Iterations required:                         3
  Dimension of optimized determinant space:    237

  * Selected-CI Energy Root   0        = -229.359494492392 Eh =   0.0000 eV
  * Selected-CI Energy Root   0 + EPT2 = -229.360487802956 Eh =   0.0000 eV

  ==> Wavefunction Information <==

  Most important contributions to root   0:
    0  -0.813239 0.661356861          97 |02200202>
    1   0.490489 0.240579012          96 |22200200>
    2   0.112154 0.012578445          95 |00202202>
    3   0.084126 0.007077254          94 |02000222>
    4  -0.074846 0.005601948          93 |20202200>
    5  -0.066496 0.004421724          92 |0+-0+2-2>
    6  -0.066496 0.004421724          91 |0-+0-2+2>
    7  -0.065804 0.004330119          90 |22000220>
    8   0.063206 0.003995056          89 |-2-002++>
    9   0.063206 0.003995056          88 |+2+002-->

  Spin state for root 0: S^2 = 0.000000, S = 0.000, singlet

  Saving information for root: 0

  ==> Energy Summary <==

    Multi.  Irrep.  No.               Energy
    -----------------------------------------
       1      Ag     0      -229.359494492392
    -----------------------------------------    ACI energy........................................................FAILED
Traceback (most recent call last):
  File "/Users/fevange/Source/psi4/objdir-Debug/stage/bin/psi4", line 289, in <module>
    exec(content)
  File "<string>", line 65, in <module>
  File "/Users/fevange/Source/psi4/objdir-Debug/stage/lib/psi4/driver/qcdb/testing.py", line 104, in _mergedapis_compare_values
    return qcel.testing.compare_values(expected, computed, **kwargs)
  File "/Users/fevange/Source/psi4/objdir-Debug/stage/lib/qcelemental/testing.py", line 152, in compare_values
    return return_handler(allclose, label, message, return_message, quiet)
  File "/Users/fevange/Source/psi4/objdir-Debug/stage/lib/psi4/driver/p4util/testing.py", line 188, in _psi4_true_raise_handler
    raise TestComparisonError(message)

psi4.driver.p4util.exceptions.TestComparisonError: 	ACI energy: computed value (-229.359494492392) does not match (-229.359450812283) to atol=1e-10 by difference (-0.000043680109).


Printing out the relevant lines from the Psithon --> Python processed input file:
    core.set_local_option("FORTE", "ACTIVE_GUESS_SIZE", 100)
    set_num_threads(4)
    scf = energy('scf')
    compare_values(refscf, scf,10,"SCF Energy")
    energy('forte')
--> compare_values(refaci, variable("ACI ENERGY"),10,"ACI energy")
    compare_values(refacipt2, variable("ACI+PT2 ENERGY"),8,"ACI+PT2 energy")

    Psi4 stopped on: Tuesday, 30 July 2019 03:54PM
    Psi4 wall time for execution: 0:00:18.31

*** Psi4 encountered an error. Buy a developer more coffee!
*** Resources and help at github.com/psi4/psi4.
