
    -----------------------------------------------------------------------
          Psi4: An Open-Source Ab Initio Electronic Structure Package
                               Psi4 1.4a2.dev1024 

                         Git: Rev {master} b603cfc dirty


    D. G. A. Smith, L. A. Burns, A. C. Simmonett, R. M. Parrish,
    M. C. Schieber, R. Galvelis, P. Kraus, H. Kruse, R. Di Remigio,
    A. Alenaizan, A. M. James, S. Lehtola, J. P. Misiewicz, M. Scheurer,
    R. A. Shaw, J. B. Schriber, Y. Xie, Z. L. Glick, D. A. Sirianni,
    J. S. O'Brien, J. M. Waldrop, A. Kumar, E. G. Hohenstein,
    B. P. Pritchard, B. R. Brooks, H. F. Schaefer III, A. Yu. Sokolov,
    K. Patkowski, A. E. DePrince III, U. Bozkaya, R. A. King,
    F. A. Evangelista, J. M. Turney, T. D. Crawford, C. D. Sherrill,
    J. Chem. Phys. 152(18) 184108 (2020). https://doi.org/10.1063/5.0006002

                            Additional Code Authors
    E. T. Seidl, C. L. Janssen, E. F. Valeev, M. L. Leininger,
    J. F. Gonthier, R. M. Richard, H. R. McAlexander, M. Saitow, X. Wang,
    P. Verma, and M. H. Lechner

             Previous Authors, Complete List of Code Contributors,
                       and Citations for Specific Modules
    https://github.com/psi4/psi4/blob/master/codemeta.json
    https://github.com/psi4/psi4/graphs/contributors
    http://psicode.org/psi4manual/master/introduction.html#citing-psifour

    -----------------------------------------------------------------------


    Psi4 started on: Monday, 16 November 2020 02:02AM

    Process ID: 54177
    Host:       Yorks-Mac.local
    PSIDATADIR: /Users/york/src/psi4new/psi4/share/psi4
    Memory:     500.0 MiB
    Threads:    1
    
  ==> Input File <==

--------------------------------------------------------------------------
#! Generated using commit GITCOMMIT

import forte

refcasscf = -100.038625208209481

molecule HF{
  0 1
  H
  F  1 R

  R = 1.0
}

set {
  basis                  cc-pvdz
  df_basis_scf           cc-pvdz-jkfit
  df_basis_mp2           cc-pvdz-jkfit
  reference              rhf
  scf_type               df
  maxiter                300
  e_convergence          10
  d_convergence          8
  docc                   [3,0,1,1]
  restricted_docc        [0,0,0,0]
  active                 [4,0,1,1]
  mcscf_maxiter          100
  mcscf_type             df
  mcscf_r_convergence    8
  mcscf_e_convergence    10
  mcscf_diis_start       6
}

Ecasscf, wfn_cas = energy('casscf', return_wfn=True)
compare_values(refcasscf, Ecasscf, 8, "CASSCF energy")

set forte {
  job_type             casscf
  active_space_solver  cas
  int_type             df
  multiplicity         1
  restricted_docc      [0,0,0,0]
  active               [4,0,1,1]
  root_sym             0
  nroot                1
  e_convergence        10
  r_convergence        8
  casscf_e_convergence 10
  casscf_g_convergence 8
}

Eforte = energy('forte')
compare_values(Eforte, Ecasscf, 8, "CASSCF Forte vs Psi4")
--------------------------------------------------------------------------

Scratch directory: /Users/york/scratch/psi4/

*** tstart() called on Yorks-Mac.local
*** at Mon Nov 16 02:02:28 2020

   => Loading Basis Set <=

    Name: CC-PVDZ
    Role: ORBITAL
    Keyword: BASIS
    atoms 1 entry H          line    22 file /Users/york/src/psi4new/psi4/share/psi4/basis/cc-pvdz.gbs 
    atoms 2 entry F          line   228 file /Users/york/src/psi4new/psi4/share/psi4/basis/cc-pvdz.gbs 


         ---------------------------------------------------------
                                   SCF
               by Justin Turney, Rob Parrish, Andy Simmonett
                          and Daniel G. A. Smith
                              RHF Reference
                        1 Threads,    500 MiB Core
         ---------------------------------------------------------

  ==> Geometry <==

    Molecular point group: c2v
    Full point group: C_inf_v

    Geometry (in Angstrom), charge = 0, multiplicity = 1:

       Center              X                  Y                   Z               Mass       
    ------------   -----------------  -----------------  -----------------  -----------------
         H            0.000000000000     0.000000000000    -0.949624435830     1.007825032230
         F            0.000000000000     0.000000000000     0.050375564170    18.998403162730

  Running in c2v symmetry.

  Rotational constants: A = ************  B =     17.61406  C =     17.61406 [cm^-1]
  Rotational constants: A = ************  B = 528056.23735  C = 528056.23735 [MHz]
  Nuclear repulsion =    4.762594896030000

  Charge       = 0
  Multiplicity = 1
  Electrons    = 10
  Nalpha       = 5
  Nbeta        = 5

  ==> Algorithm <==

  SCF Algorithm Type is DF.
  DIIS enabled.
  MOM disabled.
  Fractional occupation disabled.
  Guess Type is SAD.
  Energy threshold   = 1.00e-10
  Density threshold  = 1.00e-08
  Integral threshold = 0.00e+00

  ==> Primary Basis <==

  Basis Set: CC-PVDZ
    Blend: CC-PVDZ
    Number of shells: 9
    Number of basis function: 19
    Number of Cartesian functions: 20
    Spherical Harmonics?: true
    Max angular momentum: 2

   => Loading Basis Set <=

    Name: CC-PVDZ-JKFIT
    Role: JKFIT
    Keyword: DF_BASIS_SCF
    atoms 1 entry H          line    51 file /Users/york/src/psi4new/psi4/share/psi4/basis/cc-pvdz-jkfit.gbs 
    atoms 2 entry F          line   271 file /Users/york/src/psi4new/psi4/share/psi4/basis/cc-pvdz-jkfit.gbs 

  ==> Integral Setup <==

  DFHelper Memory: AOs need 0.000 GiB; user supplied 0.366 GiB. Using in-core AOs.

  ==> MemDFJK: Density-Fitted J/K Matrices <==

    J tasked:                   Yes
    K tasked:                   Yes
    wK tasked:                   No
    OpenMP threads:               1
    Memory [MiB]:               375
    Algorithm:                 Core
    Schwarz Cutoff:           1E-12
    Mask sparsity (%):       0.0000
    Fitting Condition:        1E-10

   => Auxiliary Basis Set <=

  Basis Set: CC-PVDZ-JKFIT
    Blend: CC-PVDZ-JKFIT
    Number of shells: 33
    Number of basis function: 93
    Number of Cartesian functions: 106
    Spherical Harmonics?: true
    Max angular momentum: 3

  Minimum eigenvalue in the overlap matrix is 6.0264792053E-02.
  Reciprocal condition number of the overlap matrix is 2.1536796949E-02.
    Using symmetric orthogonalization.

  ==> Pre-Iterations <==

  SCF Guess: Superposition of Atomic Densities via on-the-fly atomic UHF (no occupation information).

   -------------------------
    Irrep   Nso     Nmo    
   -------------------------
     A1        10      10 
     A2         1       1 
     B1         4       4 
     B2         4       4 
   -------------------------
    Total      19      19
   -------------------------

  ==> Iterations <==

                           Total Energy        Delta E     RMS |[F,P]|

   @DF-RHF iter SAD:   -99.55449880393029   -9.95545e+01   0.00000e+00 
   @DF-RHF iter   1:   -99.96742688081277   -4.12928e-01   2.77543e-02 DIIS
   @DF-RHF iter   2:   -99.99943871733441   -3.20118e-02   1.63855e-02 DIIS
   @DF-RHF iter   3:  -100.00948555480926   -1.00468e-02   1.75255e-03 DIIS
   @DF-RHF iter   4:  -100.00982481576489   -3.39261e-04   5.50848e-04 DIIS
   @DF-RHF iter   5:  -100.00985863189813   -3.38161e-05   9.45245e-05 DIIS
   @DF-RHF iter   6:  -100.00985993996080   -1.30806e-06   9.55470e-06 DIIS
   @DF-RHF iter   7:  -100.00985995181863   -1.18578e-08   6.53409e-07 DIIS
   @DF-RHF iter   8:  -100.00985995185640   -3.77725e-11   7.53469e-08 DIIS
   @DF-RHF iter   9:  -100.00985995185691   -5.11591e-13   7.84193e-09 DIIS
  Energy and wave function converged.


  ==> Post-Iterations <==

    Orbital Energies [Eh]
    ---------------------

    Doubly Occupied:                                                      

       1A1   -26.279281     2A1    -1.557455     3A1    -0.714910  
       1B2    -0.621195     1B1    -0.621195  

    Virtual:                                                              

       4A1     0.164493     5A1     0.737655     2B1     1.383290  
       2B2     1.383290     6A1     1.446837     3B2     1.616511  
       3B1     1.616511     7A1     2.133659     8A1     2.302124  
       9A1     4.012625     1A2     4.012625     4B2     4.208020  
       4B1     4.208020    10A1     4.935950  

    Final Occupation by Irrep:
             A1    A2    B1    B2 
    DOCC [     3,    0,    1,    1 ]

  @DF-RHF Final Energy:  -100.00985995185691

   => Energetics <=

    Nuclear Repulsion Energy =              4.7625948960300004
    One-Electron Energy =                -149.9568385101665058
    Two-Electron Energy =                  45.1843836622795934
    Total Energy =                       -100.0098599518568960

Computation Completed


Properties will be evaluated at   0.000000,   0.000000,   0.000000 [a0]

Properties computed using the SCF density matrix

  Nuclear Dipole Moment: [e a0]
     X:     0.0000      Y:     0.0000      Z:    -0.9378

  Electronic Dipole Moment: [e a0]
     X:     0.0000      Y:     0.0000      Z:     0.1056

  Dipole Moment: [e a0]
     X:     0.0000      Y:     0.0000      Z:    -0.8322     Total:     0.8322

  Dipole Moment: [D]
     X:     0.0000      Y:     0.0000      Z:    -2.1152     Total:     2.1152


*** tstop() called on Yorks-Mac.local at Mon Nov 16 02:02:28 2020
Module time:
	user time   =       0.23 seconds =       0.00 minutes
	system time =       0.01 seconds =       0.00 minutes
	total time  =          0 seconds =       0.00 minutes
Total time:
	user time   =       0.23 seconds =       0.00 minutes
	system time =       0.01 seconds =       0.00 minutes
	total time  =          0 seconds =       0.00 minutes
  Constructing Basis Sets for MCSCF...

   => Loading Basis Set <=

    Name: CC-PVDZ-JKFIT
    Role: JKFIT
    Keyword: DF_BASIS_SCF
    atoms 1 entry H          line    51 file /Users/york/src/psi4new/psi4/share/psi4/basis/cc-pvdz-jkfit.gbs 
    atoms 2 entry F          line   271 file /Users/york/src/psi4new/psi4/share/psi4/basis/cc-pvdz-jkfit.gbs 


         ---------------------------------------------------------
                Multi-Configurational Self-Consistent Field
                            (a 'D E T C I' module)

                 Daniel G. A. Smith, C. David Sherrill, and
                              Matt L. Leininger
         ---------------------------------------------------------


   ==> Parameters <==

    EX LEVEL       =       10      H0 BLOCKSIZE  =     1000
    VAL EX LEVEL   =        0      H0 GUESS SIZE =     1000
    H0COUPLINGSIZE =        0      H0 COUPLING   =       NO
    MAXITER        =       12      NUM PRINT     =       20
    NUM ROOTS      =        1      ICORE         =        1
    PRINT LVL      =        1      FCI           =      YES
    R CONV         = 1.00e-07      MIXED         =      YES
    E CONV         = 1.00e-10      MIXED4        =      YES
    R4S            =       NO      REPL OTF      =       NO
    DIAG METHOD    =      SEM      FOLLOW ROOT   =        0
    PRECONDITIONER = DAVIDSON      UPDATE        = DAVIDSON
    S              =   0.0000      Ms0           =      YES
    GUESS VECTOR   =  H0BLOCK      OPENTYPE      =     NONE
    COLLAPSE SIZE  =        1      HD AVG        = EVANGELISTI
    MAX NUM VECS   =       13      REF SYM       =     AUTO
    IOPEN        =       NO

    EX ALLOW       =  1  1  1  1  1  1  1  1  1  1 
    STATE AVERAGE  =  0(1.00) 

   ==> CI Orbital and Space information <==

   ------------------------------------------------------
               Space    Total    A1    A2    B1    B2
   ------------------------------------------------------
                 Nso       19    10     1     4     4
                 Nmo       19    10     1     4     4
               Ndocc        5     3     0     1     1
               Nsocc        0     0     0     0     0
   ------------------------------------------------------
                        MCSCF Spaces
   ------------------------------------------------------
         Frozen DOCC        0     0     0     0     0
     Restricted DOCC        0     0     0     0     0
              Active        6     4     0     1     1
     Restricted UOCC       13     6     1     3     3
         Frozen UOCC        0     0     0     0     0
   ------------------------------------------------------

   ==> Setting up CI strings <==

    There are 6 alpha and 6 beta strings
    The CI space requires 18 (1.80E+01) determinants and 3 blocks

   ==> Setting up DF-MCSCF integrals <==

  DFHelper Memory: AOs need 0.000 GiB; user supplied 0.391 GiB. Using in-core AOs.

  ==> MemDFJK: Density-Fitted J/K Matrices <==

    J tasked:                   Yes
    K tasked:                   Yes
    wK tasked:                   No
    OpenMP threads:               1
    Memory [MiB]:               400
    Algorithm:                 Core
    Schwarz Cutoff:           1E-12
    Mask sparsity (%):       0.0000
    Fitting Condition:        1E-10

   => Auxiliary Basis Set <=

  Basis Set: CC-PVDZ-JKFIT
    Blend: CC-PVDZ-JKFIT
    Number of shells: 33
    Number of basis function: 93
    Number of Cartesian functions: 106
    Spherical Harmonics?: true
    Max angular momentum: 3

  DFHelper Memory: AOs need 0.000 GiB; user supplied 0.391 GiB. Using in-core AOs.


   ==> Starting DF-MCSCF iterations <==

           Iter         Total Energy       Delta E   Orb RMS    CI RMS  NCI NORB
   @DF-MCSCF  1:   -100.013387957181   -3.5280e-03  4.37e-03  1.96e-12    1    1  Initial CI
      Warning! Maxstep = 0.70, scaling to 0.50
   @DF-MCSCF  2:   -100.033342897307   -1.9955e-02  1.32e-02  1.75e-06    5    1  TS
   @DF-MCSCF  3:   -100.037911802251   -4.5689e-03  5.00e-03  5.63e-06    4    1  TS
   @DF-MCSCF  4:   -100.038499817203   -5.8801e-04  1.78e-03  2.64e-06    4    1  TS
   @DF-MCSCF  5:   -100.038598924410   -9.9107e-05  8.10e-04  6.90e-08    5    1  TS
   @DF-MCSCF  6:   -100.038618958939   -2.0035e-05  4.31e-04  3.24e-08    5    1  TS
   @DF-MCSCF  7:   -100.038623594871   -4.6359e-06  2.37e-04  1.72e-08    5    1  TS, DIIS
   @DF-MCSCF  8:   -100.038624770073   -1.1752e-06  1.30e-04  8.74e-09    5    1  TS, DIIS
   @DF-MCSCF  9:   -100.038625081171   -3.1110e-07  6.27e-05  1.48e-08    5    1  TS, DIIS
   @DF-MCSCF 10:   -100.038625208137   -1.2697e-07  1.65e-06  5.07e-09    5    1  TS, DIIS
   @DF-MCSCF 11:   -100.038625206573    1.5633e-09  7.14e-06  5.56e-10    5    1  TS, DIIS
   @DF-MCSCF 12:   -100.038625208199   -1.6259e-09  5.87e-07  6.70e-10    5    1  TS, DIIS
   @DF-MCSCF 13:   -100.038625208208   -9.0239e-12  1.46e-07  4.72e-11    5    1  TS, DIIS
   @DF-MCSCF 14:   -100.038625208208    9.9476e-14  1.60e-07  2.43e-11    5    1  TS, DIIS
   @DF-MCSCF 15:   -100.038625208209   -6.8212e-13  1.04e-09  1.37e-12    6    1  TS, DIIS

          @DF-MCSCF has converged!

   @DF-MCSCF Final Energy: -100.038625208208842

   Computing CI Semicanonical Orbitals

   ==> Energetics <==

    SCF energy =         -100.009859951856896
    Total MCSCF energy = -100.038625208208842

   ==> MCSCF root 0 information <==

    MCSCF Root 0 energy =  -100.038625208208998

   Active Space Natural occupation numbers:

        A1   1.999999        B2   1.999715        B1   1.999715
        A1   1.999702        A1   1.971480        A1   0.029390

   The 18 most important determinants:

    *   1   -0.992559  (    0,    0)  1A1X 2A1X 3A1X 1B1X 1B2X 
    *   2    0.108521  (    1,    1)  1A1X 2A1X 4A1X 1B1X 1B2X 
    *   3   -0.032306  (    1,    2)  1A1X 2A1A 3A1B 4A1X 1B1X 1B2X 
    *   4   -0.032306  (    2,    1)  1A1X 2A1B 3A1A 4A1X 1B1X 1B2X 
    *   5    0.022995  (    2,    2)  1A1X 3A1X 4A1X 1B1X 1B2X 
    *   6    0.011947  (    5,    5)  1A1X 2A1X 3A1X 4A1X 1B2X 
    *   7    0.011947  (    4,    4)  1A1X 2A1X 3A1X 4A1X 1B1X 
    *   8    0.008530  (    0,    1)  1A1X 2A1X 3A1A 4A1B 1B1X 1B2X 
    *   9    0.008530  (    1,    0)  1A1X 2A1X 3A1B 4A1A 1B1X 1B2X 
    *  10   -0.000900  (    0,    2)  1A1X 2A1A 3A1X 4A1B 1B1X 1B2X 
    *  11   -0.000900  (    2,    0)  1A1X 2A1B 3A1X 4A1A 1B1X 1B2X 
    *  12    0.000749  (    3,    3)  2A1X 3A1X 4A1X 1B1X 1B2X 
    *  13    0.000724  (    2,    3)  1A1A 2A1B 3A1X 4A1X 1B1X 1B2X 
    *  14    0.000724  (    3,    2)  1A1B 2A1A 3A1X 4A1X 1B1X 1B2X 
    *  15    0.000098  (    1,    3)  1A1A 2A1X 3A1B 4A1X 1B1X 1B2X 
    *  16    0.000098  (    3,    1)  1A1B 2A1X 3A1A 4A1X 1B1X 1B2X 
    *  17   -0.000018  (    0,    3)  1A1A 2A1X 3A1X 4A1B 1B1X 1B2X 
    *  18   -0.000018  (    3,    0)  1A1B 2A1X 3A1X 4A1A 1B1X 1B2X 



Properties will be evaluated at   0.000000,   0.000000,   0.000000 [a0]

Properties computed using the CASSCF density matrix

  Nuclear Dipole Moment: [e a0]
     X:     0.0000      Y:     0.0000      Z:    -0.9378

  Electronic Dipole Moment: [e a0]
     X:     0.0000      Y:     0.0000      Z:     0.1840

  Dipole Moment: [e a0]
     X:     0.0000      Y:     0.0000      Z:    -0.7538     Total:     0.7538

  Dipole Moment: [D]
     X:     0.0000      Y:     0.0000      Z:    -1.9159     Total:     1.9159

    CASSCF energy.........................................................................PASSED

Scratch directory: /Users/york/scratch/psi4/

  Forte
  ----------------------------------------------------------------------------
  A suite of quantum chemistry methods for strongly correlated electrons

    git branch: cas_hessian - git commit: 26e4d734

  Developed by:
    Francesco A. Evangelista, Chenyang Li, Kevin P. Hannon,
    Jeffrey B. Schriber, Tianyuan Zhang, Chenxi Cai,
    Nan He, Nicholas Stair, Shuhe Wang, Renke Huang
  ----------------------------------------------------------------------------

  Size of Determinant class: 256 bits
  Preparing forte objects from a psi4 Wavefunction object
  No reference wavefunction provided. Computing SCF orbitals with psi4

*** tstart() called on Yorks-Mac.local
*** at Mon Nov 16 02:02:28 2020

   => Loading Basis Set <=

    Name: CC-PVDZ
    Role: ORBITAL
    Keyword: BASIS
    atoms 1 entry H          line    22 file /Users/york/src/psi4new/psi4/share/psi4/basis/cc-pvdz.gbs 
    atoms 2 entry F          line   228 file /Users/york/src/psi4new/psi4/share/psi4/basis/cc-pvdz.gbs 


         ---------------------------------------------------------
                                   SCF
               by Justin Turney, Rob Parrish, Andy Simmonett
                          and Daniel G. A. Smith
                              RHF Reference
                        1 Threads,    500 MiB Core
         ---------------------------------------------------------

  ==> Geometry <==

    Molecular point group: c2v
    Full point group: C_inf_v

    Geometry (in Angstrom), charge = 0, multiplicity = 1:

       Center              X                  Y                   Z               Mass       
    ------------   -----------------  -----------------  -----------------  -----------------
         H            0.000000000000     0.000000000000    -0.949624435830     1.007825032230
         F            0.000000000000     0.000000000000     0.050375564170    18.998403162730

  Running in c2v symmetry.

  Rotational constants: A = ************  B =     17.61406  C =     17.61406 [cm^-1]
  Rotational constants: A = ************  B = 528056.23735  C = 528056.23735 [MHz]
  Nuclear repulsion =    4.762594896030000

  Charge       = 0
  Multiplicity = 1
  Electrons    = 10
  Nalpha       = 5
  Nbeta        = 5

  ==> Algorithm <==

  SCF Algorithm Type is DF.
  DIIS enabled.
  MOM disabled.
  Fractional occupation disabled.
  Guess Type is SAD.
  Energy threshold   = 1.00e-10
  Density threshold  = 1.00e-08
  Integral threshold = 0.00e+00

  ==> Primary Basis <==

  Basis Set: CC-PVDZ
    Blend: CC-PVDZ
    Number of shells: 9
    Number of basis function: 19
    Number of Cartesian functions: 20
    Spherical Harmonics?: true
    Max angular momentum: 2

   => Loading Basis Set <=

    Name: CC-PVDZ-JKFIT
    Role: JKFIT
    Keyword: DF_BASIS_SCF
    atoms 1 entry H          line    51 file /Users/york/src/psi4new/psi4/share/psi4/basis/cc-pvdz-jkfit.gbs 
    atoms 2 entry F          line   271 file /Users/york/src/psi4new/psi4/share/psi4/basis/cc-pvdz-jkfit.gbs 

  ==> Integral Setup <==

  DFHelper Memory: AOs need 0.000 GiB; user supplied 0.366 GiB. Using in-core AOs.

  ==> MemDFJK: Density-Fitted J/K Matrices <==

    J tasked:                   Yes
    K tasked:                   Yes
    wK tasked:                   No
    OpenMP threads:               1
    Memory [MiB]:               375
    Algorithm:                 Core
    Schwarz Cutoff:           1E-12
    Mask sparsity (%):       0.0000
    Fitting Condition:        1E-10

   => Auxiliary Basis Set <=

  Basis Set: CC-PVDZ-JKFIT
    Blend: CC-PVDZ-JKFIT
    Number of shells: 33
    Number of basis function: 93
    Number of Cartesian functions: 106
    Spherical Harmonics?: true
    Max angular momentum: 3

  Minimum eigenvalue in the overlap matrix is 6.0264792053E-02.
  Reciprocal condition number of the overlap matrix is 2.1536796949E-02.
    Using symmetric orthogonalization.

  ==> Pre-Iterations <==

  SCF Guess: Superposition of Atomic Densities via on-the-fly atomic UHF (no occupation information).

   -------------------------
    Irrep   Nso     Nmo    
   -------------------------
     A1        10      10 
     A2         1       1 
     B1         4       4 
     B2         4       4 
   -------------------------
    Total      19      19
   -------------------------

  ==> Iterations <==

                           Total Energy        Delta E     RMS |[F,P]|

   @DF-RHF iter SAD:   -99.55449880393029   -9.95545e+01   0.00000e+00 
   @DF-RHF iter   1:   -99.96742688081277   -4.12928e-01   2.77543e-02 DIIS
   @DF-RHF iter   2:   -99.99943871733441   -3.20118e-02   1.63855e-02 DIIS
   @DF-RHF iter   3:  -100.00948555480926   -1.00468e-02   1.75255e-03 DIIS
   @DF-RHF iter   4:  -100.00982481576489   -3.39261e-04   5.50848e-04 DIIS
   @DF-RHF iter   5:  -100.00985863189813   -3.38161e-05   9.45245e-05 DIIS
   @DF-RHF iter   6:  -100.00985993996080   -1.30806e-06   9.55470e-06 DIIS
   @DF-RHF iter   7:  -100.00985995181863   -1.18578e-08   6.53409e-07 DIIS
   @DF-RHF iter   8:  -100.00985995185640   -3.77725e-11   7.53469e-08 DIIS
   @DF-RHF iter   9:  -100.00985995185691   -5.11591e-13   7.84193e-09 DIIS
  Energy and wave function converged.


  ==> Post-Iterations <==

    Orbital Energies [Eh]
    ---------------------

    Doubly Occupied:                                                      

       1A1   -26.279281     2A1    -1.557455     3A1    -0.714910  
       1B2    -0.621195     1B1    -0.621195  

    Virtual:                                                              

       4A1     0.164493     5A1     0.737655     2B1     1.383290  
       2B2     1.383290     6A1     1.446837     3B2     1.616511  
       3B1     1.616511     7A1     2.133659     8A1     2.302124  
       9A1     4.012625     1A2     4.012625     4B2     4.208020  
       4B1     4.208020    10A1     4.935950  

    Final Occupation by Irrep:
             A1    A2    B1    B2 
    DOCC [     3,    0,    1,    1 ]

  @DF-RHF Final Energy:  -100.00985995185691

   => Energetics <=

    Nuclear Repulsion Energy =              4.7625948960300004
    One-Electron Energy =                -149.9568385101665058
    Two-Electron Energy =                  45.1843836622795934
    Total Energy =                       -100.0098599518568960

Computation Completed


Properties will be evaluated at   0.000000,   0.000000,   0.000000 [a0]

Properties computed using the SCF density matrix

  Nuclear Dipole Moment: [e a0]
     X:     0.0000      Y:     0.0000      Z:    -0.9378

  Electronic Dipole Moment: [e a0]
     X:     0.0000      Y:     0.0000      Z:     0.1056

  Dipole Moment: [e a0]
     X:     0.0000      Y:     0.0000      Z:    -0.8322     Total:     0.8322

  Dipole Moment: [D]
     X:     0.0000      Y:     0.0000      Z:    -2.1152     Total:     2.1152


*** tstop() called on Yorks-Mac.local at Mon Nov 16 02:02:28 2020
Module time:
	user time   =       0.22 seconds =       0.00 minutes
	system time =       0.01 seconds =       0.00 minutes
	total time  =          0 seconds =       0.00 minutes
Total time:
	user time   =       0.67 seconds =       0.01 minutes
	system time =       0.09 seconds =       0.00 minutes
	total time  =          0 seconds =       0.00 minutes
   => Loading Basis Set <=

    Name: CC-PVDZ-JKFIT
    Role: RIFIT
    Keyword: DF_BASIS_MP2
    atoms 1 entry H          line    51 file /Users/york/src/psi4new/psi4/share/psi4/basis/cc-pvdz-jkfit.gbs 
    atoms 2 entry F          line   271 file /Users/york/src/psi4new/psi4/share/psi4/basis/cc-pvdz-jkfit.gbs 

   => Loading Basis Set <=

    Name: STO-3G
    Role: ORBITAL
    Keyword: MINAO_BASIS
    atoms 1 entry H          line    19 file /Users/york/src/psi4new/psi4/share/psi4/basis/sto-3g.gbs 
    atoms 2 entry F          line    91 file /Users/york/src/psi4new/psi4/share/psi4/basis/sto-3g.gbs 


  Read options for space RESTRICTED_DOCC
  Read options for space ACTIVE
  Read options for space RESTRICTED_DOCC

  ==> MO Space Information <==

  -------------------------------------------------
                       A1    A2    B1    B2   Sum
  -------------------------------------------------
    FROZEN_DOCC         0     0     0     0     0
    RESTRICTED_DOCC     0     0     0     0     0
    GAS1                4     0     1     1     6
    GAS2                0     0     0     0     0
    GAS3                0     0     0     0     0
    GAS4                0     0     0     0     0
    GAS5                0     0     0     0     0
    GAS6                0     0     0     0     0
    RESTRICTED_UOCC     6     1     3     3    13
    FROZEN_UOCC         0     0     0     0     0
    Total              10     1     4     4    19
  -------------------------------------------------
  Forte will use psi4 integrals
  JK created using MemDF integrals
  DFHelper Memory: AOs need 0.000 GiB; user supplied 0.415 GiB. Using in-core AOs.



  ==> Integral Transformation <==

  Number of molecular orbitals:                         19
  Number of correlated molecular orbitals:              19
  Number of frozen occupied orbitals:                    0
  Number of frozen unoccupied orbitals:                  0
  Two-electron integral type:              Density fitting


  Computing density fitted integrals 

  Number of auxiliary basis functions:  93
  Need 268.58 KB to store DF integrals
  DFHelper Memory: AOs need 0.000 GiB; user supplied 0.488 GiB. Using in-core AOs.


  Transforming DF Integrals
  Timing for density-fitting transformation:                  0.006 s.

  Timing for freezing core and virtual orbitals:              0.000 s.
  Timing for computing density-fitted integrals:              0.030 s.

                -----------------------------------------------
                  Complete Active Space Self Consistent Field
                                 Kevin Hannon
                -----------------------------------------------


  ==> CASSCF Iteration <==

  iter    ||g||           Delta_E            E_CASSCF       CONV_TYPE

  Transform Integrals takes 0.00072841 s.

  Performing a CAS with CAS

  ==> Summary of Active Space Solver Input <==

    Irrep.  Multi.(2ms)      N
    --------------------------
       A1      1  (  0)      1
    --------------------------
    N: number of roots
    ms: spin z component
    Total number of roots:   1
    --------------------------


              ---------------------------------------------------
                Complete Active Space Configuration Interaction
                                  Chenyang Li
              ---------------------------------------------------


  ==> Input Summary <==

    No. a electrons in active      =     5
    No. b electrons in active      =     5
    multiplicity                   =     1
    spin ms (2 * Sz)               =     0

  ==> Orbital Spaces <==

    TOTAL MO                      [   10     1     4     4 ]
    FROZEN CORE                   [    0     0     0     0 ]
    FROZEN VIRTUAL                [    0     0     0     0 ]
    CORRELATED MO                 [   10     1     4     4 ]
    CORE                          [    0     0     0     0 ]
    ACTIVE                        [    4     0     1     1 ]
    VIRTUAL                       [    6     1     3     3 ]
  Forming alpha and beta strings      ...  Done. Timing        0.000016 s
  Forming determinants                ...  Done. Timing        0.000005 s

  ==> Determinants Summary <==

    number of alpha active electrons         =     5
    number of beta active electrons          =     5
    root symmetry (zero based)               =     0
    number of determinants                   =    18

  Diagonalizing Hamiltonian           ...

  ==> Computing Coupling Lists <==
  --------------------------------
        α          0.000048 s
        β          0.000045 s
        αα         0.000069 s
        ββ         0.000067 s
        αβ         0.000165 s
  --------------------------------

  Davidson-Liu solver algorithm using SigmaVectorSparseList sigma algorithm

  Performing diagonalization of the H matrix
  Found 12 roots with 2S+1 = 1 *
  Found 6 roots with 2S+1 = 3  Done. Timing        0.000726 s

  * * * * * * * * * * * * * * * * *
  *  CI Vectors & Configurations  *
  * * * * * * * * * * * * * * * * *

  ==> Root No. 0 <==

    2220 2 2          0.9988138546

    Total Energy:   -100.013387957180953



  ==> Permanent Dipole Moments (A1) <==

  Only print nonzero (> 1.0e-5) elements.
  Permanent dipole moments (a.u.) 0 -> 0:  X:  0.0000  Y:  0.0000  Z: -0.8027  Total:  0.8027


  ==> Energy Summary <==

    Multi.(2ms)  Irrep.  No.               Energy
    ---------------------------------------------
       1  (  0)    A1     0     -100.013387957181
    ---------------------------------------------
 Computing  1RDMs (0 Singlet A1 - 0 Singlet A1) ... Done. Timing        0.000102 s
 Computing  2RDMs (0 Singlet A1 - 0 Singlet A1) ... Done. Timing        0.000283 s

 CAS took 0.001967 seconds.

 FormFockIntermediates took 0.00033200 s.

 FormOrbitalGradient took 0.00013988 s.

 FormDiagHessian took 0.00000742 s.

 Update function takes 0.00049858 s
    1 0.002833941241  -100.013387957181  -100.013387957181    0.0 s       ~

  Transform Integrals takes 0.00056052 s.

  Performing a CAS with CAS

  ==> Summary of Active Space Solver Input <==

    Irrep.  Multi.(2ms)      N
    --------------------------
       A1      1  (  0)      1
    --------------------------
    N: number of roots
    ms: spin z component
    Total number of roots:   1
    --------------------------


              ---------------------------------------------------
                Complete Active Space Configuration Interaction
                                  Chenyang Li
              ---------------------------------------------------


  ==> Input Summary <==

    No. a electrons in active      =     5
    No. b electrons in active      =     5
    multiplicity                   =     1
    spin ms (2 * Sz)               =     0

  ==> Orbital Spaces <==

    TOTAL MO                      [   10     1     4     4 ]
    FROZEN CORE                   [    0     0     0     0 ]
    FROZEN VIRTUAL                [    0     0     0     0 ]
    CORRELATED MO                 [   10     1     4     4 ]
    CORE                          [    0     0     0     0 ]
    ACTIVE                        [    4     0     1     1 ]
    VIRTUAL                       [    6     1     3     3 ]
  Forming alpha and beta strings      ...  Done. Timing        0.000015 s
  Forming determinants                ...  Done. Timing        0.000005 s

  ==> Determinants Summary <==

    number of alpha active electrons         =     5
    number of beta active electrons          =     5
    root symmetry (zero based)               =     0
    number of determinants                   =    18

  Diagonalizing Hamiltonian           ...

  ==> Computing Coupling Lists <==
  --------------------------------
        α          0.000046 s
        β          0.000045 s
        αα         0.000069 s
        ββ         0.000067 s
        αβ         0.000165 s
  --------------------------------

  Davidson-Liu solver algorithm using SigmaVectorSparseList sigma algorithm

  Performing diagonalization of the H matrix
  Found 12 roots with 2S+1 = 1 *
  Found 6 roots with 2S+1 = 3  Done. Timing        0.000669 s

  * * * * * * * * * * * * * * * * *
  *  CI Vectors & Configurations  *
  * * * * * * * * * * * * * * * * *

  ==> Root No. 0 <==

    2220 2 2         -0.9926318290
    2202 2 2          0.1043427684

    Total Energy:   -100.033403056322470



  ==> Permanent Dipole Moments (A1) <==

  Only print nonzero (> 1.0e-5) elements.
  Permanent dipole moments (a.u.) 0 -> 0:  X:  0.0000  Y:  0.0000  Z: -0.7652  Total:  0.7652


  ==> Energy Summary <==

    Multi.(2ms)  Irrep.  No.               Energy
    ---------------------------------------------
       1  (  0)    A1     0     -100.033403056322
    ---------------------------------------------
 Computing  1RDMs (0 Singlet A1 - 0 Singlet A1) ... Done. Timing        0.000097 s
 Computing  2RDMs (0 Singlet A1 - 0 Singlet A1) ... Done. Timing        0.000278 s

 CAS took 0.001771 seconds.

 FormFockIntermediates took 0.00031295 s.

 FormOrbitalGradient took 0.00009877 s.

 FormDiagHessian took 0.00000449 s.

 Update function takes 0.00043282 s
    2 0.008539860764    -0.020015099142  -100.033403056322    0.0 s       ~

  Transform Integrals takes 0.00056396 s.

  Performing a CAS with CAS

  ==> Summary of Active Space Solver Input <==

    Irrep.  Multi.(2ms)      N
    --------------------------
       A1      1  (  0)      1
    --------------------------
    N: number of roots
    ms: spin z component
    Total number of roots:   1
    --------------------------


              ---------------------------------------------------
                Complete Active Space Configuration Interaction
                                  Chenyang Li
              ---------------------------------------------------


  ==> Input Summary <==

    No. a electrons in active      =     5
    No. b electrons in active      =     5
    multiplicity                   =     1
    spin ms (2 * Sz)               =     0

  ==> Orbital Spaces <==

    TOTAL MO                      [   10     1     4     4 ]
    FROZEN CORE                   [    0     0     0     0 ]
    FROZEN VIRTUAL                [    0     0     0     0 ]
    CORRELATED MO                 [   10     1     4     4 ]
    CORE                          [    0     0     0     0 ]
    ACTIVE                        [    4     0     1     1 ]
    VIRTUAL                       [    6     1     3     3 ]
  Forming alpha and beta strings      ...  Done. Timing        0.000015 s
  Forming determinants                ...  Done. Timing        0.000005 s

  ==> Determinants Summary <==

    number of alpha active electrons         =     5
    number of beta active electrons          =     5
    root symmetry (zero based)               =     0
    number of determinants                   =    18

  Diagonalizing Hamiltonian           ...

  ==> Computing Coupling Lists <==
  --------------------------------
        α          0.000046 s
        β          0.000043 s
        αα         0.000070 s
        ββ         0.000069 s
        αβ         0.000163 s
  --------------------------------

  Davidson-Liu solver algorithm using SigmaVectorSparseList sigma algorithm

  Performing diagonalization of the H matrix
  Found 12 roots with 2S+1 = 1 *
  Found 6 roots with 2S+1 = 3  Done. Timing        0.000769 s

  * * * * * * * * * * * * * * * * *
  *  CI Vectors & Configurations  *
  * * * * * * * * * * * * * * * * *

  ==> Root No. 0 <==

    2220 2 2         -0.9921160860
    2202 2 2          0.1076030613

    Total Energy:   -100.037938312549244



  ==> Permanent Dipole Moments (A1) <==

  Only print nonzero (> 1.0e-5) elements.
  Permanent dipole moments (a.u.) 0 -> 0:  X:  0.0000  Y:  0.0000  Z: -0.7547  Total:  0.7547


  ==> Energy Summary <==

    Multi.(2ms)  Irrep.  No.               Energy
    ---------------------------------------------
       1  (  0)    A1     0     -100.037938312549
    ---------------------------------------------
 Computing  1RDMs (0 Singlet A1 - 0 Singlet A1) ... Done. Timing        0.000095 s
 Computing  2RDMs (0 Singlet A1 - 0 Singlet A1) ... Done. Timing        0.000269 s

 CAS took 0.001849 seconds.

 FormFockIntermediates took 0.00032125 s.

 FormOrbitalGradient took 0.00009775 s.

 FormDiagHessian took 0.00000456 s.

 Update function takes 0.00045452 s
    3 0.003301585913    -0.004535256227  -100.037938312549    0.0 s  DIIS ~

  Transform Integrals takes 0.00055908 s.

  Performing a CAS with CAS

  ==> Summary of Active Space Solver Input <==

    Irrep.  Multi.(2ms)      N
    --------------------------
       A1      1  (  0)      1
    --------------------------
    N: number of roots
    ms: spin z component
    Total number of roots:   1
    --------------------------


              ---------------------------------------------------
                Complete Active Space Configuration Interaction
                                  Chenyang Li
              ---------------------------------------------------


  ==> Input Summary <==

    No. a electrons in active      =     5
    No. b electrons in active      =     5
    multiplicity                   =     1
    spin ms (2 * Sz)               =     0

  ==> Orbital Spaces <==

    TOTAL MO                      [   10     1     4     4 ]
    FROZEN CORE                   [    0     0     0     0 ]
    FROZEN VIRTUAL                [    0     0     0     0 ]
    CORRELATED MO                 [   10     1     4     4 ]
    CORE                          [    0     0     0     0 ]
    ACTIVE                        [    4     0     1     1 ]
    VIRTUAL                       [    6     1     3     3 ]
  Forming alpha and beta strings      ...  Done. Timing        0.000015 s
  Forming determinants                ...  Done. Timing        0.000005 s

  ==> Determinants Summary <==

    number of alpha active electrons         =     5
    number of beta active electrons          =     5
    root symmetry (zero based)               =     0
    number of determinants                   =    18

  Diagonalizing Hamiltonian           ...

  ==> Computing Coupling Lists <==
  --------------------------------
        α          0.000046 s
        β          0.000043 s
        αα         0.000107 s
        ββ         0.000105 s
        αβ         0.000254 s
  --------------------------------

  Davidson-Liu solver algorithm using SigmaVectorSparseList sigma algorithm

  Performing diagonalization of the H matrix
  Found 12 roots with 2S+1 = 1 *
  Found 6 roots with 2S+1 = 3  Done. Timing        0.000929 s

  * * * * * * * * * * * * * * * * *
  *  CI Vectors & Configurations  *
  * * * * * * * * * * * * * * * * *

  ==> Root No. 0 <==

    2220 2 2         -0.9923161635
    2202 2 2          0.1069929673

    Total Energy:   -100.038584186924979



  ==> Permanent Dipole Moments (A1) <==

  Only print nonzero (> 1.0e-5) elements.
  Permanent dipole moments (a.u.) 0 -> 0:  X:  0.0000  Y:  0.0000  Z: -0.7546  Total:  0.7546


  ==> Energy Summary <==

    Multi.(2ms)  Irrep.  No.               Energy
    ---------------------------------------------
       1  (  0)    A1     0     -100.038584186925
    ---------------------------------------------
 Computing  1RDMs (0 Singlet A1 - 0 Singlet A1) ... Done. Timing        0.000100 s
 Computing  2RDMs (0 Singlet A1 - 0 Singlet A1) ... Done. Timing        0.000265 s

 CAS took 0.002003 seconds.

 FormFockIntermediates took 0.00031810 s.

 FormOrbitalGradient took 0.00010145 s.

 FormDiagHessian took 0.00000450 s.

 Update function takes 0.00044367 s
    4 0.000958944125    -0.000645874376  -100.038584186925    0.0 s  DIIS ~

  Transform Integrals takes 0.00063465 s.

  Performing a CAS with CAS

  ==> Summary of Active Space Solver Input <==

    Irrep.  Multi.(2ms)      N
    --------------------------
       A1      1  (  0)      1
    --------------------------
    N: number of roots
    ms: spin z component
    Total number of roots:   1
    --------------------------


              ---------------------------------------------------
                Complete Active Space Configuration Interaction
                                  Chenyang Li
              ---------------------------------------------------


  ==> Input Summary <==

    No. a electrons in active      =     5
    No. b electrons in active      =     5
    multiplicity                   =     1
    spin ms (2 * Sz)               =     0

  ==> Orbital Spaces <==

    TOTAL MO                      [   10     1     4     4 ]
    FROZEN CORE                   [    0     0     0     0 ]
    FROZEN VIRTUAL                [    0     0     0     0 ]
    CORRELATED MO                 [   10     1     4     4 ]
    CORE                          [    0     0     0     0 ]
    ACTIVE                        [    4     0     1     1 ]
    VIRTUAL                       [    6     1     3     3 ]
  Forming alpha and beta strings      ...  Done. Timing        0.000015 s
  Forming determinants                ...  Done. Timing        0.000005 s

  ==> Determinants Summary <==

    number of alpha active electrons         =     5
    number of beta active electrons          =     5
    root symmetry (zero based)               =     0
    number of determinants                   =    18

  Diagonalizing Hamiltonian           ...

  ==> Computing Coupling Lists <==
  --------------------------------
        α          0.000047 s
        β          0.000046 s
        αα         0.000072 s
        ββ         0.000069 s
        αβ         0.000167 s
  --------------------------------

  Davidson-Liu solver algorithm using SigmaVectorSparseList sigma algorithm

  Performing diagonalization of the H matrix
  Found 12 roots with 2S+1 = 1 *
  Found 6 roots with 2S+1 = 3  Done. Timing        0.000677 s

  * * * * * * * * * * * * * * * * *
  *  CI Vectors & Configurations  *
  * * * * * * * * * * * * * * * * *

  ==> Root No. 0 <==

    2220 2 2         -0.9923336515
    2202 2 2          0.1072975753

    Total Energy:   -100.038621361516022



  ==> Permanent Dipole Moments (A1) <==

  Only print nonzero (> 1.0e-5) elements.
  Permanent dipole moments (a.u.) 0 -> 0:  X:  0.0000  Y:  0.0000  Z: -0.7537  Total:  0.7537


  ==> Energy Summary <==

    Multi.(2ms)  Irrep.  No.               Energy
    ---------------------------------------------
       1  (  0)    A1     0     -100.038621361516
    ---------------------------------------------
 Computing  1RDMs (0 Singlet A1 - 0 Singlet A1) ... Done. Timing        0.000098 s
 Computing  2RDMs (0 Singlet A1 - 0 Singlet A1) ... Done. Timing        0.000262 s

 CAS took 0.001802 seconds.

 FormFockIntermediates took 0.00043886 s.

 FormOrbitalGradient took 0.00014206 s.

 FormDiagHessian took 0.00000456 s.

 Update function takes 0.00061901 s
    5 0.000353325499    -0.000037174591  -100.038621361516    0.0 s  DIIS ~

  Transform Integrals takes 0.00055143 s.

  Performing a CAS with CAS

  ==> Summary of Active Space Solver Input <==

    Irrep.  Multi.(2ms)      N
    --------------------------
       A1      1  (  0)      1
    --------------------------
    N: number of roots
    ms: spin z component
    Total number of roots:   1
    --------------------------


              ---------------------------------------------------
                Complete Active Space Configuration Interaction
                                  Chenyang Li
              ---------------------------------------------------


  ==> Input Summary <==

    No. a electrons in active      =     5
    No. b electrons in active      =     5
    multiplicity                   =     1
    spin ms (2 * Sz)               =     0

  ==> Orbital Spaces <==

    TOTAL MO                      [   10     1     4     4 ]
    FROZEN CORE                   [    0     0     0     0 ]
    FROZEN VIRTUAL                [    0     0     0     0 ]
    CORRELATED MO                 [   10     1     4     4 ]
    CORE                          [    0     0     0     0 ]
    ACTIVE                        [    4     0     1     1 ]
    VIRTUAL                       [    6     1     3     3 ]
  Forming alpha and beta strings      ...  Done. Timing        0.000014 s
  Forming determinants                ...  Done. Timing        0.000005 s

  ==> Determinants Summary <==

    number of alpha active electrons         =     5
    number of beta active electrons          =     5
    root symmetry (zero based)               =     0
    number of determinants                   =    18

  Diagonalizing Hamiltonian           ...

  ==> Computing Coupling Lists <==
  --------------------------------
        α          0.000049 s
        β          0.000043 s
        αα         0.000070 s
        ββ         0.000070 s
        αβ         0.000167 s
  --------------------------------

  Davidson-Liu solver algorithm using SigmaVectorSparseList sigma algorithm

  Performing diagonalization of the H matrix
  Found 12 roots with 2S+1 = 1 *
  Found 6 roots with 2S+1 = 3  Done. Timing        0.000673 s

  * * * * * * * * * * * * * * * * *
  *  CI Vectors & Configurations  *
  * * * * * * * * * * * * * * * * *

  ==> Root No. 0 <==

    2220 2 2         -0.9923286020
    2202 2 2          0.1075039169

    Total Energy:   -100.038624262953647



  ==> Permanent Dipole Moments (A1) <==

  Only print nonzero (> 1.0e-5) elements.
  Permanent dipole moments (a.u.) 0 -> 0:  X:  0.0000  Y:  0.0000  Z: -0.7541  Total:  0.7541


  ==> Energy Summary <==

    Multi.(2ms)  Irrep.  No.               Energy
    ---------------------------------------------
       1  (  0)    A1     0     -100.038624262954
    ---------------------------------------------
 Computing  1RDMs (0 Singlet A1 - 0 Singlet A1) ... Done. Timing        0.000096 s
 Computing  2RDMs (0 Singlet A1 - 0 Singlet A1) ... Done. Timing        0.000266 s

 CAS took 0.001758 seconds.

 FormFockIntermediates took 0.00031768 s.

 FormOrbitalGradient took 0.00010144 s.

 FormDiagHessian took 0.00000457 s.

 Update function takes 0.00044082 s
    6 0.000121917377    -0.000002901438  -100.038624262954    0.0 s  DIIS ~

  Transform Integrals takes 0.00056396 s.

  Performing a CAS with CAS

  ==> Summary of Active Space Solver Input <==

    Irrep.  Multi.(2ms)      N
    --------------------------
       A1      1  (  0)      1
    --------------------------
    N: number of roots
    ms: spin z component
    Total number of roots:   1
    --------------------------


              ---------------------------------------------------
                Complete Active Space Configuration Interaction
                                  Chenyang Li
              ---------------------------------------------------


  ==> Input Summary <==

    No. a electrons in active      =     5
    No. b electrons in active      =     5
    multiplicity                   =     1
    spin ms (2 * Sz)               =     0

  ==> Orbital Spaces <==

    TOTAL MO                      [   10     1     4     4 ]
    FROZEN CORE                   [    0     0     0     0 ]
    FROZEN VIRTUAL                [    0     0     0     0 ]
    CORRELATED MO                 [   10     1     4     4 ]
    CORE                          [    0     0     0     0 ]
    ACTIVE                        [    4     0     1     1 ]
    VIRTUAL                       [    6     1     3     3 ]
  Forming alpha and beta strings      ...  Done. Timing        0.000014 s
  Forming determinants                ...  Done. Timing        0.000005 s

  ==> Determinants Summary <==

    number of alpha active electrons         =     5
    number of beta active electrons          =     5
    root symmetry (zero based)               =     0
    number of determinants                   =    18

  Diagonalizing Hamiltonian           ...

  ==> Computing Coupling Lists <==
  --------------------------------
        α          0.000048 s
        β          0.000043 s
        αα         0.000069 s
        ββ         0.000068 s
        αβ         0.000166 s
  --------------------------------

  Davidson-Liu solver algorithm using SigmaVectorSparseList sigma algorithm

  Performing diagonalization of the H matrix
  Found 12 roots with 2S+1 = 1 *
  Found 6 roots with 2S+1 = 3  Done. Timing        0.000726 s

  * * * * * * * * * * * * * * * * *
  *  CI Vectors & Configurations  *
  * * * * * * * * * * * * * * * * *

  ==> Root No. 0 <==

    2220 2 2         -0.9923112056
    2202 2 2          0.1077627179

    Total Energy:   -100.038625191413757



  ==> Permanent Dipole Moments (A1) <==

  Only print nonzero (> 1.0e-5) elements.
  Permanent dipole moments (a.u.) 0 -> 0:  X:  0.0000  Y:  0.0000  Z: -0.7538  Total:  0.7538


  ==> Energy Summary <==

    Multi.(2ms)  Irrep.  No.               Energy
    ---------------------------------------------
       1  (  0)    A1     0     -100.038625191414
    ---------------------------------------------
 Computing  1RDMs (0 Singlet A1 - 0 Singlet A1) ... Done. Timing        0.000099 s
 Computing  2RDMs (0 Singlet A1 - 0 Singlet A1) ... Done. Timing        0.000266 s

 CAS took 0.001888 seconds.

 FormFockIntermediates took 0.00031899 s.

 FormOrbitalGradient took 0.00010352 s.

 FormDiagHessian took 0.00000492 s.

 Update function takes 0.00044503 s
    7 0.000045585446    -0.000000928460  -100.038625191414    0.0 s  DIIS ~

  Transform Integrals takes 0.00056147 s.

  Performing a CAS with CAS

  ==> Summary of Active Space Solver Input <==

    Irrep.  Multi.(2ms)      N
    --------------------------
       A1      1  (  0)      1
    --------------------------
    N: number of roots
    ms: spin z component
    Total number of roots:   1
    --------------------------


              ---------------------------------------------------
                Complete Active Space Configuration Interaction
                                  Chenyang Li
              ---------------------------------------------------


  ==> Input Summary <==

    No. a electrons in active      =     5
    No. b electrons in active      =     5
    multiplicity                   =     1
    spin ms (2 * Sz)               =     0

  ==> Orbital Spaces <==

    TOTAL MO                      [   10     1     4     4 ]
    FROZEN CORE                   [    0     0     0     0 ]
    FROZEN VIRTUAL                [    0     0     0     0 ]
    CORRELATED MO                 [   10     1     4     4 ]
    CORE                          [    0     0     0     0 ]
    ACTIVE                        [    4     0     1     1 ]
    VIRTUAL                       [    6     1     3     3 ]
  Forming alpha and beta strings      ...  Done. Timing        0.000014 s
  Forming determinants                ...  Done. Timing        0.000005 s

  ==> Determinants Summary <==

    number of alpha active electrons         =     5
    number of beta active electrons          =     5
    root symmetry (zero based)               =     0
    number of determinants                   =    18

  Diagonalizing Hamiltonian           ...

  ==> Computing Coupling Lists <==
  --------------------------------
        α          0.000046 s
        β          0.000045 s
        αα         0.000070 s
        ββ         0.000068 s
        αβ         0.000201 s
  --------------------------------

  Davidson-Liu solver algorithm using SigmaVectorSparseList sigma algorithm

  Performing diagonalization of the H matrix
  Found 12 roots with 2S+1 = 1 *
  Found 6 roots with 2S+1 = 3  Done. Timing        0.000705 s

  * * * * * * * * * * * * * * * * *
  *  CI Vectors & Configurations  *
  * * * * * * * * * * * * * * * * *

  ==> Root No. 0 <==

    2220 2 2         -0.9923098799
    2202 2 2          0.1077801435

    Total Energy:   -100.038625207188829



  ==> Permanent Dipole Moments (A1) <==

  Only print nonzero (> 1.0e-5) elements.
  Permanent dipole moments (a.u.) 0 -> 0:  X:  0.0000  Y:  0.0000  Z: -0.7538  Total:  0.7538


  ==> Energy Summary <==

    Multi.(2ms)  Irrep.  No.               Energy
    ---------------------------------------------
       1  (  0)    A1     0     -100.038625207189
    ---------------------------------------------
 Computing  1RDMs (0 Singlet A1 - 0 Singlet A1) ... Done. Timing        0.000098 s
 Computing  2RDMs (0 Singlet A1 - 0 Singlet A1) ... Done. Timing        0.000265 s

 CAS took 0.001767 seconds.

 FormFockIntermediates took 0.00031748 s.

 FormOrbitalGradient took 0.00009986 s.

 FormDiagHessian took 0.00000456 s.

 Update function takes 0.00043995 s
    8 0.000008976176    -0.000000015775  -100.038625207189    0.0 s  DIIS ~

  Transform Integrals takes 0.00058674 s.

  Performing a CAS with CAS

  ==> Summary of Active Space Solver Input <==

    Irrep.  Multi.(2ms)      N
    --------------------------
       A1      1  (  0)      1
    --------------------------
    N: number of roots
    ms: spin z component
    Total number of roots:   1
    --------------------------


              ---------------------------------------------------
                Complete Active Space Configuration Interaction
                                  Chenyang Li
              ---------------------------------------------------


  ==> Input Summary <==

    No. a electrons in active      =     5
    No. b electrons in active      =     5
    multiplicity                   =     1
    spin ms (2 * Sz)               =     0

  ==> Orbital Spaces <==

    TOTAL MO                      [   10     1     4     4 ]
    FROZEN CORE                   [    0     0     0     0 ]
    FROZEN VIRTUAL                [    0     0     0     0 ]
    CORRELATED MO                 [   10     1     4     4 ]
    CORE                          [    0     0     0     0 ]
    ACTIVE                        [    4     0     1     1 ]
    VIRTUAL                       [    6     1     3     3 ]
  Forming alpha and beta strings      ...  Done. Timing        0.000015 s
  Forming determinants                ...  Done. Timing        0.000005 s

  ==> Determinants Summary <==

    number of alpha active electrons         =     5
    number of beta active electrons          =     5
    root symmetry (zero based)               =     0
    number of determinants                   =    18

  Diagonalizing Hamiltonian           ...

  ==> Computing Coupling Lists <==
  --------------------------------
        α          0.000048 s
        β          0.000046 s
        αα         0.000075 s
        ββ         0.000071 s
        αβ         0.000175 s
  --------------------------------

  Davidson-Liu solver algorithm using SigmaVectorSparseList sigma algorithm

  Performing diagonalization of the H matrix
  Found 12 roots with 2S+1 = 1 *
  Found 6 roots with 2S+1 = 3  Done. Timing        0.000697 s

  * * * * * * * * * * * * * * * * *
  *  CI Vectors & Configurations  *
  * * * * * * * * * * * * * * * * *

  ==> Root No. 0 <==

    2220 2 2         -0.9923089314
    2202 2 2          0.1077857823

    Total Energy:   -100.038625208060722



  ==> Permanent Dipole Moments (A1) <==

  Only print nonzero (> 1.0e-5) elements.
  Permanent dipole moments (a.u.) 0 -> 0:  X:  0.0000  Y:  0.0000  Z: -0.7538  Total:  0.7538


  ==> Energy Summary <==

    Multi.(2ms)  Irrep.  No.               Energy
    ---------------------------------------------
       1  (  0)    A1     0     -100.038625208061
    ---------------------------------------------
 Computing  1RDMs (0 Singlet A1 - 0 Singlet A1) ... Done. Timing        0.000099 s
 Computing  2RDMs (0 Singlet A1 - 0 Singlet A1) ... Done. Timing        0.000267 s

 CAS took 0.001788 seconds.

 FormFockIntermediates took 0.00032106 s.

 FormOrbitalGradient took 0.00009888 s.

 FormDiagHessian took 0.00000448 s.

 Update function takes 0.00044272 s
    9 0.000003050749    -0.000000000872  -100.038625208061    0.0 s  DIIS ~

  Transform Integrals takes 0.00067290 s.

  Performing a CAS with CAS

  ==> Summary of Active Space Solver Input <==

    Irrep.  Multi.(2ms)      N
    --------------------------
       A1      1  (  0)      1
    --------------------------
    N: number of roots
    ms: spin z component
    Total number of roots:   1
    --------------------------


              ---------------------------------------------------
                Complete Active Space Configuration Interaction
                                  Chenyang Li
              ---------------------------------------------------


  ==> Input Summary <==

    No. a electrons in active      =     5
    No. b electrons in active      =     5
    multiplicity                   =     1
    spin ms (2 * Sz)               =     0

  ==> Orbital Spaces <==

    TOTAL MO                      [   10     1     4     4 ]
    FROZEN CORE                   [    0     0     0     0 ]
    FROZEN VIRTUAL                [    0     0     0     0 ]
    CORRELATED MO                 [   10     1     4     4 ]
    CORE                          [    0     0     0     0 ]
    ACTIVE                        [    4     0     1     1 ]
    VIRTUAL                       [    6     1     3     3 ]
  Forming alpha and beta strings      ...  Done. Timing        0.000015 s
  Forming determinants                ...  Done. Timing        0.000005 s

  ==> Determinants Summary <==

    number of alpha active electrons         =     5
    number of beta active electrons          =     5
    root symmetry (zero based)               =     0
    number of determinants                   =    18

  Diagonalizing Hamiltonian           ...

  ==> Computing Coupling Lists <==
  --------------------------------
        α          0.000050 s
        β          0.000047 s
        αα         0.000074 s
        ββ         0.000070 s
        αβ         0.000172 s
  --------------------------------

  Davidson-Liu solver algorithm using SigmaVectorSparseList sigma algorithm

  Performing diagonalization of the H matrix
  Found 12 roots with 2S+1 = 1 *
  Found 6 roots with 2S+1 = 3  Done. Timing        0.000696 s

  * * * * * * * * * * * * * * * * *
  *  CI Vectors & Configurations  *
  * * * * * * * * * * * * * * * * *

  ==> Root No. 0 <==

    2220 2 2         -0.9923087145
    2202 2 2          0.1077853446

    Total Energy:   -100.038625208202717



  ==> Permanent Dipole Moments (A1) <==

  Only print nonzero (> 1.0e-5) elements.
  Permanent dipole moments (a.u.) 0 -> 0:  X:  0.0000  Y:  0.0000  Z: -0.7538  Total:  0.7538


  ==> Energy Summary <==

    Multi.(2ms)  Irrep.  No.               Energy
    ---------------------------------------------
       1  (  0)    A1     0     -100.038625208203
    ---------------------------------------------
 Computing  1RDMs (0 Singlet A1 - 0 Singlet A1) ... Done. Timing        0.000101 s
 Computing  2RDMs (0 Singlet A1 - 0 Singlet A1) ... Done. Timing        0.000276 s

 CAS took 0.001826 seconds.

 FormFockIntermediates took 0.00039307 s.

 FormOrbitalGradient took 0.00010609 s.

 FormDiagHessian took 0.00000480 s.

 Update function takes 0.00052518 s
   10 0.000000667776    -0.000000000142  -100.038625208203    0.0 s  DIIS ~

  Transform Integrals takes 0.00059679 s.

  Performing a CAS with CAS

  ==> Summary of Active Space Solver Input <==

    Irrep.  Multi.(2ms)      N
    --------------------------
       A1      1  (  0)      1
    --------------------------
    N: number of roots
    ms: spin z component
    Total number of roots:   1
    --------------------------


              ---------------------------------------------------
                Complete Active Space Configuration Interaction
                                  Chenyang Li
              ---------------------------------------------------


  ==> Input Summary <==

    No. a electrons in active      =     5
    No. b electrons in active      =     5
    multiplicity                   =     1
    spin ms (2 * Sz)               =     0

  ==> Orbital Spaces <==

    TOTAL MO                      [   10     1     4     4 ]
    FROZEN CORE                   [    0     0     0     0 ]
    FROZEN VIRTUAL                [    0     0     0     0 ]
    CORRELATED MO                 [   10     1     4     4 ]
    CORE                          [    0     0     0     0 ]
    ACTIVE                        [    4     0     1     1 ]
    VIRTUAL                       [    6     1     3     3 ]
  Forming alpha and beta strings      ...  Done. Timing        0.000015 s
  Forming determinants                ...  Done. Timing        0.000005 s

  ==> Determinants Summary <==

    number of alpha active electrons         =     5
    number of beta active electrons          =     5
    root symmetry (zero based)               =     0
    number of determinants                   =    18

  Diagonalizing Hamiltonian           ...

  ==> Computing Coupling Lists <==
  --------------------------------
        α          0.000048 s
        β          0.000045 s
        αα         0.000071 s
        ββ         0.000069 s
        αβ         0.000170 s
  --------------------------------

  Davidson-Liu solver algorithm using SigmaVectorSparseList sigma algorithm

  Performing diagonalization of the H matrix
  Found 12 roots with 2S+1 = 1 *
  Found 6 roots with 2S+1 = 3  Done. Timing        0.000731 s

  * * * * * * * * * * * * * * * * *
  *  CI Vectors & Configurations  *
  * * * * * * * * * * * * * * * * *

  ==> Root No. 0 <==

    2220 2 2         -0.9923086639
    2202 2 2          0.1077854332

    Total Energy:   -100.038625208209069



  ==> Permanent Dipole Moments (A1) <==

  Only print nonzero (> 1.0e-5) elements.
  Permanent dipole moments (a.u.) 0 -> 0:  X:  0.0000  Y:  0.0000  Z: -0.7538  Total:  0.7538


  ==> Energy Summary <==

    Multi.(2ms)  Irrep.  No.               Energy
    ---------------------------------------------
       1  (  0)    A1     0     -100.038625208209
    ---------------------------------------------
 Computing  1RDMs (0 Singlet A1 - 0 Singlet A1) ... Done. Timing        0.000099 s
 Computing  2RDMs (0 Singlet A1 - 0 Singlet A1) ... Done. Timing        0.000264 s

 CAS took 0.001875 seconds.

 FormFockIntermediates took 0.00032413 s.

 FormOrbitalGradient took 0.00010445 s.

 FormDiagHessian took 0.00000516 s.

 Update function takes 0.00045201 s
   11 0.000000110482    -0.000000000006  -100.038625208209    0.0 s  DIIS ~

  Transform Integrals takes 0.00057680 s.

  Performing a CAS with CAS

  ==> Summary of Active Space Solver Input <==

    Irrep.  Multi.(2ms)      N
    --------------------------
       A1      1  (  0)      1
    --------------------------
    N: number of roots
    ms: spin z component
    Total number of roots:   1
    --------------------------


              ---------------------------------------------------
                Complete Active Space Configuration Interaction
                                  Chenyang Li
              ---------------------------------------------------


  ==> Input Summary <==

    No. a electrons in active      =     5
    No. b electrons in active      =     5
    multiplicity                   =     1
    spin ms (2 * Sz)               =     0

  ==> Orbital Spaces <==

    TOTAL MO                      [   10     1     4     4 ]
    FROZEN CORE                   [    0     0     0     0 ]
    FROZEN VIRTUAL                [    0     0     0     0 ]
    CORRELATED MO                 [   10     1     4     4 ]
    CORE                          [    0     0     0     0 ]
    ACTIVE                        [    4     0     1     1 ]
    VIRTUAL                       [    6     1     3     3 ]
  Forming alpha and beta strings      ...  Done. Timing        0.000015 s
  Forming determinants                ...  Done. Timing        0.000005 s

  ==> Determinants Summary <==

    number of alpha active electrons         =     5
    number of beta active electrons          =     5
    root symmetry (zero based)               =     0
    number of determinants                   =    18

  Diagonalizing Hamiltonian           ...

  ==> Computing Coupling Lists <==
  --------------------------------
        α          0.000049 s
        β          0.000047 s
        αα         0.000071 s
        ββ         0.000072 s
        αβ         0.000166 s
  --------------------------------

  Davidson-Liu solver algorithm using SigmaVectorSparseList sigma algorithm

  Performing diagonalization of the H matrix
  Found 12 roots with 2S+1 = 1 *
  Found 6 roots with 2S+1 = 3  Done. Timing        0.000689 s

  * * * * * * * * * * * * * * * * *
  *  CI Vectors & Configurations  *
  * * * * * * * * * * * * * * * * *

  ==> Root No. 0 <==

    2220 2 2         -0.9923086574
    2202 2 2          0.1077854418

    Total Energy:   -100.038625208209098



  ==> Permanent Dipole Moments (A1) <==

  Only print nonzero (> 1.0e-5) elements.
  Permanent dipole moments (a.u.) 0 -> 0:  X:  0.0000  Y:  0.0000  Z: -0.7538  Total:  0.7538


  ==> Energy Summary <==

    Multi.(2ms)  Irrep.  No.               Energy
    ---------------------------------------------
       1  (  0)    A1     0     -100.038625208209
    ---------------------------------------------
 Computing  1RDMs (0 Singlet A1 - 0 Singlet A1) ... Done. Timing        0.000099 s
 Computing  2RDMs (0 Singlet A1 - 0 Singlet A1) ... Done. Timing        0.000270 s

 CAS took 0.001794 seconds.

 FormFockIntermediates took 0.00034749 s.

 FormOrbitalGradient took 0.00010841 s.

 FormDiagHessian took 0.00000497 s.

 Update function takes 0.00048010 s
   12 0.000000031412    -0.000000000000  -100.038625208209    0.0 s  DIIS ~

  Transform Integrals takes 0.00061536 s.

  Performing a CAS with CAS

  ==> Summary of Active Space Solver Input <==

    Irrep.  Multi.(2ms)      N
    --------------------------
       A1      1  (  0)      1
    --------------------------
    N: number of roots
    ms: spin z component
    Total number of roots:   1
    --------------------------


              ---------------------------------------------------
                Complete Active Space Configuration Interaction
                                  Chenyang Li
              ---------------------------------------------------


  ==> Input Summary <==

    No. a electrons in active      =     5
    No. b electrons in active      =     5
    multiplicity                   =     1
    spin ms (2 * Sz)               =     0

  ==> Orbital Spaces <==

    TOTAL MO                      [   10     1     4     4 ]
    FROZEN CORE                   [    0     0     0     0 ]
    FROZEN VIRTUAL                [    0     0     0     0 ]
    CORRELATED MO                 [   10     1     4     4 ]
    CORE                          [    0     0     0     0 ]
    ACTIVE                        [    4     0     1     1 ]
    VIRTUAL                       [    6     1     3     3 ]
  Forming alpha and beta strings      ...  Done. Timing        0.000015 s
  Forming determinants                ...  Done. Timing        0.000005 s

  ==> Determinants Summary <==

    number of alpha active electrons         =     5
    number of beta active electrons          =     5
    root symmetry (zero based)               =     0
    number of determinants                   =    18

  Diagonalizing Hamiltonian           ...

  ==> Computing Coupling Lists <==
  --------------------------------
        α          0.000048 s
        β          0.000047 s
        αα         0.000072 s
        ββ         0.000072 s
        αβ         0.000179 s
  --------------------------------

  Davidson-Liu solver algorithm using SigmaVectorSparseList sigma algorithm

  Performing diagonalization of the H matrix
  Found 12 roots with 2S+1 = 1 *
  Found 6 roots with 2S+1 = 3  Done. Timing        0.000709 s

  * * * * * * * * * * * * * * * * *
  *  CI Vectors & Configurations  *
  * * * * * * * * * * * * * * * * *

  ==> Root No. 0 <==

    2220 2 2         -0.9923086537
    2202 2 2          0.1077854538

    Total Energy:   -100.038625208209297



  ==> Permanent Dipole Moments (A1) <==

  Only print nonzero (> 1.0e-5) elements.
  Permanent dipole moments (a.u.) 0 -> 0:  X:  0.0000  Y:  0.0000  Z: -0.7538  Total:  0.7538


  ==> Energy Summary <==

    Multi.(2ms)  Irrep.  No.               Energy
    ---------------------------------------------
       1  (  0)    A1     0     -100.038625208209
    ---------------------------------------------
 Computing  1RDMs (0 Singlet A1 - 0 Singlet A1) ... Done. Timing        0.000101 s
 Computing  2RDMs (0 Singlet A1 - 0 Singlet A1) ... Done. Timing        0.000278 s

 CAS took 0.001830 seconds.

 FormFockIntermediates took 0.00033298 s.

 FormOrbitalGradient took 0.00010383 s.

 FormDiagHessian took 0.00000499 s.

 Update function takes 0.00046008 s
    13   0.000000003345   -0.000000000000   -100.038625208209    0.003027 s

  A miracle has come to pass: CASSCF iterations have converged.

 @ Final CASSCF Energy = -100.038625208209297


       -----------------------------------------------------------------
                            Semi-Canonical Orbitals
         Chenyang Li, Jeffrey B. Schriber and Francesco A. Evangelista
       -----------------------------------------------------------------

  Took 0.000286 s to build Fock matrix

  ==> Checking Fock Matrix Diagonal Blocks <==

    Off-Diag. Elements       Max           2-Norm
    ------------------------------------------------
    FROZEN_DOCC          0.0000000000   0.0000000000
    FROZEN_UOCC          0.0000000000   0.0000000000
    GAS1                 0.0124297784   0.0197407710
    GAS2                 0.0000000000   0.0000000000
    GAS3                 0.0000000000   0.0000000000
    GAS4                 0.0000000000   0.0000000000
    GAS5                 0.0000000000   0.0000000000
    GAS6                 0.0000000000   0.0000000000
    RESTRICTED_DOCC      0.0000000000   0.0000000000
    RESTRICTED_UOCC      0.2158294916   0.4727729784
    ------------------------------------------------
  Timing for semi-canonicalization:                           0.000 s.

  Time to prepare integrals:        0.057 seconds
  Time to run job          :        0.042 seconds
  Total                    :        0.042 seconds    CASSCF Forte vs Psi4..................................................................PASSED

    Psi4 stopped on: Monday, 16 November 2020 02:02AM
    Psi4 wall time for execution: 0:00:00.90

*** Psi4 exiting successfully. Buy a developer a beer!
