
    -----------------------------------------------------------------------
          Psi4: An Open-Source Ab Initio Electronic Structure Package
                               Psi4 undefined 

                         Git: Rev {master} 67a0d70 dirty


    D. G. A. Smith, L. A. Burns, A. C. Simmonett, R. M. Parrish,
    M. C. Schieber, R. Galvelis, P. Kraus, H. Kruse, R. Di Remigio,
    A. Alenaizan, A. M. James, S. Lehtola, J. P. Misiewicz, M. Scheurer,
    R. A. Shaw, J. B. Schriber, Y. Xie, Z. L. Glick, D. A. Sirianni,
    J. S. O'Brien, J. M. Waldrop, A. Kumar, E. G. Hohenstein,
    B. P. Pritchard, B. R. Brooks, H. F. Schaefer III, A. Yu. Sokolov,
    K. Patkowski, A. E. DePrince III, U. Bozkaya, R. A. King,
    F. A. Evangelista, J. M. Turney, T. D. Crawford, C. D. Sherrill,
    J. Chem. Phys. 152(18) 184108 (2020). https://doi.org/10.1063/5.0006002

                            Additional Code Authors
    E. T. Seidl, C. L. Janssen, E. F. Valeev, M. L. Leininger,
    J. F. Gonthier, R. M. Richard, H. R. McAlexander, M. Saitow, X. Wang,
    P. Verma, and M. H. Lechner

             Previous Authors, Complete List of Code Contributors,
                       and Citations for Specific Modules
    https://github.com/psi4/psi4/blob/master/codemeta.json
    https://github.com/psi4/psi4/graphs/contributors
    http://psicode.org/psi4manual/master/introduction.html#citing-psifour

    -----------------------------------------------------------------------


    Psi4 started on: Tuesday, 16 March 2021 06:10PM

    Process ID: 53068
    Host:       CHE-FEVANGE
    PSIDATADIR: /Users/fevange/Source/psi4/objdir-Debug/stage/share/psi4
    Memory:     500.0 MiB
    Threads:    1
    
  ==> Input File <==

--------------------------------------------------------------------------
#! Generated using commit GITCOMMIT

import forte

refcasscf = -100.038625208209481

molecule HF{
  0 1
  H
  F  1 R

  R = 1.0
}

set {
  basis                  cc-pvdz
  df_basis_scf           cc-pvdz-jkfit
  reference              rhf
  scf_type               df
  maxiter                300
  e_convergence          10
  d_convergence          7
  docc                   [3,0,1,1]
  restricted_docc        [0,0,0,0]
  active                 [4,0,1,1]
  mcscf_maxiter          100
  mcscf_type             df
  mcscf_r_convergence    5
  mcscf_e_convergence    10
  mcscf_diis_start       6
}

Ecasscf, wfn_cas = energy('casscf', return_wfn=True)
compare_values(refcasscf, Ecasscf, 8, "CASSCF energy")

set forte {
  job_type             casscf
  active_space_solver  cas
  int_type             df
  multiplicity         1
  restricted_docc      [0,0,0,0]
  active               [4,0,1,1]
  root_sym             0
  nroot                1
  e_convergence        10
  r_convergence        8
  casscf_e_convergence 10
  casscf_g_convergence 8
}

Eforte = energy('forte')
compare_values(Eforte, Ecasscf, 8, "CASSCF Forte vs Psi4")
--------------------------------------------------------------------------

Scratch directory: /tmp/

*** tstart() called on CHE-FEVANGE
*** at Tue Mar 16 18:10:29 2021

   => Loading Basis Set <=

    Name: CC-PVDZ
    Role: ORBITAL
    Keyword: BASIS
    atoms 1 entry H          line    22 file /Users/fevange/Source/psi4/objdir-Debug/stage/share/psi4/basis/cc-pvdz.gbs 
    atoms 2 entry F          line   228 file /Users/fevange/Source/psi4/objdir-Debug/stage/share/psi4/basis/cc-pvdz.gbs 


         ---------------------------------------------------------
                                   SCF
               by Justin Turney, Rob Parrish, Andy Simmonett
                          and Daniel G. A. Smith
                              RHF Reference
                        1 Threads,    500 MiB Core
         ---------------------------------------------------------

  ==> Geometry <==

    Molecular point group: c2v
    Full point group: C_inf_v

    Geometry (in Angstrom), charge = 0, multiplicity = 1:

       Center              X                  Y                   Z               Mass       
    ------------   -----------------  -----------------  -----------------  -----------------
         H            0.000000000000     0.000000000000    -0.949624435830     1.007825032230
         F            0.000000000000     0.000000000000     0.050375564170    18.998403162730

  Running in c2v symmetry.

  Rotational constants: A = ************  B =     17.61406  C =     17.61406 [cm^-1]
  Rotational constants: A = ************  B = 528056.23735  C = 528056.23735 [MHz]
  Nuclear repulsion =    4.762594896030000

  Charge       = 0
  Multiplicity = 1
  Electrons    = 10
  Nalpha       = 5
  Nbeta        = 5

  ==> Algorithm <==

  SCF Algorithm Type is DF.
  DIIS enabled.
  MOM disabled.
  Fractional occupation disabled.
  Guess Type is SAD.
  Energy threshold   = 1.00e-10
  Density threshold  = 1.00e-07
  Integral threshold = 1.00e-12

  ==> Primary Basis <==

  Basis Set: CC-PVDZ
    Blend: CC-PVDZ
    Number of shells: 9
    Number of basis function: 19
    Number of Cartesian functions: 20
    Spherical Harmonics?: true
    Max angular momentum: 2

   => Loading Basis Set <=

    Name: CC-PVDZ-JKFIT
    Role: JKFIT
    Keyword: DF_BASIS_SCF
    atoms 1 entry H          line    51 file /Users/fevange/Source/psi4/objdir-Debug/stage/share/psi4/basis/cc-pvdz-jkfit.gbs 
    atoms 2 entry F          line   271 file /Users/fevange/Source/psi4/objdir-Debug/stage/share/psi4/basis/cc-pvdz-jkfit.gbs 

  ==> Integral Setup <==

  DFHelper Memory: AOs need 0.000 GiB; user supplied 0.366 GiB. Using in-core AOs.

  ==> MemDFJK: Density-Fitted J/K Matrices <==

    J tasked:                   Yes
    K tasked:                   Yes
    wK tasked:                   No
    OpenMP threads:               1
    Memory [MiB]:               375
    Algorithm:                 Core
    Schwarz Cutoff:           1E-12
    Mask sparsity (%):       0.0000
    Fitting Condition:        1E-10

   => Auxiliary Basis Set <=

  Basis Set: CC-PVDZ-JKFIT
    Blend: CC-PVDZ-JKFIT
    Number of shells: 33
    Number of basis function: 93
    Number of Cartesian functions: 106
    Spherical Harmonics?: true
    Max angular momentum: 3

  Minimum eigenvalue in the overlap matrix is 6.0264792053E-02.
  Reciprocal condition number of the overlap matrix is 2.1536796949E-02.
    Using symmetric orthogonalization.

  ==> Pre-Iterations <==

  SCF Guess: Superposition of Atomic Densities via on-the-fly atomic UHF (no occupation information).

   -------------------------
    Irrep   Nso     Nmo    
   -------------------------
     A1        10      10 
     A2         1       1 
     B1         4       4 
     B2         4       4 
   -------------------------
    Total      19      19
   -------------------------

  ==> Iterations <==

                           Total Energy        Delta E     RMS |[F,P]|

   @DF-RHF iter SAD:   -99.55449880392962   -9.95545e+01   0.00000e+00 
   @DF-RHF iter   1:   -99.96742688081213   -4.12928e-01   2.77543e-02 DIIS
   @DF-RHF iter   2:   -99.99943871733380   -3.20118e-02   1.63855e-02 DIIS
   @DF-RHF iter   3:  -100.00948555480861   -1.00468e-02   1.75255e-03 DIIS
   @DF-RHF iter   4:  -100.00982481576420   -3.39261e-04   5.50848e-04 DIIS
   @DF-RHF iter   5:  -100.00985863189752   -3.38161e-05   9.45245e-05 DIIS
   @DF-RHF iter   6:  -100.00985993996015   -1.30806e-06   9.55470e-06 DIIS
   @DF-RHF iter   7:  -100.00985995181790   -1.18578e-08   6.53409e-07 DIIS
   @DF-RHF iter   8:  -100.00985995185597   -3.80709e-11   7.53469e-08 DIIS
  Energy and wave function converged.


  ==> Post-Iterations <==

    Orbital Energies [Eh]
    ---------------------

    Doubly Occupied:                                                      

       1A1   -26.279281     2A1    -1.557455     3A1    -0.714910  
       1B2    -0.621195     1B1    -0.621195  

    Virtual:                                                              

       4A1     0.164493     5A1     0.737655     2B2     1.383290  
       2B1     1.383290     6A1     1.446837     3B2     1.616511  
       3B1     1.616511     7A1     2.133659     8A1     2.302124  
       9A1     4.012625     1A2     4.012625     4B2     4.208020  
       4B1     4.208020    10A1     4.935950  

    Final Occupation by Irrep:
             A1    A2    B1    B2 
    DOCC [     3,    0,    1,    1 ]

  @DF-RHF Final Energy:  -100.00985995185597

   => Energetics <=

    Nuclear Repulsion Energy =              4.7625948960300004
    One-Electron Energy =                -149.9568386367151618
    Two-Electron Energy =                  45.1843837888291873
    Total Energy =                       -100.0098599518559581

Computation Completed


Properties will be evaluated at   0.000000,   0.000000,   0.000000 [a0]

Properties computed using the SCF density matrix

  Nuclear Dipole Moment: [e a0]
     X:     0.0000      Y:     0.0000      Z:    -0.9378

  Electronic Dipole Moment: [e a0]
     X:     0.0000      Y:     0.0000      Z:     0.1056

  Dipole Moment: [e a0]
     X:     0.0000      Y:     0.0000      Z:    -0.8322     Total:     0.8322

  Dipole Moment: [D]
     X:     0.0000      Y:     0.0000      Z:    -2.1152     Total:     2.1152


*** tstop() called on CHE-FEVANGE at Tue Mar 16 18:10:30 2021
Module time:
	user time   =       0.54 seconds =       0.01 minutes
	system time =       0.03 seconds =       0.00 minutes
	total time  =          1 seconds =       0.02 minutes
Total time:
	user time   =       0.54 seconds =       0.01 minutes
	system time =       0.03 seconds =       0.00 minutes
	total time  =          1 seconds =       0.02 minutes
  Constructing Basis Sets for MCSCF...

   => Loading Basis Set <=

    Name: CC-PVDZ-JKFIT
    Role: JKFIT
    Keyword: DF_BASIS_SCF
    atoms 1 entry H          line    51 file /Users/fevange/Source/psi4/objdir-Debug/stage/share/psi4/basis/cc-pvdz-jkfit.gbs 
    atoms 2 entry F          line   271 file /Users/fevange/Source/psi4/objdir-Debug/stage/share/psi4/basis/cc-pvdz-jkfit.gbs 


         ---------------------------------------------------------
                Multi-Configurational Self-Consistent Field
                            (a 'D E T C I' module)

                 Daniel G. A. Smith, C. David Sherrill, and
                              Matt L. Leininger
         ---------------------------------------------------------


   ==> Parameters <==

    EX LEVEL       =       10      H0 BLOCKSIZE  =     1000
    VAL EX LEVEL   =        0      H0 GUESS SIZE =     1000
    H0COUPLINGSIZE =        0      H0 COUPLING   =       NO
    MAXITER        =       12      NUM PRINT     =       20
    NUM ROOTS      =        1      ICORE         =        1
    PRINT LVL      =        1      FCI           =      YES
    R CONV         = 1.00e-07      MIXED         =      YES
    E CONV         = 1.00e-10      MIXED4        =      YES
    R4S            =       NO      REPL OTF      =       NO
    DIAG METHOD    =      SEM      FOLLOW ROOT   =        0
    PRECONDITIONER = DAVIDSON      UPDATE        = DAVIDSON
    S              =   0.0000      Ms0           =      YES
    GUESS VECTOR   =  H0BLOCK      OPENTYPE      =     NONE
    COLLAPSE SIZE  =        1      HD AVG        = EVANGELISTI
    MAX NUM VECS   =       13      REF SYM       =     AUTO
    IOPEN        =       NO

    EX ALLOW       =  1  1  1  1  1  1  1  1  1  1 
    STATE AVERAGE  =  0(1.00) 

   ==> CI Orbital and Space information <==

   ------------------------------------------------------
               Space    Total    A1    A2    B1    B2
   ------------------------------------------------------
                 Nso       19    10     1     4     4
                 Nmo       19    10     1     4     4
               Ndocc        5     3     0     1     1
               Nsocc        0     0     0     0     0
   ------------------------------------------------------
                        MCSCF Spaces
   ------------------------------------------------------
         Frozen DOCC        0     0     0     0     0
     Restricted DOCC        0     0     0     0     0
              Active        6     4     0     1     1
     Restricted UOCC       13     6     1     3     3
         Frozen UOCC        0     0     0     0     0
   ------------------------------------------------------

   ==> Setting up CI strings <==

    There are 6 alpha and 6 beta strings
    The CI space requires 18 (1.80E+01) determinants and 3 blocks

   ==> Setting up DF-MCSCF integrals <==

  DFHelper Memory: AOs need 0.000 GiB; user supplied 0.391 GiB. Using in-core AOs.

  ==> MemDFJK: Density-Fitted J/K Matrices <==

    J tasked:                   Yes
    K tasked:                   Yes
    wK tasked:                   No
    OpenMP threads:               1
    Memory [MiB]:               400
    Algorithm:                 Core
    Schwarz Cutoff:           1E-12
    Mask sparsity (%):       0.0000
    Fitting Condition:        1E-10

   => Auxiliary Basis Set <=

  Basis Set: CC-PVDZ-JKFIT
    Blend: CC-PVDZ-JKFIT
    Number of shells: 33
    Number of basis function: 93
    Number of Cartesian functions: 106
    Spherical Harmonics?: true
    Max angular momentum: 3

  DFHelper Memory: AOs need 0.000 GiB; user supplied 0.391 GiB. Using in-core AOs.


   ==> Starting DF-MCSCF iterations <==

           Iter         Total Energy       Delta E   Orb RMS    CI RMS  NCI NORB
   @DF-MCSCF  1:   -100.013387955543   -3.5280e-03  4.37e-03  2.00e-12    1    1  Initial CI
      Warning! Maxstep = 0.70, scaling to 0.50
   @DF-MCSCF  2:   -100.033342894890   -1.9955e-02  1.32e-02  1.75e-06    5    1  TS
   @DF-MCSCF  3:   -100.037911801878   -4.5689e-03  5.00e-03  5.63e-06    4    1  TS
   @DF-MCSCF  4:   -100.038499817131   -5.8802e-04  1.78e-03  2.64e-06    4    1  TS
   @DF-MCSCF  5:   -100.038598924394   -9.9107e-05  8.10e-04  6.90e-08    5    1  TS
   @DF-MCSCF  6:   -100.038618958934   -2.0035e-05  4.31e-04  3.24e-08    5    1  TS
   @DF-MCSCF  7:   -100.038623594870   -4.6359e-06  2.37e-04  1.72e-08    5    1  TS, DIIS
   @DF-MCSCF  8:   -100.038624770072   -1.1752e-06  1.30e-04  8.74e-09    5    1  TS, DIIS
   @DF-MCSCF  9:   -100.038625081170   -3.1110e-07  6.27e-05  1.48e-08    5    1  TS, DIIS
   @DF-MCSCF 10:   -100.038625208136   -1.2697e-07  1.65e-06  5.07e-09    5    1  TS, DIIS
   @DF-MCSCF 11:   -100.038625206573    1.5631e-09  7.14e-06  5.57e-10    5    1  TS, DIIS
   @DF-MCSCF 12:   -100.038625208199   -1.6256e-09  5.87e-07  6.70e-10    5    1  TS, DIIS
   @DF-MCSCF 13:   -100.038625208208   -9.2797e-12  1.46e-07  4.75e-11    5    1  TS, DIIS

          @DF-MCSCF has converged!

   @DF-MCSCF Final Energy: -100.038625208208103

   Computing CI Semicanonical Orbitals

   ==> Energetics <==

    SCF energy =         -100.009859951855958
    Total MCSCF energy = -100.038625208208103

   ==> MCSCF root 0 information <==

    MCSCF Root 0 energy =  -100.038625208208117

   Active Space Natural occupation numbers:

        A1   1.999999        B1   1.999715        B2   1.999715
        A1   1.999702        A1   1.971480        A1   0.029390

   The 18 most important determinants:

    *   1    0.992559  (    0,    0)  1A1X 2A1X 3A1X 1B1X 1B2X 
    *   2   -0.108521  (    1,    1)  1A1X 2A1X 4A1X 1B1X 1B2X 
    *   3    0.032306  (    1,    2)  1A1X 2A1A 3A1B 4A1X 1B1X 1B2X 
    *   4    0.032306  (    2,    1)  1A1X 2A1B 3A1A 4A1X 1B1X 1B2X 
    *   5   -0.022995  (    2,    2)  1A1X 3A1X 4A1X 1B1X 1B2X 
    *   6   -0.011947  (    5,    5)  1A1X 2A1X 3A1X 4A1X 1B2X 
    *   7   -0.011947  (    4,    4)  1A1X 2A1X 3A1X 4A1X 1B1X 
    *   8   -0.008530  (    0,    1)  1A1X 2A1X 3A1A 4A1B 1B1X 1B2X 
    *   9   -0.008530  (    1,    0)  1A1X 2A1X 3A1B 4A1A 1B1X 1B2X 
    *  10    0.000900  (    0,    2)  1A1X 2A1A 3A1X 4A1B 1B1X 1B2X 
    *  11    0.000900  (    2,    0)  1A1X 2A1B 3A1X 4A1A 1B1X 1B2X 
    *  12   -0.000749  (    3,    3)  2A1X 3A1X 4A1X 1B1X 1B2X 
    *  13   -0.000724  (    2,    3)  1A1A 2A1B 3A1X 4A1X 1B1X 1B2X 
    *  14   -0.000724  (    3,    2)  1A1B 2A1A 3A1X 4A1X 1B1X 1B2X 
    *  15   -0.000098  (    1,    3)  1A1A 2A1X 3A1B 4A1X 1B1X 1B2X 
    *  16   -0.000098  (    3,    1)  1A1B 2A1X 3A1A 4A1X 1B1X 1B2X 
    *  17    0.000018  (    0,    3)  1A1A 2A1X 3A1X 4A1B 1B1X 1B2X 
    *  18    0.000018  (    3,    0)  1A1B 2A1X 3A1X 4A1A 1B1X 1B2X 



Properties will be evaluated at   0.000000,   0.000000,   0.000000 [a0]

Properties computed using the CASSCF density matrix

  Nuclear Dipole Moment: [e a0]
     X:     0.0000      Y:     0.0000      Z:    -0.9378

  Electronic Dipole Moment: [e a0]
     X:     0.0000      Y:     0.0000      Z:     0.1840

  Dipole Moment: [e a0]
     X:     0.0000      Y:     0.0000      Z:    -0.7538     Total:     0.7538

  Dipole Moment: [D]
     X:     0.0000      Y:     0.0000      Z:    -1.9159     Total:     1.9159

    CASSCF energy.........................................................................PASSED

Scratch directory: /tmp/

  Forte
  ----------------------------------------------------------------------------
  A suite of quantum chemistry methods for strongly correlated electrons

    git branch: genop - git commit: 657e71d8

  Developed by:
    Francesco A. Evangelista, Chenyang Li, Kevin P. Hannon,
    Jeffrey B. Schriber, Tianyuan Zhang, Chenxi Cai,
    Nan He, Nicholas Stair, Shuhe Wang, Renke Huang
  ----------------------------------------------------------------------------

  Size of Determinant class: 128 bits

  Preparing forte objects from a Psi4 Wavefunction object
  No reference wave function provided for Forte. Computing SCF orbitals using Psi4 ...

*** tstart() called on CHE-FEVANGE
*** at Tue Mar 16 18:10:31 2021

   => Loading Basis Set <=

    Name: CC-PVDZ
    Role: ORBITAL
    Keyword: BASIS
    atoms 1 entry H          line    22 file /Users/fevange/Source/psi4/objdir-Debug/stage/share/psi4/basis/cc-pvdz.gbs 
    atoms 2 entry F          line   228 file /Users/fevange/Source/psi4/objdir-Debug/stage/share/psi4/basis/cc-pvdz.gbs 


         ---------------------------------------------------------
                                   SCF
               by Justin Turney, Rob Parrish, Andy Simmonett
                          and Daniel G. A. Smith
                              RHF Reference
                        1 Threads,    500 MiB Core
         ---------------------------------------------------------

  ==> Geometry <==

    Molecular point group: c2v
    Full point group: C_inf_v

    Geometry (in Angstrom), charge = 0, multiplicity = 1:

       Center              X                  Y                   Z               Mass       
    ------------   -----------------  -----------------  -----------------  -----------------
         H            0.000000000000     0.000000000000    -0.949624435830     1.007825032230
         F            0.000000000000     0.000000000000     0.050375564170    18.998403162730

  Running in c2v symmetry.

  Rotational constants: A = ************  B =     17.61406  C =     17.61406 [cm^-1]
  Rotational constants: A = ************  B = 528056.23735  C = 528056.23735 [MHz]
  Nuclear repulsion =    4.762594896030000

  Charge       = 0
  Multiplicity = 1
  Electrons    = 10
  Nalpha       = 5
  Nbeta        = 5

  ==> Algorithm <==

  SCF Algorithm Type is DF.
  DIIS enabled.
  MOM disabled.
  Fractional occupation disabled.
  Guess Type is SAD.
  Energy threshold   = 1.00e-10
  Density threshold  = 1.00e-07
  Integral threshold = 1.00e-12

  ==> Primary Basis <==

  Basis Set: CC-PVDZ
    Blend: CC-PVDZ
    Number of shells: 9
    Number of basis function: 19
    Number of Cartesian functions: 20
    Spherical Harmonics?: true
    Max angular momentum: 2

   => Loading Basis Set <=

    Name: CC-PVDZ-JKFIT
    Role: JKFIT
    Keyword: DF_BASIS_SCF
    atoms 1 entry H          line    51 file /Users/fevange/Source/psi4/objdir-Debug/stage/share/psi4/basis/cc-pvdz-jkfit.gbs 
    atoms 2 entry F          line   271 file /Users/fevange/Source/psi4/objdir-Debug/stage/share/psi4/basis/cc-pvdz-jkfit.gbs 

  ==> Integral Setup <==

  DFHelper Memory: AOs need 0.000 GiB; user supplied 0.366 GiB. Using in-core AOs.

  ==> MemDFJK: Density-Fitted J/K Matrices <==

    J tasked:                   Yes
    K tasked:                   Yes
    wK tasked:                   No
    OpenMP threads:               1
    Memory [MiB]:               375
    Algorithm:                 Core
    Schwarz Cutoff:           1E-12
    Mask sparsity (%):       0.0000
    Fitting Condition:        1E-10

   => Auxiliary Basis Set <=

  Basis Set: CC-PVDZ-JKFIT
    Blend: CC-PVDZ-JKFIT
    Number of shells: 33
    Number of basis function: 93
    Number of Cartesian functions: 106
    Spherical Harmonics?: true
    Max angular momentum: 3

  Minimum eigenvalue in the overlap matrix is 6.0264792053E-02.
  Reciprocal condition number of the overlap matrix is 2.1536796949E-02.
    Using symmetric orthogonalization.

  ==> Pre-Iterations <==

  SCF Guess: Superposition of Atomic Densities via on-the-fly atomic UHF (no occupation information).

   -------------------------
    Irrep   Nso     Nmo    
   -------------------------
     A1        10      10 
     A2         1       1 
     B1         4       4 
     B2         4       4 
   -------------------------
    Total      19      19
   -------------------------

  ==> Iterations <==

                           Total Energy        Delta E     RMS |[F,P]|

   @DF-RHF iter SAD:   -99.55449880392962   -9.95545e+01   0.00000e+00 
   @DF-RHF iter   1:   -99.96742688081216   -4.12928e-01   2.77543e-02 DIIS
   @DF-RHF iter   2:   -99.99943871733373   -3.20118e-02   1.63855e-02 DIIS
   @DF-RHF iter   3:  -100.00948555480856   -1.00468e-02   1.75255e-03 DIIS
   @DF-RHF iter   4:  -100.00982481576423   -3.39261e-04   5.50848e-04 DIIS
   @DF-RHF iter   5:  -100.00985863189752   -3.38161e-05   9.45245e-05 DIIS
   @DF-RHF iter   6:  -100.00985993996019   -1.30806e-06   9.55470e-06 DIIS
   @DF-RHF iter   7:  -100.00985995181783   -1.18576e-08   6.53409e-07 DIIS
   @DF-RHF iter   8:  -100.00985995185587   -3.80425e-11   7.53469e-08 DIIS
  Energy and wave function converged.


  ==> Post-Iterations <==

    Orbital Energies [Eh]
    ---------------------

    Doubly Occupied:                                                      

       1A1   -26.279281     2A1    -1.557455     3A1    -0.714910  
       1B2    -0.621195     1B1    -0.621195  

    Virtual:                                                              

       4A1     0.164493     5A1     0.737655     2B2     1.383290  
       2B1     1.383290     6A1     1.446837     3B2     1.616511  
       3B1     1.616511     7A1     2.133659     8A1     2.302124  
       9A1     4.012625     1A2     4.012625     4B2     4.208020  
       4B1     4.208020    10A1     4.935950  

    Final Occupation by Irrep:
             A1    A2    B1    B2 
    DOCC [     3,    0,    1,    1 ]

  @DF-RHF Final Energy:  -100.00985995185587

   => Energetics <=

    Nuclear Repulsion Energy =              4.7625948960300004
    One-Electron Energy =                -149.9568386367150481
    Two-Electron Energy =                  45.1843837888291731
    Total Energy =                       -100.0098599518558729

Computation Completed


Properties will be evaluated at   0.000000,   0.000000,   0.000000 [a0]

Properties computed using the SCF density matrix

  Nuclear Dipole Moment: [e a0]
     X:     0.0000      Y:     0.0000      Z:    -0.9378

  Electronic Dipole Moment: [e a0]
     X:     0.0000      Y:     0.0000      Z:     0.1056

  Dipole Moment: [e a0]
     X:     0.0000      Y:     0.0000      Z:    -0.8322     Total:     0.8322

  Dipole Moment: [D]
     X:     0.0000      Y:     0.0000      Z:    -2.1152     Total:     2.1152


*** tstop() called on CHE-FEVANGE at Tue Mar 16 18:10:32 2021
Module time:
	user time   =       0.64 seconds =       0.01 minutes
	system time =       0.02 seconds =       0.00 minutes
	total time  =          1 seconds =       0.02 minutes
Total time:
	user time   =       1.89 seconds =       0.03 minutes
	system time =       0.17 seconds =       0.00 minutes
	total time  =          3 seconds =       0.05 minutes

  Read options for space RESTRICTED_DOCC
  Read options for space ACTIVE
  Read options for space RESTRICTED_DOCC

  ==> MO Space Information <==

  -------------------------------------------------
                       A1    A2    B1    B2   Sum
  -------------------------------------------------
    FROZEN_DOCC         0     0     0     0     0
    RESTRICTED_DOCC     0     0     0     0     0
    GAS1                4     0     1     1     6
    GAS2                0     0     0     0     0
    GAS3                0     0     0     0     0
    GAS4                0     0     0     0     0
    GAS5                0     0     0     0     0
    GAS6                0     0     0     0     0
    RESTRICTED_UOCC     6     1     3     3    13
    FROZEN_UOCC         0     0     0     0     0
    Total              10     1     4     4    19
  -------------------------------------------------   => Loading Basis Set <=

    Name: (CC-PVDZ AUX)
    Role: RIFIT
    Keyword: DF_BASIS_MP2
    atoms 1 entry H          line    19 file /Users/fevange/Source/psi4/objdir-Debug/stage/share/psi4/basis/cc-pvdz-ri.gbs 
    atoms 2 entry F          line   273 file /Users/fevange/Source/psi4/objdir-Debug/stage/share/psi4/basis/cc-pvdz-ri.gbs 

   => Loading Basis Set <=

    Name: STO-3G
    Role: ORBITAL
    Keyword: MINAO_BASIS
    atoms 1 entry H          line    19 file /Users/fevange/Source/psi4/objdir-Debug/stage/share/psi4/basis/sto-3g.gbs 
    atoms 2 entry F          line    91 file /Users/fevange/Source/psi4/objdir-Debug/stage/share/psi4/basis/sto-3g.gbs 


  Forte will use psi4 integrals

  ==> Primary Basis Set Summary <==

  Basis Set: CC-PVDZ
    Blend: CC-PVDZ
    Number of shells: 9
    Number of basis function: 19
    Number of Cartesian functions: 20
    Spherical Harmonics?: true
    Max angular momentum: 2


  JK created using MemDF integrals
  DFHelper Memory: AOs need 0.000 GiB; user supplied 0.391 GiB. Using in-core AOs.

  ==> MemDFJK: Density-Fitted J/K Matrices <==

    J tasked:                   Yes
    K tasked:                   Yes
    wK tasked:                   No
    OpenMP threads:               1
    Memory [MiB]:               400
    Algorithm:                 Core
    Schwarz Cutoff:           1E-12
    Mask sparsity (%):       0.0000
    Fitting Condition:        1E-10

   => Auxiliary Basis Set <=

  Basis Set: CC-PVDZ-JKFIT
    Blend: CC-PVDZ-JKFIT
    Number of shells: 33
    Number of basis function: 93
    Number of Cartesian functions: 106
    Spherical Harmonics?: true
    Max angular momentum: 3



  ==> Integral Transformation <==

  Number of molecular orbitals:                         19
  Number of correlated molecular orbitals:              19
  Number of frozen occupied orbitals:                    0
  Number of frozen unoccupied orbitals:                  0
  Two-electron integral type:              Density fitting


  Computing density fitted integrals 

  Number of auxiliary basis functions:  70
  Need 202.16 KB to store DF integrals
  DFHelper Memory: AOs need 0.000 GiB; user supplied 0.439 GiB. Using in-core AOs.

  ==> DFHelper <==
    NBF:                              19
    NAux:                             70
    Schwarz Cutoff:                1E-12
    Mask sparsity (%):                 0
    DFH Avail. Memory [GiB]:       0.439
    OpenMP threads:                    1
    Algorithm:                     STORE
    AO Core:                        True
    MO Core:                       False
    Hold Metric:                   False
    Metric Power:                 -0.500
    Fitting Condition:             1E-12
    Q Shell Max:                       7



  Transforming DF Integrals
  Timing for density-fitting transformation:                  0.026 s.

  Timing for freezing core and virtual orbitals:              0.000 s.
  Timing for computing density-fitted integrals:              0.099 s.

                -----------------------------------------------
                  Complete Active Space Self Consistent Field
                                 Kevin Hannon
                -----------------------------------------------


  ==> CASSCF Iteration <==

  iter    ||g||           Delta_E            E_CASSCF       CONV_TYPE

  Transform Integrals takes 0.00215066 s.

  Performing a CAS with FCI

  ==> Summary of Active Space Solver Input <==

    Irrep.  Multi.(2ms)      N
    --------------------------
       A1      1  (  0)      1
    --------------------------
    N: number of roots
    ms: spin z component
    Total number of roots:   1
    --------------------------


  ==> String Lists <==

  Number of alpha electrons     = 5
  Number of beta electrons      = 5
  Number of alpha strings       = 6
  Number of beta strings        = 6
  Number of alpha strings (N-3) = 15
  Number of beta strings (N-3)  = 15
  Timing for strings        =      0.000 s
  Timing for NN strings     =      0.000 s
  Timing for VO strings     =      0.000 s
  Timing for OO strings     =      0.000 s
  Timing for VVOO strings   =      0.000 s
  Timing for VOVO strings   =      0.000 s
  Timing for 1-hole strings =      0.000 s
  Timing for 2-hole strings =      0.000 s
  Timing for 3-hole strings =      0.000 s
  Total timing              =      0.000 s

  ==> FCI Solver <==

    Number of determinants                          18
    Symmetry                                         0
    Multiplicity                                     1
    Number of roots                                  1
    Target root                                      0
    Trial vectors per root                          10

  Allocating memory for the Hamiltonian algorithm. Size: 2 x 4 x 4.   Memory: 0.000000 GB

  ==> FCI Initial Guess <==

  ---------------------------------------------
    Root            Energy     <S^2>   Spin
  ---------------------------------------------
      0     -100.013387955543  0.000  singlet
      1      -99.539607500076  2.000  triplet
      2      -99.452809434564  0.000  singlet
      3      -98.724194041397  0.000  singlet
      4      -98.712130778023  0.000  singlet
      5      -98.703208608889  2.000  triplet
      6      -98.629269596966  0.000  singlet
      7      -98.592380434562  0.000  singlet
      8      -97.922967397608  2.000  triplet
      9      -97.582838045946  0.000  singlet
     10      -96.785677370144  0.000  singlet
     11      -74.087543542203  2.000  triplet
     12      -74.079799319448  0.000  singlet
     13      -72.913242030883  2.000  triplet
     14      -72.850483541579  0.000  singlet
     15      -71.959671614226  2.000  triplet
     16      -71.801502546490  0.000  singlet
     17      -43.193459736743  0.000  singlet
  ---------------------------------------------
  Timing for initial guess  =      0.001 s

  Projecting out root 1
  Projecting out root 5
  Projecting out root 8
  Projecting out root 11
  Projecting out root 13
  Projecting out root 15

  ==> Diagonalizing Hamiltonian <==

  Energy   convergence: 1.00e-10
  Residual convergence: 1.00e-08
  -----------------------------------------------------
    Iter.      Avg. Energy       Delta_E     Res. Norm
  -----------------------------------------------------
      1     -100.013387955543  -1.000e+02  +1.263e-13
      2     -100.013387955543  +0.000e+00  +1.263e-13
  -----------------------------------------------------
  The Davidson-Liu algorithm converged in 3 iterations.

  ==> Root No. 0 <==

    2220 2 2     -0.99881386

    Total Energy:    -100.013387955543, <S^2>: -0.000000

  ==> Energy Summary <==

    Multi.(2ms)  Irrep.  No.               Energy      <S^2>
    --------------------------------------------------------
       1  (  0)    A1     0     -100.013387955543  -0.000000
    --------------------------------------------------------

  ==> Computing RDMs for Root No. 0 <==

    Timing for 1-RDM: 0.000 s
    Timing for 2-RDM: 0.000 s

  ==> NATURAL ORBITALS <==

        1A1     2.000000      2A1     1.999954      1B2     1.999923  
        1B1     1.999923      3A1     1.995752      4A1     0.004448  


 CAS took 0.005650 seconds.

 FormFockIntermediates took 0.00122614 s.

 FormOrbitalGradient took 0.00027290 s.

 FormDiagHessian took 0.00001426 s.

 Update function takes 0.00156587 s
    1 0.002833950344  -100.013387955543  -100.013387955543    0.0 s       ~

  Transform Integrals takes 0.00206062 s.

  Performing a CAS with FCI

  ==> Summary of Active Space Solver Input <==

    Irrep.  Multi.(2ms)      N
    --------------------------
       A1      1  (  0)      1
    --------------------------
    N: number of roots
    ms: spin z component
    Total number of roots:   1
    --------------------------


  ==> String Lists <==

  Number of alpha electrons     = 5
  Number of beta electrons      = 5
  Number of alpha strings       = 6
  Number of beta strings        = 6
  Number of alpha strings (N-3) = 15
  Number of beta strings (N-3)  = 15
  Timing for strings        =      0.000 s
  Timing for NN strings     =      0.000 s
  Timing for VO strings     =      0.000 s
  Timing for OO strings     =      0.000 s
  Timing for VVOO strings   =      0.000 s
  Timing for VOVO strings   =      0.000 s
  Timing for 1-hole strings =      0.000 s
  Timing for 2-hole strings =      0.000 s
  Timing for 3-hole strings =      0.000 s
  Total timing              =      0.000 s

  ==> FCI Solver <==

    Number of determinants                          18
    Symmetry                                         0
    Multiplicity                                     1
    Number of roots                                  1
    Target root                                      0
    Trial vectors per root                          10

  Allocating memory for the Hamiltonian algorithm. Size: 2 x 4 x 4.   Memory: 0.000000 GB

  ==> FCI Initial Guess <==

  ---------------------------------------------
    Root            Energy     <S^2>   Spin
  ---------------------------------------------
      0     -100.033403053921  0.000  singlet
      1      -99.515246935945  2.000  triplet
      2      -99.239307731610  0.000  singlet
      3      -98.737417734337  0.000  singlet
      4      -98.709491757156  0.000  singlet
      5      -98.682780352926  2.000  triplet
      6      -98.548165514929  0.000  singlet
      7      -98.499393658890  0.000  singlet
      8      -97.903346988377  2.000  triplet
      9      -97.550291520607  0.000  singlet
     10      -96.813541335161  0.000  singlet
     11      -74.336941450518  2.000  triplet
     12      -74.309452804805  0.000  singlet
     13      -73.194222310025  2.000  triplet
     14      -73.101804520397  0.000  singlet
     15      -72.376992569107  2.000  triplet
     16      -72.214135040780  0.000  singlet
     17      -43.999213342891  0.000  singlet
  ---------------------------------------------
  Timing for initial guess  =      0.003 s

  Projecting out root 1
  Projecting out root 5
  Projecting out root 8
  Projecting out root 11
  Projecting out root 13
  Projecting out root 15

  ==> Diagonalizing Hamiltonian <==

  Energy   convergence: 1.00e-10
  Residual convergence: 1.00e-08
  -----------------------------------------------------
    Iter.      Avg. Energy       Delta_E     Res. Norm
  -----------------------------------------------------
      1     -100.033403053921  -1.000e+02  +3.061e-13
      2     -100.033403053921  +0.000e+00  +3.061e-13
  -----------------------------------------------------
  The Davidson-Liu algorithm converged in 3 iterations.

  ==> Root No. 0 <==

    2220 2 2      0.99263183
    2202 2 2     -0.10434276

    Total Energy:    -100.033403053921, <S^2>: -0.000000

  ==> Energy Summary <==

    Multi.(2ms)  Irrep.  No.               Energy      <S^2>
    --------------------------------------------------------
       1  (  0)    A1     0     -100.033403053921  -0.000000
    --------------------------------------------------------

  ==> Computing RDMs for Root No. 0 <==

    Timing for 1-RDM: 0.000 s
    Timing for 2-RDM: 0.000 s

  ==> NATURAL ORBITALS <==

        1A1     1.999999      2A1     1.999809      1B2     1.999716  
        1B1     1.999716      3A1     1.972176      4A1     0.028584  


 CAS took 0.006293 seconds.

 FormFockIntermediates took 0.00104228 s.

 FormOrbitalGradient took 0.00017933 s.

 FormDiagHessian took 0.00000777 s.

 Update function takes 0.00127811 s
    2 0.008539860425    -0.020015098378  -100.033403053921    0.0 s       ~

  Transform Integrals takes 0.00124140 s.

  Performing a CAS with FCI

  ==> Summary of Active Space Solver Input <==

    Irrep.  Multi.(2ms)      N
    --------------------------
       A1      1  (  0)      1
    --------------------------
    N: number of roots
    ms: spin z component
    Total number of roots:   1
    --------------------------


  ==> String Lists <==

  Number of alpha electrons     = 5
  Number of beta electrons      = 5
  Number of alpha strings       = 6
  Number of beta strings        = 6
  Number of alpha strings (N-3) = 15
  Number of beta strings (N-3)  = 15
  Timing for strings        =      0.000 s
  Timing for NN strings     =      0.000 s
  Timing for VO strings     =      0.000 s
  Timing for OO strings     =      0.000 s
  Timing for VVOO strings   =      0.000 s
  Timing for VOVO strings   =      0.000 s
  Timing for 1-hole strings =      0.000 s
  Timing for 2-hole strings =      0.000 s
  Timing for 3-hole strings =      0.000 s
  Total timing              =      0.000 s

  ==> FCI Solver <==

    Number of determinants                          18
    Symmetry                                         0
    Multiplicity                                     1
    Number of roots                                  1
    Target root                                      0
    Trial vectors per root                          10

  Allocating memory for the Hamiltonian algorithm. Size: 2 x 4 x 4.   Memory: 0.000000 GB

  ==> FCI Initial Guess <==

  ---------------------------------------------
    Root            Energy     <S^2>   Spin
  ---------------------------------------------
      0     -100.037938312175  0.000  singlet
      1      -99.425254830533  2.000  triplet
      2      -99.082735713952  0.000  singlet
      3      -98.587363372071  2.000  triplet
      4      -98.535150948104  0.000  singlet
      5      -98.533688989239  0.000  singlet
      6      -98.401216233835  0.000  singlet
      7      -98.282234896100  0.000  singlet
      8      -97.701252712338  2.000  triplet
      9      -97.353030943008  0.000  singlet
     10      -96.622034671235  0.000  singlet
     11      -74.315558799748  2.000  triplet
     12      -74.279693747362  0.000  singlet
     13      -73.103857185669  2.000  triplet
     14      -73.003311944184  0.000  singlet
     15      -72.310535482999  2.000  triplet
     16      -72.147275304372  0.000  singlet
     17      -44.055829081591  0.000  singlet
  ---------------------------------------------
  Timing for initial guess  =      0.001 s

  Projecting out root 1
  Projecting out root 3
  Projecting out root 8
  Projecting out root 11
  Projecting out root 13
  Projecting out root 15

  ==> Diagonalizing Hamiltonian <==

  Energy   convergence: 1.00e-10
  Residual convergence: 1.00e-08
  -----------------------------------------------------
    Iter.      Avg. Energy       Delta_E     Res. Norm
  -----------------------------------------------------
      1     -100.037938312175  -1.000e+02  +6.034e-14
      2     -100.037938312175  +0.000e+00  +6.034e-14
  -----------------------------------------------------
  The Davidson-Liu algorithm converged in 3 iterations.

  ==> Root No. 0 <==

    2220 2 2     -0.99211609
    2202 2 2      0.10760306

    Total Energy:    -100.037938312175, <S^2>: -0.000000

  ==> Energy Summary <==

    Multi.(2ms)  Irrep.  No.               Energy      <S^2>
    --------------------------------------------------------
       1  (  0)    A1     0     -100.037938312175  -0.000000
    --------------------------------------------------------

  ==> Computing RDMs for Root No. 0 <==

    Timing for 1-RDM: 0.000 s
    Timing for 2-RDM: 0.000 s

  ==> NATURAL ORBITALS <==

        1A1     1.999999      2A1     1.999748      1B2     1.999714  
        1B1     1.999714      3A1     1.970644      4A1     0.030181  


 CAS took 0.003499 seconds.

 FormFockIntermediates took 0.00080950 s.

 FormOrbitalGradient took 0.00013357 s.

 FormDiagHessian took 0.00000695 s.

 Update function takes 0.00098126 s
    3 0.003301586814    -0.004535258254  -100.037938312175    0.0 s  DIIS ~

  Transform Integrals takes 0.00121268 s.

  Performing a CAS with FCI

  ==> Summary of Active Space Solver Input <==

    Irrep.  Multi.(2ms)      N
    --------------------------
       A1      1  (  0)      1
    --------------------------
    N: number of roots
    ms: spin z component
    Total number of roots:   1
    --------------------------


  ==> String Lists <==

  Number of alpha electrons     = 5
  Number of beta electrons      = 5
  Number of alpha strings       = 6
  Number of beta strings        = 6
  Number of alpha strings (N-3) = 15
  Number of beta strings (N-3)  = 15
  Timing for strings        =      0.000 s
  Timing for NN strings     =      0.000 s
  Timing for VO strings     =      0.000 s
  Timing for OO strings     =      0.000 s
  Timing for VVOO strings   =      0.000 s
  Timing for VOVO strings   =      0.000 s
  Timing for 1-hole strings =      0.000 s
  Timing for 2-hole strings =      0.000 s
  Timing for 3-hole strings =      0.000 s
  Total timing              =      0.000 s

  ==> FCI Solver <==

    Number of determinants                          18
    Symmetry                                         0
    Multiplicity                                     1
    Number of roots                                  1
    Target root                                      0
    Trial vectors per root                          10

  Allocating memory for the Hamiltonian algorithm. Size: 2 x 4 x 4.   Memory: 0.000000 GB

  ==> FCI Initial Guess <==

  ---------------------------------------------
    Root            Energy     <S^2>   Spin
  ---------------------------------------------
      0     -100.038584186886  0.000  singlet
      1      -99.378084833759  2.000  triplet
      2      -99.011760948238  0.000  singlet
      3      -98.537732437104  2.000  triplet
      4      -98.457452003702  0.000  singlet
      5      -98.430833143892  0.000  singlet
      6      -98.320240777967  0.000  singlet
      7      -98.170897113969  0.000  singlet
      8      -97.597908650638  2.000  triplet
      9      -97.251340302742  0.000  singlet
     10      -96.525048814276  0.000  singlet
     11      -74.282599465164  2.000  triplet
     12      -74.243819558228  0.000  singlet
     13      -73.030053495503  2.000  triplet
     14      -72.927039780327  0.000  singlet
     15      -72.246545532076  2.000  triplet
     16      -72.083641861000  0.000  singlet
     17      -44.023813488178  0.000  singlet
  ---------------------------------------------
  Timing for initial guess  =      0.002 s

  Projecting out root 1
  Projecting out root 3
  Projecting out root 8
  Projecting out root 11
  Projecting out root 13
  Projecting out root 15

  ==> Diagonalizing Hamiltonian <==

  Energy   convergence: 1.00e-10
  Residual convergence: 1.00e-08
  -----------------------------------------------------
    Iter.      Avg. Energy       Delta_E     Res. Norm
  -----------------------------------------------------
      1     -100.038584186886  -1.000e+02  +1.185e-13
      2     -100.038584186886  +0.000e+00  +1.185e-13
  -----------------------------------------------------
  The Davidson-Liu algorithm converged in 3 iterations.

  ==> Root No. 0 <==

    2220 2 2      0.99231616
    2202 2 2     -0.10699296

    Total Energy:    -100.038584186886, <S^2>: 0.000000

  ==> Energy Summary <==

    Multi.(2ms)  Irrep.  No.               Energy      <S^2>
    --------------------------------------------------------
       1  (  0)    A1     0     -100.038584186886   0.000000
    --------------------------------------------------------

  ==> Computing RDMs for Root No. 0 <==

    Timing for 1-RDM: 0.000 s
    Timing for 2-RDM: 0.000 s

  ==> NATURAL ORBITALS <==

        1A1     1.999999      1B2     1.999722      1B1     1.999722  
        2A1     1.999721      3A1     1.971441      4A1     0.029395  


 CAS took 0.004748 seconds.

 FormFockIntermediates took 0.00077916 s.

 FormOrbitalGradient took 0.00014313 s.

 FormDiagHessian took 0.00000706 s.

 Update function takes 0.00096328 s
    4 0.000958944299    -0.000645874711  -100.038584186886    0.0 s  DIIS ~

  Transform Integrals takes 0.00131033 s.

  Performing a CAS with FCI

  ==> Summary of Active Space Solver Input <==

    Irrep.  Multi.(2ms)      N
    --------------------------
       A1      1  (  0)      1
    --------------------------
    N: number of roots
    ms: spin z component
    Total number of roots:   1
    --------------------------


  ==> String Lists <==

  Number of alpha electrons     = 5
  Number of beta electrons      = 5
  Number of alpha strings       = 6
  Number of beta strings        = 6
  Number of alpha strings (N-3) = 15
  Number of beta strings (N-3)  = 15
  Timing for strings        =      0.000 s
  Timing for NN strings     =      0.000 s
  Timing for VO strings     =      0.000 s
  Timing for OO strings     =      0.000 s
  Timing for VVOO strings   =      0.000 s
  Timing for VOVO strings   =      0.000 s
  Timing for 1-hole strings =      0.000 s
  Timing for 2-hole strings =      0.000 s
  Timing for 3-hole strings =      0.000 s
  Total timing              =      0.000 s

  ==> FCI Solver <==

    Number of determinants                          18
    Symmetry                                         0
    Multiplicity                                     1
    Number of roots                                  1
    Target root                                      0
    Trial vectors per root                          10

  Allocating memory for the Hamiltonian algorithm. Size: 2 x 4 x 4.   Memory: 0.000000 GB

  ==> FCI Initial Guess <==

  ---------------------------------------------
    Root            Energy     <S^2>   Spin
  ---------------------------------------------
      0     -100.038621361512  0.000  singlet
      1      -99.371816879804  2.000  triplet
      2      -99.001430183720  0.000  singlet
      3      -98.531688466323  2.000  triplet
      4      -98.452489012282  0.000  singlet
      5      -98.421546693999  0.000  singlet
      6      -98.311204496781  0.000  singlet
      7      -98.156308908297  0.000  singlet
      8      -97.587728099350  2.000  triplet
      9      -97.240587542471  0.000  singlet
     10      -96.518302028217  0.000  singlet
     11      -74.280623337146  2.000  triplet
     12      -74.241604678461  0.000  singlet
     13      -73.024924795514  2.000  triplet
     14      -72.921507128664  0.000  singlet
     15      -72.245372866742  2.000  triplet
     16      -72.082453106480  0.000  singlet
     17      -44.028418572146  0.000  singlet
  ---------------------------------------------
  Timing for initial guess  =      0.001 s

  Projecting out root 1
  Projecting out root 3
  Projecting out root 8
  Projecting out root 11
  Projecting out root 13
  Projecting out root 15

  ==> Diagonalizing Hamiltonian <==

  Energy   convergence: 1.00e-10
  Residual convergence: 1.00e-08
  -----------------------------------------------------
    Iter.      Avg. Energy       Delta_E     Res. Norm
  -----------------------------------------------------
      1     -100.038621361512  -1.000e+02  +9.753e-14
      2     -100.038621361512  +0.000e+00  +9.753e-14
  -----------------------------------------------------
  The Davidson-Liu algorithm converged in 3 iterations.

  ==> Root No. 0 <==

    2220 2 2     -0.99233365
    2202 2 2      0.10729757

    Total Energy:    -100.038621361512, <S^2>: 0.000000

  ==> Energy Summary <==

    Multi.(2ms)  Irrep.  No.               Energy      <S^2>
    --------------------------------------------------------
       1  (  0)    A1     0     -100.038621361512   0.000000
    --------------------------------------------------------

  ==> Computing RDMs for Root No. 0 <==

    Timing for 1-RDM: 0.000 s
    Timing for 2-RDM: 0.000 s

  ==> NATURAL ORBITALS <==

        1A1     1.999999      1B2     1.999716      1B1     1.999716  
        2A1     1.999707      3A1     1.971572      4A1     0.029290  


 CAS took 0.003637 seconds.

 FormFockIntermediates took 0.00125699 s.

 FormOrbitalGradient took 0.00034030 s.

 FormDiagHessian took 0.00000928 s.

 Update function takes 0.00167031 s
    5 0.000353325524    -0.000037174626  -100.038621361512    0.0 s  DIIS ~

  Transform Integrals takes 0.00204906 s.

  Performing a CAS with FCI

  ==> Summary of Active Space Solver Input <==

    Irrep.  Multi.(2ms)      N
    --------------------------
       A1      1  (  0)      1
    --------------------------
    N: number of roots
    ms: spin z component
    Total number of roots:   1
    --------------------------


  ==> String Lists <==

  Number of alpha electrons     = 5
  Number of beta electrons      = 5
  Number of alpha strings       = 6
  Number of beta strings        = 6
  Number of alpha strings (N-3) = 15
  Number of beta strings (N-3)  = 15
  Timing for strings        =      0.000 s
  Timing for NN strings     =      0.000 s
  Timing for VO strings     =      0.000 s
  Timing for OO strings     =      0.000 s
  Timing for VVOO strings   =      0.000 s
  Timing for VOVO strings   =      0.000 s
  Timing for 1-hole strings =      0.000 s
  Timing for 2-hole strings =      0.000 s
  Timing for 3-hole strings =      0.000 s
  Total timing              =      0.000 s

  ==> FCI Solver <==

    Number of determinants                          18
    Symmetry                                         0
    Multiplicity                                     1
    Number of roots                                  1
    Target root                                      0
    Trial vectors per root                          10

  Allocating memory for the Hamiltonian algorithm. Size: 2 x 4 x 4.   Memory: 0.000000 GB

  ==> FCI Initial Guess <==

  ---------------------------------------------
    Root            Energy     <S^2>   Spin
  ---------------------------------------------
      0     -100.038624262952  0.000  singlet
      1      -99.372776213606  2.000  triplet
      2      -99.002315275896  0.000  singlet
      3      -98.532687585109  2.000  triplet
      4      -98.454624995903  0.000  singlet
      5      -98.423662094207  0.000  singlet
      6      -98.313026647586  0.000  singlet
      7      -98.157709535174  0.000  singlet
      8      -97.589703723985  2.000  triplet
      9      -97.242281265558  0.000  singlet
     10      -96.520865500544  0.000  singlet
     11      -74.280861377214  2.000  triplet
     12      -74.242045596729  0.000  singlet
     13      -73.024954372304  2.000  triplet
     14      -72.921542040960  0.000  singlet
     15      -72.246256812883  2.000  triplet
     16      -72.083398174188  0.000  singlet
     17      -44.027581895344  0.000  singlet
  ---------------------------------------------
  Timing for initial guess  =      0.001 s

  Projecting out root 1
  Projecting out root 3
  Projecting out root 8
  Projecting out root 11
  Projecting out root 13
  Projecting out root 15

  ==> Diagonalizing Hamiltonian <==

  Energy   convergence: 1.00e-10
  Residual convergence: 1.00e-08
  -----------------------------------------------------
    Iter.      Avg. Energy       Delta_E     Res. Norm
  -----------------------------------------------------
      1     -100.038624262952  -1.000e+02  +4.515e-14
      2     -100.038624262952  +0.000e+00  +4.515e-14
  -----------------------------------------------------
  The Davidson-Liu algorithm converged in 3 iterations.

  ==> Root No. 0 <==

    2220 2 2      0.99232860
    2202 2 2     -0.10750392

    Total Energy:    -100.038624262952, <S^2>: -0.000000

  ==> Energy Summary <==

    Multi.(2ms)  Irrep.  No.               Energy      <S^2>
    --------------------------------------------------------
       1  (  0)    A1     0     -100.038624262952  -0.000000
    --------------------------------------------------------

  ==> Computing RDMs for Root No. 0 <==

    Timing for 1-RDM: 0.000 s
    Timing for 2-RDM: 0.000 s

  ==> NATURAL ORBITALS <==

        1A1     1.999999      1B1     1.999715      1B2     1.999715  
        2A1     1.999704      3A1     1.971544      4A1     0.029322  


 CAS took 0.004994 seconds.

 FormFockIntermediates took 0.00121035 s.

 FormOrbitalGradient took 0.00020440 s.

 FormDiagHessian took 0.00000898 s.

 Update function takes 0.00150356 s
    6 0.000121917429    -0.000002901440  -100.038624262952    0.0 s  DIIS ~

  Transform Integrals takes 0.00264544 s.

  Performing a CAS with FCI

  ==> Summary of Active Space Solver Input <==

    Irrep.  Multi.(2ms)      N
    --------------------------
       A1      1  (  0)      1
    --------------------------
    N: number of roots
    ms: spin z component
    Total number of roots:   1
    --------------------------


  ==> String Lists <==

  Number of alpha electrons     = 5
  Number of beta electrons      = 5
  Number of alpha strings       = 6
  Number of beta strings        = 6
  Number of alpha strings (N-3) = 15
  Number of beta strings (N-3)  = 15
  Timing for strings        =      0.000 s
  Timing for NN strings     =      0.000 s
  Timing for VO strings     =      0.000 s
  Timing for OO strings     =      0.000 s
  Timing for VVOO strings   =      0.000 s
  Timing for VOVO strings   =      0.000 s
  Timing for 1-hole strings =      0.000 s
  Timing for 2-hole strings =      0.000 s
  Timing for 3-hole strings =      0.000 s
  Total timing              =      0.000 s

  ==> FCI Solver <==

    Number of determinants                          18
    Symmetry                                         0
    Multiplicity                                     1
    Number of roots                                  1
    Target root                                      0
    Trial vectors per root                          10

  Allocating memory for the Hamiltonian algorithm. Size: 2 x 4 x 4.   Memory: 0.000000 GB

  ==> FCI Initial Guess <==

  ---------------------------------------------
    Root            Energy     <S^2>   Spin
  ---------------------------------------------
      0     -100.038625191413  0.000  singlet
      1      -99.374291479487  2.000  triplet
      2      -99.003823288221  0.000  singlet
      3      -98.534239609665  2.000  triplet
      4      -98.457519556297  0.000  singlet
      5      -98.426778743742  0.000  singlet
      6      -98.315703017737  0.000  singlet
      7      -98.160230604860  0.000  singlet
      8      -97.592767723319  2.000  triplet
      9      -97.245037097760  0.000  singlet
     10      -96.524392020638  0.000  singlet
     11      -74.282023558934  2.000  triplet
     12      -74.243449480745  0.000  singlet
     13      -73.026300083414  2.000  triplet
     14      -72.922913160363  0.000  singlet
     15      -72.248295109145  2.000  triplet
     16      -72.085472858286  0.000  singlet
     17      -44.028150440584  0.000  singlet
  ---------------------------------------------
  Timing for initial guess  =      0.001 s

  Projecting out root 1
  Projecting out root 3
  Projecting out root 8
  Projecting out root 11
  Projecting out root 13
  Projecting out root 15

  ==> Diagonalizing Hamiltonian <==

  Energy   convergence: 1.00e-10
  Residual convergence: 1.00e-08
  -----------------------------------------------------
    Iter.      Avg. Energy       Delta_E     Res. Norm
  -----------------------------------------------------
      1     -100.038625191413  -1.000e+02  +1.802e-13
      2     -100.038625191413  +0.000e+00  +1.802e-13
  -----------------------------------------------------
  The Davidson-Liu algorithm converged in 3 iterations.

  ==> Root No. 0 <==

    2220 2 2      0.99231121
    2202 2 2     -0.10776272

    Total Energy:    -100.038625191413, <S^2>: -0.000000

  ==> Energy Summary <==

    Multi.(2ms)  Irrep.  No.               Energy      <S^2>
    --------------------------------------------------------
       1  (  0)    A1     0     -100.038625191413  -0.000000
    --------------------------------------------------------

  ==> Computing RDMs for Root No. 0 <==

    Timing for 1-RDM: 0.000 s
    Timing for 2-RDM: 0.000 s

  ==> NATURAL ORBITALS <==

        1A1     1.999999      1B2     1.999714      1B1     1.999714  
        2A1     1.999702      3A1     1.971487      4A1     0.029384  


 CAS took 0.004972 seconds.

 FormFockIntermediates took 0.00117701 s.

 FormOrbitalGradient took 0.00020644 s.

 FormDiagHessian took 0.00000958 s.

 Update function takes 0.00146179 s
    7 0.000045585444    -0.000000928461  -100.038625191413    0.0 s  DIIS ~

  Transform Integrals takes 0.00199919 s.

  Performing a CAS with FCI

  ==> Summary of Active Space Solver Input <==

    Irrep.  Multi.(2ms)      N
    --------------------------
       A1      1  (  0)      1
    --------------------------
    N: number of roots
    ms: spin z component
    Total number of roots:   1
    --------------------------


  ==> String Lists <==

  Number of alpha electrons     = 5
  Number of beta electrons      = 5
  Number of alpha strings       = 6
  Number of beta strings        = 6
  Number of alpha strings (N-3) = 15
  Number of beta strings (N-3)  = 15
  Timing for strings        =      0.000 s
  Timing for NN strings     =      0.000 s
  Timing for VO strings     =      0.000 s
  Timing for OO strings     =      0.000 s
  Timing for VVOO strings   =      0.000 s
  Timing for VOVO strings   =      0.000 s
  Timing for 1-hole strings =      0.000 s
  Timing for 2-hole strings =      0.000 s
  Timing for 3-hole strings =      0.000 s
  Total timing              =      0.001 s

  ==> FCI Solver <==

    Number of determinants                          18
    Symmetry                                         0
    Multiplicity                                     1
    Number of roots                                  1
    Target root                                      0
    Trial vectors per root                          10

  Allocating memory for the Hamiltonian algorithm. Size: 2 x 4 x 4.   Memory: 0.000000 GB

  ==> FCI Initial Guess <==

  ---------------------------------------------
    Root            Energy     <S^2>   Spin
  ---------------------------------------------
      0     -100.038625207188  0.000  singlet
      1      -99.374420070049  2.000  triplet
      2      -99.003966238500  0.000  singlet
      3      -98.534359930211  2.000  triplet
      4      -98.457692149093  0.000  singlet
      5      -98.426953127677  0.000  singlet
      6      -98.315894267828  0.000  singlet
      7      -98.160426183508  0.000  singlet
      8      -97.592956855248  2.000  triplet
      9      -97.245211959694  0.000  singlet
     10      -96.524593612978  0.000  singlet
     11      -74.282011810581  2.000  triplet
     12      -74.243461064373  0.000  singlet
     13      -73.026220917047  2.000  triplet
     14      -72.922836581309  0.000  singlet
     15      -72.248258131116  2.000  triplet
     16      -72.085445210695  0.000  singlet
     17      -44.027862843515  0.000  singlet
  ---------------------------------------------
  Timing for initial guess  =      0.001 s

  Projecting out root 1
  Projecting out root 3
  Projecting out root 8
  Projecting out root 11
  Projecting out root 13
  Projecting out root 15

  ==> Diagonalizing Hamiltonian <==

  Energy   convergence: 1.00e-10
  Residual convergence: 1.00e-08
  -----------------------------------------------------
    Iter.      Avg. Energy       Delta_E     Res. Norm
  -----------------------------------------------------
      1     -100.038625207188  -1.000e+02  +1.080e-13
      2     -100.038625207188  +0.000e+00  +1.080e-13
  -----------------------------------------------------
  The Davidson-Liu algorithm converged in 3 iterations.

  ==> Root No. 0 <==

    2220 2 2      0.99230988
    2202 2 2     -0.10778014

    Total Energy:    -100.038625207188, <S^2>: -0.000000

  ==> Energy Summary <==

    Multi.(2ms)  Irrep.  No.               Energy      <S^2>
    --------------------------------------------------------
       1  (  0)    A1     0     -100.038625207188  -0.000000
    --------------------------------------------------------

  ==> Computing RDMs for Root No. 0 <==

    Timing for 1-RDM: 0.000 s
    Timing for 2-RDM: 0.000 s

  ==> NATURAL ORBITALS <==

        1A1     1.999999      1B2     1.999715      1B1     1.999715  
        2A1     1.999702      3A1     1.971482      4A1     0.029388  


 CAS took 0.005312 seconds.

 FormFockIntermediates took 0.00075958 s.

 FormOrbitalGradient took 0.00014407 s.

 FormDiagHessian took 0.00000679 s.

 Update function takes 0.00096275 s
    8 0.000008976176    -0.000000015775  -100.038625207188    0.0 s  DIIS ~

  Transform Integrals takes 0.00134618 s.

  Performing a CAS with FCI

  ==> Summary of Active Space Solver Input <==

    Irrep.  Multi.(2ms)      N
    --------------------------
       A1      1  (  0)      1
    --------------------------
    N: number of roots
    ms: spin z component
    Total number of roots:   1
    --------------------------


  ==> String Lists <==

  Number of alpha electrons     = 5
  Number of beta electrons      = 5
  Number of alpha strings       = 6
  Number of beta strings        = 6
  Number of alpha strings (N-3) = 15
  Number of beta strings (N-3)  = 15
  Timing for strings        =      0.000 s
  Timing for NN strings     =      0.000 s
  Timing for VO strings     =      0.000 s
  Timing for OO strings     =      0.000 s
  Timing for VVOO strings   =      0.000 s
  Timing for VOVO strings   =      0.000 s
  Timing for 1-hole strings =      0.000 s
  Timing for 2-hole strings =      0.000 s
  Timing for 3-hole strings =      0.000 s
  Total timing              =      0.000 s

  ==> FCI Solver <==

    Number of determinants                          18
    Symmetry                                         0
    Multiplicity                                     1
    Number of roots                                  1
    Target root                                      0
    Trial vectors per root                          10

  Allocating memory for the Hamiltonian algorithm. Size: 2 x 4 x 4.   Memory: 0.000000 GB

  ==> FCI Initial Guess <==

  ---------------------------------------------
    Root            Energy     <S^2>   Spin
  ---------------------------------------------
      0     -100.038625208060  0.000  singlet
      1      -99.374452539856  2.000  triplet
      2      -99.003993305800  0.000  singlet
      3      -98.534390366390  2.000  triplet
      4      -98.457743565575  0.000  singlet
      5      -98.427011952423  0.000  singlet
      6      -98.315949170798  0.000  singlet
      7      -98.160481414199  0.000  singlet
      8      -97.593017871832  2.000  triplet
      9      -97.245270012278  0.000  singlet
     10      -96.524658373332  0.000  singlet
     11      -74.282040221104  2.000  triplet
     12      -74.243494266328  0.000  singlet
     13      -73.026254475330  2.000  triplet
     14      -72.922869602470  0.000  singlet
     15      -72.248301653082  2.000  triplet
     16      -72.085489842522  0.000  singlet
     17      -44.027884749833  0.000  singlet
  ---------------------------------------------
  Timing for initial guess  =      0.001 s

  Projecting out root 1
  Projecting out root 3
  Projecting out root 8
  Projecting out root 11
  Projecting out root 13
  Projecting out root 15

  ==> Diagonalizing Hamiltonian <==

  Energy   convergence: 1.00e-10
  Residual convergence: 1.00e-08
  -----------------------------------------------------
    Iter.      Avg. Energy       Delta_E     Res. Norm
  -----------------------------------------------------
      1     -100.038625208060  -1.000e+02  +2.290e-13
      2     -100.038625208060  +0.000e+00  +2.290e-13
  -----------------------------------------------------
  The Davidson-Liu algorithm converged in 3 iterations.

  ==> Root No. 0 <==

    2220 2 2      0.99230893
    2202 2 2     -0.10778578

    Total Energy:    -100.038625208060, <S^2>: 0.000000

  ==> Energy Summary <==

    Multi.(2ms)  Irrep.  No.               Energy      <S^2>
    --------------------------------------------------------
       1  (  0)    A1     0     -100.038625208060   0.000000
    --------------------------------------------------------

  ==> Computing RDMs for Root No. 0 <==

    Timing for 1-RDM: 0.000 s
    Timing for 2-RDM: 0.001 s

  ==> NATURAL ORBITALS <==

        1A1     1.999999      1B2     1.999715      1B1     1.999715  
        2A1     1.999702      3A1     1.971480      4A1     0.029390  


 CAS took 0.004562 seconds.

 FormFockIntermediates took 0.00075657 s.

 FormOrbitalGradient took 0.00014219 s.

 FormDiagHessian took 0.00000724 s.

 Update function takes 0.00093644 s
    9 0.000003050749    -0.000000000872  -100.038625208060    0.0 s  DIIS ~

  Transform Integrals takes 0.00123948 s.

  Performing a CAS with FCI

  ==> Summary of Active Space Solver Input <==

    Irrep.  Multi.(2ms)      N
    --------------------------
       A1      1  (  0)      1
    --------------------------
    N: number of roots
    ms: spin z component
    Total number of roots:   1
    --------------------------


  ==> String Lists <==

  Number of alpha electrons     = 5
  Number of beta electrons      = 5
  Number of alpha strings       = 6
  Number of beta strings        = 6
  Number of alpha strings (N-3) = 15
  Number of beta strings (N-3)  = 15
  Timing for strings        =      0.000 s
  Timing for NN strings     =      0.000 s
  Timing for VO strings     =      0.000 s
  Timing for OO strings     =      0.000 s
  Timing for VVOO strings   =      0.000 s
  Timing for VOVO strings   =      0.000 s
  Timing for 1-hole strings =      0.000 s
  Timing for 2-hole strings =      0.000 s
  Timing for 3-hole strings =      0.000 s
  Total timing              =      0.000 s

  ==> FCI Solver <==

    Number of determinants                          18
    Symmetry                                         0
    Multiplicity                                     1
    Number of roots                                  1
    Target root                                      0
    Trial vectors per root                          10

  Allocating memory for the Hamiltonian algorithm. Size: 2 x 4 x 4.   Memory: 0.000000 GB

  ==> FCI Initial Guess <==

  ---------------------------------------------
    Root            Energy     <S^2>   Spin
  ---------------------------------------------
      0     -100.038625208202  0.000  singlet
      1      -99.374449767292  2.000  triplet
      2      -99.003988531332  0.000  singlet
      3      -98.534387219305  2.000  triplet
      4      -98.457736553995  0.000  singlet
      5      -98.427008867804  0.000  singlet
      6      -98.315946742232  0.000  singlet
      7      -98.160478458188  0.000  singlet
      8      -97.593013970184  2.000  triplet
      9      -97.245267615661  0.000  singlet
     10      -96.524653674296  0.000  singlet
     11      -74.282041448313  2.000  triplet
     12      -74.243494541133  0.000  singlet
     13      -73.026260472770  2.000  triplet
     14      -72.922874964332  0.000  singlet
     15      -72.248306550952  2.000  triplet
     16      -72.085494656110  0.000  singlet
     17      -44.027899266664  0.000  singlet
  ---------------------------------------------
  Timing for initial guess  =      0.001 s

  Projecting out root 1
  Projecting out root 3
  Projecting out root 8
  Projecting out root 11
  Projecting out root 13
  Projecting out root 15

  ==> Diagonalizing Hamiltonian <==

  Energy   convergence: 1.00e-10
  Residual convergence: 1.00e-08
  -----------------------------------------------------
    Iter.      Avg. Energy       Delta_E     Res. Norm
  -----------------------------------------------------
      1     -100.038625208202  -1.000e+02  +9.450e-14
      2     -100.038625208202  +0.000e+00  +9.450e-14
  -----------------------------------------------------
  The Davidson-Liu algorithm converged in 3 iterations.

  ==> Root No. 0 <==

    2220 2 2      0.99230871
    2202 2 2     -0.10778534

    Total Energy:    -100.038625208202, <S^2>: -0.000000

  ==> Energy Summary <==

    Multi.(2ms)  Irrep.  No.               Energy      <S^2>
    --------------------------------------------------------
       1  (  0)    A1     0     -100.038625208202  -0.000000
    --------------------------------------------------------

  ==> Computing RDMs for Root No. 0 <==

    Timing for 1-RDM: 0.000 s
    Timing for 2-RDM: 0.000 s

  ==> NATURAL ORBITALS <==

        1A1     1.999999      1B2     1.999715      1B1     1.999715  
        2A1     1.999702      3A1     1.971480      4A1     0.029390  


 CAS took 0.003707 seconds.

 FormFockIntermediates took 0.00073659 s.

 FormOrbitalGradient took 0.00013787 s.

 FormDiagHessian took 0.00000738 s.

 Update function takes 0.00091151 s
   10 0.000000667777    -0.000000000142  -100.038625208202    0.0 s  DIIS ~

  Transform Integrals takes 0.00123334 s.

  Performing a CAS with FCI

  ==> Summary of Active Space Solver Input <==

    Irrep.  Multi.(2ms)      N
    --------------------------
       A1      1  (  0)      1
    --------------------------
    N: number of roots
    ms: spin z component
    Total number of roots:   1
    --------------------------


  ==> String Lists <==

  Number of alpha electrons     = 5
  Number of beta electrons      = 5
  Number of alpha strings       = 6
  Number of beta strings        = 6
  Number of alpha strings (N-3) = 15
  Number of beta strings (N-3)  = 15
  Timing for strings        =      0.000 s
  Timing for NN strings     =      0.000 s
  Timing for VO strings     =      0.000 s
  Timing for OO strings     =      0.001 s
  Timing for VVOO strings   =      0.000 s
  Timing for VOVO strings   =      0.000 s
  Timing for 1-hole strings =      0.000 s
  Timing for 2-hole strings =      0.000 s
  Timing for 3-hole strings =      0.000 s
  Total timing              =      0.001 s

  ==> FCI Solver <==

    Number of determinants                          18
    Symmetry                                         0
    Multiplicity                                     1
    Number of roots                                  1
    Target root                                      0
    Trial vectors per root                          10

  Allocating memory for the Hamiltonian algorithm. Size: 2 x 4 x 4.   Memory: 0.000000 GB

  ==> FCI Initial Guess <==

  ---------------------------------------------
    Root            Energy     <S^2>   Spin
  ---------------------------------------------
      0     -100.038625208208  0.000  singlet
      1      -99.374448549405  2.000  triplet
      2      -99.003985999273  0.000  singlet
      3      -98.534386086860  2.000  triplet
      4      -98.457736066575  0.000  singlet
      5      -98.427009017579  0.000  singlet
      6      -98.315946210176  0.000  singlet
      7      -98.160476313409  0.000  singlet
      8      -97.593013253241  2.000  triplet
      9      -97.245266890600  0.000  singlet
     10      -96.524654108585  0.000  singlet
     11      -74.282042084090  2.000  triplet
     12      -74.243494978526  0.000  singlet
     13      -73.026262662413  2.000  triplet
     14      -72.922876923911  0.000  singlet
     15      -72.248309955942  2.000  triplet
     16      -72.085498030424  0.000  singlet
     17      -44.027905738099  0.000  singlet
  ---------------------------------------------
  Timing for initial guess  =      0.001 s

  Projecting out root 1
  Projecting out root 3
  Projecting out root 8
  Projecting out root 11
  Projecting out root 13
  Projecting out root 15

  ==> Diagonalizing Hamiltonian <==

  Energy   convergence: 1.00e-10
  Residual convergence: 1.00e-08
  -----------------------------------------------------
    Iter.      Avg. Energy       Delta_E     Res. Norm
  -----------------------------------------------------
      1     -100.038625208208  -1.000e+02  +7.516e-14
      2     -100.038625208208  +0.000e+00  +7.516e-14
  -----------------------------------------------------
  The Davidson-Liu algorithm converged in 3 iterations.

  ==> Root No. 0 <==

    2220 2 2      0.99230866
    2202 2 2     -0.10778543

    Total Energy:    -100.038625208208, <S^2>: 0.000000

  ==> Energy Summary <==

    Multi.(2ms)  Irrep.  No.               Energy      <S^2>
    --------------------------------------------------------
       1  (  0)    A1     0     -100.038625208208   0.000000
    --------------------------------------------------------

  ==> Computing RDMs for Root No. 0 <==

    Timing for 1-RDM: 0.000 s
    Timing for 2-RDM: 0.000 s

  ==> NATURAL ORBITALS <==

        1A1     1.999999      1B1     1.999715      1B2     1.999715  
        2A1     1.999702      3A1     1.971480      4A1     0.029390  


 CAS took 0.005501 seconds.

 FormFockIntermediates took 0.00117387 s.

 FormOrbitalGradient took 0.00021719 s.

 FormDiagHessian took 0.00000911 s.

 Update function takes 0.00144813 s
   11 0.000000110483    -0.000000000006  -100.038625208208    0.0 s  DIIS ~

  Transform Integrals takes 0.00201922 s.

  Performing a CAS with FCI

  ==> Summary of Active Space Solver Input <==

    Irrep.  Multi.(2ms)      N
    --------------------------
       A1      1  (  0)      1
    --------------------------
    N: number of roots
    ms: spin z component
    Total number of roots:   1
    --------------------------


  ==> String Lists <==

  Number of alpha electrons     = 5
  Number of beta electrons      = 5
  Number of alpha strings       = 6
  Number of beta strings        = 6
  Number of alpha strings (N-3) = 15
  Number of beta strings (N-3)  = 15
  Timing for strings        =      0.000 s
  Timing for NN strings     =      0.000 s
  Timing for VO strings     =      0.000 s
  Timing for OO strings     =      0.000 s
  Timing for VVOO strings   =      0.000 s
  Timing for VOVO strings   =      0.000 s
  Timing for 1-hole strings =      0.000 s
  Timing for 2-hole strings =      0.000 s
  Timing for 3-hole strings =      0.000 s
  Total timing              =      0.000 s

  ==> FCI Solver <==

    Number of determinants                          18
    Symmetry                                         0
    Multiplicity                                     1
    Number of roots                                  1
    Target root                                      0
    Trial vectors per root                          10

  Allocating memory for the Hamiltonian algorithm. Size: 2 x 4 x 4.   Memory: 0.000000 GB

  ==> FCI Initial Guess <==

  ---------------------------------------------
    Root            Energy     <S^2>   Spin
  ---------------------------------------------
      0     -100.038625208209  0.000  singlet
      1      -99.374448523381  2.000  triplet
      2      -99.003985891792  0.000  singlet
      3      -98.534386054476  2.000  triplet
      4      -98.457736032148  0.000  singlet
      5      -98.427009030567  0.000  singlet
      6      -98.315946195552  0.000  singlet
      7      -98.160476271040  0.000  singlet
      8      -97.593013251674  2.000  triplet
      9      -97.245266902030  0.000  singlet
     10      -96.524654134401  0.000  singlet
     11      -74.282042160707  2.000  triplet
     12      -74.243495043598  0.000  singlet
     13      -73.026262837825  2.000  triplet
     14      -72.922877086520  0.000  singlet
     15      -72.248310158719  2.000  triplet
     16      -72.085498229888  0.000  singlet
     17      -44.027906123960  0.000  singlet
  ---------------------------------------------
  Timing for initial guess  =      0.003 s

  Projecting out root 1
  Projecting out root 3
  Projecting out root 8
  Projecting out root 11
  Projecting out root 13
  Projecting out root 15

  ==> Diagonalizing Hamiltonian <==

  Energy   convergence: 1.00e-10
  Residual convergence: 1.00e-08
  -----------------------------------------------------
    Iter.      Avg. Energy       Delta_E     Res. Norm
  -----------------------------------------------------
      1     -100.038625208209  -1.000e+02  +7.651e-14
      2     -100.038625208209  +0.000e+00  +7.651e-14
  -----------------------------------------------------
  The Davidson-Liu algorithm converged in 3 iterations.

  ==> Root No. 0 <==

    2220 2 2      0.99230866
    2202 2 2     -0.10778544

    Total Energy:    -100.038625208209, <S^2>: -0.000000

  ==> Energy Summary <==

    Multi.(2ms)  Irrep.  No.               Energy      <S^2>
    --------------------------------------------------------
       1  (  0)    A1     0     -100.038625208209  -0.000000
    --------------------------------------------------------

  ==> Computing RDMs for Root No. 0 <==

    Timing for 1-RDM: 0.000 s
    Timing for 2-RDM: 0.000 s

  ==> NATURAL ORBITALS <==

        1A1     1.999999      1B1     1.999715      1B2     1.999715  
        2A1     1.999702      3A1     1.971480      4A1     0.029390  


 CAS took 0.007335 seconds.

 FormFockIntermediates took 0.00119178 s.

 FormOrbitalGradient took 0.00294565 s.

 FormDiagHessian took 0.00000939 s.

 Update function takes 0.00420837 s
   12 0.000000031412    -0.000000000000  -100.038625208209    0.0 s  DIIS ~

  Transform Integrals takes 0.00414297 s.

  Performing a CAS with FCI

  ==> Summary of Active Space Solver Input <==

    Irrep.  Multi.(2ms)      N
    --------------------------
       A1      1  (  0)      1
    --------------------------
    N: number of roots
    ms: spin z component
    Total number of roots:   1
    --------------------------


  ==> String Lists <==

  Number of alpha electrons     = 5
  Number of beta electrons      = 5
  Number of alpha strings       = 6
  Number of beta strings        = 6
  Number of alpha strings (N-3) = 15
  Number of beta strings (N-3)  = 15
  Timing for strings        =      0.000 s
  Timing for NN strings     =      0.000 s
  Timing for VO strings     =      0.000 s
  Timing for OO strings     =      0.000 s
  Timing for VVOO strings   =      0.000 s
  Timing for VOVO strings   =      0.000 s
  Timing for 1-hole strings =      0.000 s
  Timing for 2-hole strings =      0.000 s
  Timing for 3-hole strings =      0.000 s
  Total timing              =      0.000 s

  ==> FCI Solver <==

    Number of determinants                          18
    Symmetry                                         0
    Multiplicity                                     1
    Number of roots                                  1
    Target root                                      0
    Trial vectors per root                          10

  Allocating memory for the Hamiltonian algorithm. Size: 2 x 4 x 4.   Memory: 0.000000 GB

  ==> FCI Initial Guess <==

  ---------------------------------------------
    Root            Energy     <S^2>   Spin
  ---------------------------------------------
      0     -100.038625208209  0.000  singlet
      1      -99.374448596107  2.000  triplet
      2      -99.003985949458  0.000  singlet
      3      -98.534386125979  2.000  triplet
      4      -98.457736155082  0.000  singlet
      5      -98.427009189625  0.000  singlet
      6      -98.315946325038  0.000  singlet
      7      -98.160476409105  0.000  singlet
      8      -97.593013409430  2.000  triplet
      9      -97.245267055414  0.000  singlet
     10      -96.524654304933  0.000  singlet
     11      -74.282042240745  2.000  triplet
     12      -74.243495129905  0.000  singlet
     13      -73.026262973499  2.000  triplet
     14      -72.922877220571  0.000  singlet
     15      -72.248310311901  2.000  triplet
     16      -72.085498382550  0.000  singlet
     17      -44.027906264548  0.000  singlet
  ---------------------------------------------
  Timing for initial guess  =      0.001 s

  Projecting out root 1
  Projecting out root 3
  Projecting out root 8
  Projecting out root 11
  Projecting out root 13
  Projecting out root 15

  ==> Diagonalizing Hamiltonian <==

  Energy   convergence: 1.00e-10
  Residual convergence: 1.00e-08
  -----------------------------------------------------
    Iter.      Avg. Energy       Delta_E     Res. Norm
  -----------------------------------------------------
      1     -100.038625208209  -1.000e+02  +8.114e-14
      2     -100.038625208209  +0.000e+00  +8.114e-14
  -----------------------------------------------------
  The Davidson-Liu algorithm converged in 3 iterations.

  ==> Root No. 0 <==

    2220 2 2     -0.99230865
    2202 2 2      0.10778545

    Total Energy:    -100.038625208209, <S^2>: -0.000000

  ==> Energy Summary <==

    Multi.(2ms)  Irrep.  No.               Energy      <S^2>
    --------------------------------------------------------
       1  (  0)    A1     0     -100.038625208209  -0.000000
    --------------------------------------------------------

  ==> Computing RDMs for Root No. 0 <==

    Timing for 1-RDM: 0.000 s
    Timing for 2-RDM: 0.000 s

  ==> NATURAL ORBITALS <==

        1A1     1.999999      1B2     1.999715      1B1     1.999715  
        2A1     1.999702      3A1     1.971480      4A1     0.029390  


 CAS took 0.005974 seconds.

 FormFockIntermediates took 0.00075677 s.

 FormOrbitalGradient took 0.00014413 s.

 FormDiagHessian took 0.00000702 s.

 Update function takes 0.00094031 s
    13   0.000000003345   0.000000000000   -100.038625208209    0.011334 s

  A miracle has come to pass: CASSCF iterations have converged.

 @ Final CASSCF Energy = -100.038625208208572


       -----------------------------------------------------------------
                            Semi-Canonical Orbitals
         Chenyang Li, Jeffrey B. Schriber and Francesco A. Evangelista
       -----------------------------------------------------------------

  Took 0.000681 s to build Fock matrix

  ==> Checking Fock Matrix Diagonal Blocks <==

    Off-Diag. Elements       Max           2-Norm
    ------------------------------------------------
    FROZEN_DOCC          0.0000000000   0.0000000000
    FROZEN_UOCC          0.0000000000   0.0000000000
    GAS1                 0.0124297772   0.0197407832
    GAS2                 0.0000000000   0.0000000000
    GAS3                 0.0000000000   0.0000000000
    GAS4                 0.0000000000   0.0000000000
    GAS5                 0.0000000000   0.0000000000
    GAS6                 0.0000000000   0.0000000000
    RESTRICTED_DOCC      0.0000000000   0.0000000000
    RESTRICTED_UOCC      0.2158295370   0.4727730523
    ------------------------------------------------
  Timing for semi-canonicalization:                           0.001 s.

  Time to prepare integrals:        0.189 seconds
  Time to run job          :        0.123 seconds
  Total                    :        0.312 seconds
    CASSCF Forte vs Psi4..................................................................PASSED

    Psi4 stopped on: Tuesday, 16 March 2021 06:10PM
    Psi4 wall time for execution: 0:00:03.13

*** Psi4 exiting successfully. Buy a developer a beer!
