    -----------------------------------------------------------------------
          Psi4: An Open-Source Ab Initio Electronic Structure Package
                              Psi4 (no tag) Driver

                          Git: Rev {master} 7baee9b dirty

    J. M. Turney, A. C. Simmonett, R. M. Parrish, E. G. Hohenstein,
    F. A. Evangelista, J. T. Fermann, B. J. Mintz, L. A. Burns, J. J. Wilke,
    M. L. Abrams, N. J. Russ, M. L. Leininger, C. L. Janssen, E. T. Seidl,
    W. D. Allen, H. F. Schaefer, R. A. King, E. F. Valeev, C. D. Sherrill,
    and T. D. Crawford, WIREs Comput. Mol. Sci. 2, 556-565 (2012)
    (doi: 10.1002/wcms.93)

                         Additional Contributions by
    A. E. DePrince, M. Saitow, U. Bozkaya, A. Yu. Sokolov
    -----------------------------------------------------------------------


    Psi4 started on: Fri Aug 28 11:54:54 2015

    Process ID:   5726
    PSI4DATADIR: /Users/kevinhannon/Programs/psi4private_clang/psi4/lib
    Memory level set to 256.000 MB

  ==> Input File <==

--------------------------------------------------------------------------
#! Performs a DF-DSRG-MRPT2 on HF.
#! Generated using commit GITCOMMIT
import forte

refmcscf      = -99.939316381644 #cc-pvdz
refdsrgpt2    = -100.102359671339215

memory 500 mb

molecule HF{
  0 1
  F
  H  1 R
  R = 1.50
}

set globals{
   basis                   cc-pvdz
   df_basis_mp2            cc-pvdz-ri
   reference               twocon
   scf_type                pk
   d_convergence           12
   e_convergence           15
}

set mcscf{
   docc                   [2,0,1,1]
   socc                   [2,0,0,0]
   maxiter                 1000
   level_shift             2.0
}

set forte{
   frozen_docc            [1,0,0,0]
   restricted_docc        [1,0,1,1]
   active                 [2,0,0,0]
   root_sym                0
   nroot                   1
   dsrg_s                  1.0
   int_type                df
   job_type                three-dsrg-mrpt2
}

ref = energy('mcscf')
energy('forte')

compare_values(refmcscf, ref,10,"SCF energy")
compare_values(refdsrgpt2, get_variable("CURRENT ENERGY"),10,"DSRG-MRPT2 energy")
--------------------------------------------------------------------------
/Users/kevinhannon/Programs/forte/forte.so loaded.

  Memory set to 500.000 MiB by Python script.

         ------------------------------------------
           MCSCF: a self-consistent field program
            written by Francesco A. Evangelista
         ------------------------------------------ MINTS: Wrapper to libmints.
   by Justin Turney

   Calculation information:
      Number of atoms:                   2
      Number of AO shells:               9
      Number of SO shells:               9
      Number of primitives:             27
      Number of atomic orbitals:        20
      Number of basis functions:        19

      Number of irreps:                  4
      Integral cutoff                 1.00e-12
      Number of functions per irrep: [  10    1    4    4 ]

 OEINTS: Overlap, kinetic, potential, dipole, and quadrupole integrals
         stored in file 35.

      Computing two-electron integrals...done
      Computed 4125 non-zero two-electron integrals.
        Stored in file 33.



  MOs per irrep:                                      A1  A2  B1  B2 Total
  ----------------------------------------------------------------------------
  Total                                               10    1    4    4    19
  Doubly Occupied                                      2    0    1    1     4
  Active/Singly Occupied                               2    0    0    0     2
  ----------------------------------------------------------------------------

  Running an SCF calculation
  TWOCON MOs = [2 (A1),3 (A1)]

  Generated 190 pairs
  Distributed as [76 A1][26 A2][44 B1][44 B2]
  batch   0 pq = [       0,      76] index = [               0,            2926]

  Allocated the PK matrix (2926 elements) 
  Allocated the  K matrix (2926 elements) 
  Reading the two-electron integrals to form PK and K ... 
  batch   0 ... done.


  =========================================================================================
         Cycle          Energy               D(Energy)            D(Density)            DIIS
  ===========================================================================================
  Setting level shift to 2.000 S
  @SCF    0      -93.745779875389     -93.745779875389       0.147704440309
    ci      = [ 0.00000000, 0.00000000]
    ci_grad = [ 0.00000000, 0.00000000]
  Setting level shift to 2.000 S
  @SCF    1      -98.407782353312      -4.662002477922       0.112176394879
    ci      = [ 0.00000000, 0.00000000]
    ci_grad = [ 0.00000000, 0.00000000]
  Setting level shift to 2.000 S
  @SCF    2      -99.045950761065      -0.638168407753       0.012062093505
    ci      = [ 0.00000000, 0.00000000]
    ci_grad = [ 0.00000000, 0.00000000]
  Setting level shift to 2.000 S
  @SCF    3      -99.190856096022      -0.144905334957       0.006982186304
    ci      = [ 0.00000000, 0.00000000]
    ci_grad = [ 0.00000000, 0.00000000]
  Setting level shift to 2.000 S
  @SCF    4      -99.311765380425      -0.120909284404       0.003873591296
    ci      = [ 0.00000000, 0.00000000]
    ci_grad = [ 0.00000000, 0.00000000]
  Setting level shift to 2.000 S
  @SCF    5      -99.308291611212       0.003473769213       0.003339676118
    ci      = [ 0.00000000, 0.00000000]
    ci_grad = [ 0.00000000, 0.00000000]
  Setting level shift to 2.000 S
  @SCF    6      -99.350335008314      -0.042043397102       0.002567518207
    ci      = [ 0.00000000, 0.00000000]
    ci_grad = [ 0.00000000, 0.00000000]
  Setting level shift to 2.000 S/E
  @SCF    7      -99.331068888924       0.019266119390       0.002394972992
    ci      = [ 0.00000000, 0.00000000]
    ci_grad = [ 0.00000000, 0.00000000]
  Setting level shift to 2.000 S/E
  @SCF    8      -99.347485500542      -0.016416611618       0.001068005394
    ci      = [ 0.00000000, 0.00000000]
    ci_grad = [ 0.00000000, 0.00000000]
  Setting level shift to 2.000 S/E
  @SCF    9      -99.347734749230      -0.000249248688       0.000035713055
    ci      = [ 0.00000000, 0.00000000]
    ci_grad = [ 0.00000000, 0.00000000]
  Setting level shift to 2.000 S/E
  @SCF   10      -99.347678217796       0.000056531434       0.000006556322
    ci      = [ 0.00000000, 0.00000000]
    ci_grad = [ 0.00000000, 0.00000000]
  Setting level shift to 2.000 S/E
  @SCF   11      -99.347685078069      -0.000006860273       0.000001943966
    ci      = [-0.98717288, 0.15965494]
    ci_grad = [ 0.00000000, 0.00000000]
  Setting level shift to 2.000 S/E
  @SCF   12      -99.347677521694       0.000007556375       0.000001656043
    ci      = [-0.98717320, 0.15965296]
    ci_grad = [-0.00000713, 0.00000322]
  Setting level shift to 2.000 S/E
  @SCF   13      -99.347667993945       0.000009527749       0.000000292686
    ci      = [-0.98717313, 0.15965342]
    ci_grad = [-0.00000948, 0.00000105]
  Setting level shift to 2.000 S/E
  @SCF   14      -99.347681304415      -0.000013310470       0.000000496252
    ci      = [-0.98717313, 0.15965342]
    ci_grad = [ 0.00001329,-0.00000120]
  Setting level shift to 2.000 S/E
  @SCF   15      -99.347684898154      -0.000003593739       0.000000407232
    ci      = [-0.98717325, 0.15965269]
    ci_grad = [ 0.00000367, 0.00000017]
  Setting level shift to 2.000 S/E
  @SCF   16      -99.347674638391       0.000010259763       0.000000525894
    ci      = [-0.98717325, 0.15965269]
    ci_grad = [-0.00001026, 0.00000080]
  Setting level shift to 2.000 S/E
  @SCF   17      -99.347691665573      -0.000017027182       0.000001810944
    ci      = [-0.98717325, 0.15965269]
    ci_grad = [ 0.00001605,-0.00000740]
  Setting level shift to 2.000 S/E
  @SCF   18      -99.347693571313      -0.000001905741       0.000001051322
    ci      = [-0.98717288, 0.15965498]
    ci_grad = [ 0.00000150,-0.00000263]
  Setting level shift to 2.000 S/E
  @SCF   19      -99.858733641476      -0.511040070163       0.030751665809
    ci      = [-0.98717288, 0.15965498]
    ci_grad = [ 0.50751039,-0.06076916]
  Setting level shift to 2.000 S/E
  @SCF   20      -99.890299316049      -0.031565674573       0.008960508072
    ci      = [-0.98717288, 0.15965498]
    ci_grad = [ 0.03620587, 0.03303258]
  Setting level shift to 2.000 S/E
  @SCF   21      -99.899086597203      -0.008787281154       0.004542285057
    ci      = [-0.98717288, 0.15965498]
    ci_grad = [ 0.01087949, 0.01329295]
  Setting level shift to 2.000 S/E
  @SCF   22      -99.903117259019      -0.004030661816       0.002483329400
    ci      = [-0.98717288, 0.15965498]
    ci_grad = [ 0.00450186, 0.00264454]
  Setting level shift to 2.000 S/E
  @SCF   23      -99.908511023310      -0.005393764291       0.004037046306
    ci      = [-0.98717288, 0.15965498]
    ci_grad = [ 0.00222976,-0.01835581]
  Setting level shift to 2.000 S/E
  @SCF   24      -99.914108067970      -0.005597044660       0.004741294126
    ci      = [-0.98717288, 0.15965498]
    ci_grad = [-0.00182681,-0.03840280]
  Setting level shift to 2.000 S/E
  @SCF   25      -99.916509709539      -0.002401641569       0.002210577370
    ci      = [-0.98717288, 0.15965498]
    ci_grad = [-0.00663728,-0.04472703]
  Setting level shift to 2.000 S/E
  @SCF   26      -99.922893262267      -0.006383552728       0.006732442902
    ci      = [-0.98717288, 0.15965498]
    ci_grad = [-0.00767218,-0.06361749]
  Setting level shift to 2.000 S/E
  @SCF   27      -99.924998751903      -0.002105489636       0.002526091867
    ci      = [-0.98717288, 0.15965498]
    ci_grad = [-0.01355594,-0.06837863]
  Setting level shift to 2.000 S/E
  @SCF   28      -99.928237343196      -0.003238591293       0.005484745706
    ci      = [-0.98717288, 0.15965498]
    ci_grad = [-0.01491819,-0.07626668]
  Setting level shift to 2.000 S/E
  @SCF   29      -99.929846238641      -0.001608895445       0.003319316494
    ci      = [-0.98717288, 0.15965498]
    ci_grad = [-0.01790101,-0.08001569]
  Setting level shift to 2.000 S/E
  @SCF   30      -99.932119742866      -0.002273504225       0.003306054178
    ci      = [-0.98717288, 0.15965498]
    ci_grad = [-0.01937295,-0.08585819]
  Setting level shift to 2.000 S/E
  @SCF   31      -99.932423666170      -0.000303923304       0.001471633115
    ci      = [-0.98717288, 0.15965498]
    ci_grad = [-0.02161773,-0.08639178]
  Setting level shift to 2.000 S/E
  @SCF   32      -99.934206938548      -0.001783272378       0.003095203953
    ci      = [-0.98717288, 0.15965498]
    ci_grad = [-0.02187491,-0.09090430]
  Setting level shift to 2.000 S/E
  @SCF   33      -99.934717341535      -0.000510402986       0.001495306119
    ci      = [-0.98717288, 0.15965498]
    ci_grad = [-0.02367253,-0.09202841]
  Setting level shift to 2.000 S/E
  @SCF   34      -99.935065301752      -0.000347960218       0.000761743485
    ci      = [-0.98717288, 0.15965498]
    ci_grad = [-0.02422809,-0.09289359]
  Setting level shift to 2.000 S/E
  @SCF   35      -99.935110218783      -0.000044917031       0.000602108048
    ci      = [-0.98717288, 0.15965498]
    ci_grad = [-0.02457468,-0.09297676]
  Setting level shift to 2.000 S/E
  @SCF   36      -99.935211331222      -0.000101112438       0.000298740706
    ci      = [-0.98717288, 0.15965498]
    ci_grad = [-0.02463607,-0.09323040]
  Setting level shift to 2.000 S/E
  @SCF   37      -99.935264477212      -0.000053145990       0.000107508166
    ci      = [-0.98717288, 0.15965498]
    ci_grad = [-0.02475404,-0.09337937]
  Setting level shift to 2.000 S/E
  @SCF   38      -99.935351496857      -0.000087019645       0.000289936903
    ci      = [-0.98717288, 0.15965498]
    ci_grad = [-0.02482735,-0.09361421]
  Setting level shift to 2.000 S/E
  @SCF   39      -99.935468823504      -0.000117326647       0.000310232565
    ci      = [-0.98717288, 0.15965498]
    ci_grad = [-0.02495066,-0.09394317]
  Setting level shift to 2.000 S/E
  @SCF   40      -99.935562925593      -0.000094102089       0.000266834061
    ci      = [-0.98717288, 0.15965498]
    ci_grad = [-0.02509980,-0.09420757]
  Setting level shift to 2.000 S/E
  @SCF   41      -99.935643019899      -0.000080094306       0.000278520987
    ci      = [-0.98717288, 0.15965498]
    ci_grad = [-0.02522024,-0.09442553]
  Setting level shift to 2.000 S/E
  @SCF   42      -99.935675434784      -0.000032414885       0.000143869465
    ci      = [-0.98717288, 0.15965498]
    ci_grad = [-0.02531074,-0.09450987]
  Setting level shift to 2.000 S/E
  @SCF   43      -99.935676779770      -0.000001344986       0.000127679572
    ci      = [-0.96587649, 0.25900311]
    ci_grad = [-0.02534030,-0.09450441]
  Setting level shift to 2.000 S/E
  @SCF   44      -99.935700745663      -0.000023965893       0.000249468282
    ci      = [-0.96587649, 0.25900311]
    ci_grad = [-0.00000703,-0.00011871]
  Setting level shift to 2.000 S/E
  @SCF   45      -99.935683062827       0.000017682836       0.000055040301
    ci      = [-0.96587649, 0.25900311]
    ci_grad = [-0.00002189,-0.00001335]
  Setting level shift to 2.000 S/E
  @SCF   46      -99.935673401632       0.000009661194       0.000063274635
    ci      = [-0.96588978, 0.25895355]
    ci_grad = [ 0.00000348, 0.00005031]
  Setting level shift to 2.000 S/E
  @SCF   47      -99.935786535155      -0.000113133523       0.000370926676
    ci      = [-0.96588978, 0.25895355]
    ci_grad = [-0.00005397,-0.00063661]
  Setting level shift to 2.000 S/E
  @SCF   48      -99.935787431666      -0.000000896511       0.000044013362
    ci      = [-0.96571973, 0.25958700]
    ci_grad = [-0.00016300,-0.00060986]
  Setting level shift to 2.000 S/E
  @SCF   49      -99.935772747487       0.000014684178       0.000056298511
    ci      = [-0.96571973, 0.25958700]
    ci_grad = [ 0.00000800, 0.00008635]
  Setting level shift to 2.000 S/E
  @SCF   50      -99.935777296142      -0.000004548655       0.000022154171
    ci      = [-0.96573504, 0.25953003]
    ci_grad = [ 0.00001913, 0.00005367]
  Setting level shift to 2.000 S/E
  @SCF   51      -99.937159512981      -0.001382216839       0.003391336524
    ci      = [-0.96573504, 0.25953003]
    ci_grad = [-0.00165343,-0.01097589]
  Setting level shift to 2.000 S/E
  @SCF   52      -99.937343681494      -0.000184168512       0.001440292203
    ci      = [-0.96573504, 0.25953003]
    ci_grad = [-0.00265430,-0.01013231]
  Setting level shift to 2.000 S/E
  @SCF   53      -99.937459772502      -0.000116091008       0.000210164426
    ci      = [-0.96573504, 0.25953003]
    ci_grad = [-0.00297351,-0.01097501]
  Setting level shift to 2.000 S/E
  @SCF   54      -99.938118115814      -0.000658343312       0.001533895868
    ci      = [-0.96573504, 0.25953003]
    ci_grad = [-0.00410733,-0.01658265]
  Setting level shift to 2.000 S/E
  @SCF   55      -99.938613799781      -0.000495683968       0.001320309332
    ci      = [-0.96573504, 0.25953003]
    ci_grad = [-0.00551930,-0.02049561]
  Setting level shift to 2.000 S/E
  @SCF   56      -99.938813834621      -0.000200034839       0.000723254337
    ci      = [-0.96573504, 0.25953003]
    ci_grad = [-0.00638305,-0.02218821]
  Setting level shift to 2.000 S/E
  @SCF   57      -99.938979848032      -0.000166013411       0.000826017405
    ci      = [-0.96573504, 0.25953003]
    ci_grad = [-0.00693746,-0.02374569]
  Setting level shift to 2.000 S/E
  @SCF   58      -99.939035349264      -0.000055501232       0.000618194124
    ci      = [-0.96573504, 0.25953003]
    ci_grad = [-0.00722665,-0.02425277]
  Setting level shift to 2.000 S/E
  @SCF   59      -99.939049541722      -0.000014192458       0.000168239771
    ci      = [-0.96573504, 0.25953003]
    ci_grad = [-0.00732512,-0.02441352]
  Setting level shift to 2.000 S/E
  @SCF   60      -99.939062344753      -0.000012803032       0.000073520067
    ci      = [-0.96573504, 0.25953003]
    ci_grad = [-0.00738112,-0.02457574]
  Setting level shift to 2.000 S/E
  @SCF   61      -99.939069282065      -0.000006937311       0.000124426052
    ci      = [-0.95756709, 0.28821046]
    ci_grad = [-0.00740600,-0.02463017]
  Setting level shift to 2.000 S/E
  @SCF   62      -99.939093441589      -0.000024159524       0.000308489162
    ci      = [-0.95756709, 0.28821046]
    ci_grad = [-0.00008047,-0.00035067]
  Setting level shift to 2.000 S/E
  @SCF   63      -99.939089332887       0.000004108702       0.000048595865
    ci      = [-0.95747016, 0.28853230]
    ci_grad = [-0.00008745,-0.00027597]
  Setting level shift to 2.000 S/E
  @SCF   64      -99.939101135689      -0.000011802802       0.000071006297
    ci      = [-0.95747016, 0.28853230]
    ci_grad = [-0.00004852,-0.00020175]
  Setting level shift to 2.000 S/E
  @SCF   65      -99.939103211438      -0.000002075749       0.000017766082
    ci      = [-0.95738838, 0.28880356]
    ci_grad = [-0.00006841,-0.00023396]
  Setting level shift to 2.000 S/E
  @SCF   66      -99.939102562916       0.000000648521       0.000011681114
    ci      = [-0.95739208, 0.28879128]
    ci_grad = [ 0.00000257, 0.00001075]
  Setting level shift to 2.000 S/E
  @SCF   67      -99.939112043755      -0.000009480838       0.000105284823
    ci      = [-0.95732751, 0.28900525]
    ci_grad = [-0.00004644,-0.00018665]
  Setting level shift to 2.000 S/E
  @SCF   68      -99.939091941090       0.000020102665       0.000096114581
    ci      = [-0.95732751, 0.28900525]
    ci_grad = [ 0.00008724, 0.00035907]
  Setting level shift to 2.000 S/E
  @SCF   69      -99.939221541950      -0.000129600860       0.000653977523
    ci      = [-0.95732751, 0.28900525]
    ci_grad = [-0.00071446,-0.00278164]
  Setting level shift to 2.000 S/E
  @SCF   70      -99.939233019636      -0.000011477687       0.000100432128
    ci      = [-0.95732751, 0.28900525]
    ci_grad = [-0.00091249,-0.00302182]
  Setting level shift to 2.000 S/E
  @SCF   71      -99.939285589630      -0.000052569993       0.000601019036
    ci      = [-0.95732751, 0.28900525]
    ci_grad = [-0.00151242,-0.00507669]
  Setting level shift to 2.000 S/E
  @SCF   72      -99.939290986204      -0.000005396574       0.000385143468
    ci      = [-0.95571145, 0.29430534]
    ci_grad = [-0.00137222,-0.00447442]
  Setting level shift to 2.000 S/E
  @SCF   73      -99.939304483990      -0.000013497786       0.000268458016
    ci      = [-0.95571145, 0.29430534]
    ci_grad = [-0.00019559,-0.00067900]
  Setting level shift to 2.000 S/E
  @SCF   74      -99.939315924334      -0.000011440344       0.000452363296
    ci      = [-0.95571145, 0.29430534]
    ci_grad = [-0.00067584,-0.00221183]
  Setting level shift to 2.000 S/E
  @SCF   75      -99.939314951831       0.000000972503       0.000120643360
    ci      = [-0.95508640, 0.29632748]
    ci_grad = [-0.00052687,-0.00169485]
  Setting level shift to 2.000 S/E
  @SCF   76      -99.939314592182       0.000000359649       0.000017430093
    ci      = [-0.95511652, 0.29623037]
    ci_grad = [ 0.00002492, 0.00008156]
  Setting level shift to 2.000 S/E
  @SCF   77      -99.939315752177      -0.000001159995       0.000078330654
    ci      = [-0.95501995, 0.29654155]
    ci_grad = [-0.00007984,-0.00026105]
  Setting level shift to 2.000 S/E
  @SCF   78      -99.939316139535      -0.000000387358       0.000044023605
    ci      = [-0.95496335, 0.29672377]
    ci_grad = [-0.00004704,-0.00015269]
  Setting level shift to 2.000 S/E
  @SCF   79      -99.939316313566      -0.000000174030       0.000057326395
    ci      = [-0.95489896, 0.29693092]
    ci_grad = [-0.00005372,-0.00017335]
  Setting level shift to 2.000 S/E
  @SCF   80      -99.939316316580      -0.000000003014       0.000018935345
    ci      = [-0.95492410, 0.29685006]
    ci_grad = [ 0.00002104, 0.00006767]
  Setting level shift to 2.000 S/E
  @SCF   81      -99.939316359692      -0.000000043113       0.000024867581
    ci      = [-0.95490830, 0.29690089]
    ci_grad = [-0.00001318,-0.00004254]
  Setting level shift to 2.000 S/E
  @SCF   82      -99.939316365248      -0.000000005556       0.000010191622
    ci      = [-0.95491598, 0.29687619]
    ci_grad = [ 0.00000643, 0.00002066]
  Setting level shift to 2.000 S/E
  @SCF   83      -99.939316368447      -0.000000003199       0.000003792013
    ci      = [-0.95491326, 0.29688495]
    ci_grad = [-0.00000227,-0.00000732]
  Setting level shift to 2.000 S/E
  @SCF   84      -99.939316376492      -0.000000008045       0.000018069251
    ci      = [-0.95489460, 0.29694494]
    ci_grad = [-0.00001560,-0.00005018]
  Setting level shift to 2.000 S/E
  @SCF   85      -99.939316378883      -0.000000002391       0.000005513321
    ci      = [-0.95490214, 0.29692069]
    ci_grad = [ 0.00000631, 0.00002028]
  Setting level shift to 2.000 S/E
  @SCF   86      -99.939316379136      -0.000000000253       0.000008631284
    ci      = [-0.95489452, 0.29694521]
    ci_grad = [-0.00000638,-0.00002051]
  Setting level shift to 2.000 S/E
  @SCF   87      -99.939316381251      -0.000000002115       0.000004112550
    ci      = [-0.95489934, 0.29692972]
    ci_grad = [ 0.00000403, 0.00001295]
  Setting level shift to 2.000 S/E
  @SCF   88      -99.939316381423      -0.000000000172       0.000000643751
    ci      = [-0.95490017, 0.29692705]
    ci_grad = [ 0.00000069, 0.00000223]
  Setting level shift to 2.000 S/E
  @SCF   89      -99.939316381548      -0.000000000125       0.000001241971
    ci      = [-0.95490195, 0.29692132]
    ci_grad = [ 0.00000149, 0.00000480]
  Setting level shift to 2.000 S/E
  @SCF   90      -99.939316381512       0.000000000037       0.000000854145
    ci      = [-0.95490344, 0.29691652]
    ci_grad = [ 0.00000125, 0.00000401]
  Setting level shift to 2.000 S/E
  @SCF   91      -99.939316381593      -0.000000000082       0.000000881627
    ci      = [-0.95490273, 0.29691882]
    ci_grad = [-0.00000060,-0.00000192]
  Setting level shift to 2.000 S/E
  @SCF   92      -99.939316381629      -0.000000000036       0.000000554780
    ci      = [-0.95490228, 0.29692024]
    ci_grad = [-0.00000037,-0.00000119]
  Setting level shift to 2.000 S/E
  @SCF   93      -99.939316381641      -0.000000000012       0.000000350595
    ci      = [-0.95490189, 0.29692151]
    ci_grad = [-0.00000033,-0.00000106]
  Setting level shift to 2.000 S/E
  @SCF   94      -99.939316381643      -0.000000000002       0.000000203629
    ci      = [-0.95490172, 0.29692205]
    ci_grad = [-0.00000014,-0.00000045]
  Setting level shift to 2.000 S/E
  @SCF   95      -99.939316381643      -0.000000000000       0.000000028448
    ci      = [-0.95490173, 0.29692203]
    ci_grad = [ 0.00000001, 0.00000002]
  Setting level shift to 2.000 S/E
  @SCF   96      -99.939316381643      -0.000000000000       0.000000040967
    ci      = [-0.95490168, 0.29692219]
    ci_grad = [-0.00000004,-0.00000014]
  Setting level shift to 2.000 S/E
  @SCF   97      -99.939316381643      -0.000000000000       0.000000036105
    ci      = [-0.95490168, 0.29692218]
    ci_grad = [ 0.00000000, 0.00000001]
  Setting level shift to 2.000 S/E
  @SCF   98      -99.939316381644      -0.000000000000       0.000000041686
    ci      = [-0.95490171, 0.29692209]
    ci_grad = [ 0.00000002, 0.00000007]
  Setting level shift to 2.000 S/E
  @SCF   99      -99.939316381644      -0.000000000000       0.000000017057
    ci      = [-0.95490170, 0.29692210]
    ci_grad = [-0.00000000,-0.00000001]
  Setting level shift to 2.000 S/E
  @SCF  100      -99.939316381644       0.000000000000       0.000000002769
    ci      = [-0.95490171, 0.29692209]
    ci_grad = [ 0.00000000, 0.00000001]
  Setting level shift to 2.000 S/E
  @SCF  101      -99.939316381643       0.000000000000       0.000000005731
    ci      = [-0.95490171, 0.29692209]
    ci_grad = [ 0.00000000, 0.00000001]
  Setting level shift to 2.000 S/E
  @SCF  102      -99.939316381643       0.000000000000       0.000000002243
    ci      = [-0.95490171, 0.29692208]
    ci_grad = [ 0.00000000, 0.00000000]
  Setting level shift to 2.000 S/E
  @SCF  103      -99.939316381644      -0.000000000000       0.000000002943
    ci      = [-0.95490171, 0.29692208]
    ci_grad = [ 0.00000000, 0.00000000]
  Setting level shift to 2.000 S/E
  @SCF  104      -99.939316381644       0.000000000000       0.000000001808
    ci      = [-0.95490171, 0.29692208]
    ci_grad = [ 0.00000000, 0.00000000]
  Setting level shift to 2.000 S/E
  @SCF  105      -99.939316381644       0.000000000000       0.000000000899
    ci      = [-0.95490171, 0.29692208]
    ci_grad = [ 0.00000000, 0.00000000]
  Setting level shift to 2.000 S/E
  @SCF  106      -99.939316381643       0.000000000000       0.000000001467
    ci      = [-0.95490171, 0.29692208]
    ci_grad = [ 0.00000000, 0.00000000]
  Setting level shift to 2.000 S/E
  @SCF  107      -99.939316381644      -0.000000000000       0.000000001251
    ci      = [-0.95490171, 0.29692208]
    ci_grad = [-0.00000000,-0.00000000]
  Setting level shift to 2.000 S/E
  @SCF  108      -99.939316381643       0.000000000000       0.000000000273
    ci      = [-0.95490171, 0.29692208]
    ci_grad = [ 0.00000000, 0.00000000]
  Setting level shift to 2.000 S/E
  @SCF  109      -99.939316381644      -0.000000000000       0.000000000118
    ci      = [-0.95490171, 0.29692208]
    ci_grad = [ 0.00000000, 0.00000000]
  Setting level shift to 2.000 S/E
  @SCF  110      -99.939316381644       0.000000000000       0.000000000071
    ci      = [-0.95490171, 0.29692208]
    ci_grad = [ 0.00000000, 0.00000000]
  Setting level shift to 2.000 S/E
  @SCF  111      -99.939316381644       0.000000000000       0.000000000076
    ci      = [-0.95490171, 0.29692208]
    ci_grad = [ 0.00000000, 0.00000000]
  Setting level shift to 2.000 S/E
  @SCF  112      -99.939316381643       0.000000000000       0.000000000112
    ci      = [-0.95490171, 0.29692208]
    ci_grad = [ 0.00000000, 0.00000000]
  Setting level shift to 2.000 S/E
  @SCF  113      -99.939316381644      -0.000000000000       0.000000000152
    ci      = [-0.95490171, 0.29692208]
    ci_grad = [ 0.00000000, 0.00000000]
  Setting level shift to 2.000 S/E
  @SCF  114      -99.939316381643       0.000000000000       0.000000000026
    ci      = [-0.95490171, 0.29692208]
    ci_grad = [ 0.00000000, 0.00000000]
  Setting level shift to 2.000 S/E
  @SCF  115      -99.939316381643       0.000000000000       0.000000000009
    ci      = [-0.95490171, 0.29692208]
    ci_grad = [ 0.00000000, 0.00000000]
  Setting level shift to 2.000 S/E
  @SCF  116      -99.939316381644      -0.000000000000       0.000000000006
    ci      = [-0.95490171, 0.29692208]
    ci_grad = [ 0.00000000, 0.00000000]
  Setting level shift to 2.000 S/E
  @SCF  117      -99.939316381644       0.000000000000       0.000000000027
    ci      = [-0.95490171, 0.29692208]
    ci_grad = [ 0.00000000, 0.00000000]
  Setting level shift to 2.000 S/E
  @SCF  118      -99.939316381644      -0.000000000000       0.000000000009
    ci      = [-0.95490171, 0.29692208]
    ci_grad = [-0.00000000,-0.00000000]
  Setting level shift to 2.000 S/E
  @SCF  119      -99.939316381644      -0.000000000000       0.000000000003
    ci      = [-0.95490171, 0.29692208]
    ci_grad = [-0.00000000,-0.00000000]
  Setting level shift to 2.000 S/E
  @SCF  120      -99.939316381643       0.000000000000       0.000000000002
    ci      = [-0.95490171, 0.29692208]
    ci_grad = [-0.00000000,-0.00000000]
  Setting level shift to 2.000 S/E
  @SCF  121      -99.939316381644      -0.000000000000       0.000000000000
    ci      = [-0.95490171, 0.29692208]
    ci_grad = [-0.00000000,-0.00000000]
  Setting level shift to 2.000 S/E
  @SCF  122      -99.939316381644       0.000000000000       0.000000000001
    ci      = [-0.95490171, 0.29692208]
    ci_grad = [-0.00000000,-0.00000000]
  Setting level shift to 2.000 S/E
  @SCF  123      -99.939316381643       0.000000000000       0.000000000002
    ci      = [-0.95490171, 0.29692208]
    ci_grad = [-0.00000000,-0.00000000]
  Setting level shift to 2.000 S/E
  @SCF  124      -99.939316381644      -0.000000000000       0.000000000001
    ci      = [-0.95490171, 0.29692208]
    ci_grad = [-0.00000000,-0.00000000]
  Setting level shift to 2.000 S/E
  @SCF  125      -99.939316381643       0.000000000000       0.000000000001
    ci      = [-0.95490171, 0.29692208]
    ci_grad = [-0.00000000,-0.00000000]
  Setting level shift to 2.000 S/E
  @SCF  126      -99.939316381644      -0.000000000000       0.000000000001
    ci      = [-0.95490171, 0.29692208]
    ci_grad = [-0.00000000,-0.00000000]
  Setting level shift to 2.000 S/E
  @SCF  127      -99.939316381644       0.000000000000       0.000000000000
    ci      = [-0.95490171, 0.29692208]
    ci_grad = [-0.00000000,-0.00000000]
  Setting level shift to 2.000 S/E
  @SCF  128      -99.939316381644       0.000000000000       0.000000000000
    ci      = [-0.95490171, 0.29692208]
    ci_grad = [-0.00000000,-0.00000000]
  =========================================================================================

      * SCF total energy   =     -99.939316381644


      CI coefficients  = [-0.954901712, 0.296922078]

  End of SCF
  MOs orthonormality check passed.

  Orbitals are canonicalized as:
  inactive (docc + uocc) : Fock(core)
  active   (actv)        : Fock(core)

  =========================================================================
  Eigenvalues (Eh)
  -------------------------------------------------------------------------
  Doubly occupied orbitals
      1    -26.322903  A1      2     -1.519005  A1      3     -0.638631  B2
      4     -0.638631  B1
  Active orbitals
      5     -0.537968  A1      6      0.087068  A1
  Unoccupied orbitals
      7      2.558369  A1      8      3.324242  B1      9      3.324242  B2
     10      3.444927  A1     11      3.586079  A1     12      3.602014  B1
     13      3.602014  B2     14      4.287527  A1     15      5.991409  B2
     16      5.991409  B1     17      5.995163  A1     18      5.995163  A2
     19      6.177516  A1
  =========================================================================


  MCSCF Execution Completed.


*** tstop() called on Kevins-MacBook-Pro.local at Fri Aug 28 11:54:55 2015
Module time:
	user time   =       0.31 seconds =       0.01 minutes
	system time =       0.06 seconds =       0.00 minutes
	total time  = 1440777295 seconds = 24012954.92 minutes
Total time:
	user time   =       0.31 seconds =       0.01 minutes
	system time =       0.06 seconds =       0.00 minutes
	total time  = 1440777295 seconds = 24012954.92 minutes
Reading options from the FORTE block
Calling plugin forte.so.


  ==> MO Space Information <==

  Read options for space FROZEN_DOCC
  Read options for space RESTRICTED_DOCC
  Read options for space ACTIVE
 Removing orbital 0
  -------------------------------------------------
                       A1    A2    B1    B2   Sum
  -------------------------------------------------
    FROZEN_DOCC         1     0     0     0     1
    RESTRICTED_DOCC     1     0     1     1     3
    ACTIVE              2     0     0     0     2
    RESTRICTED_UOCC     6     1     3     3    13
    FROZEN_UOCC         0     0     0     0     0
    Total              10     1     4     4    19
  -------------------------------------------------
  Using the input to select the number of frozen core MOs.


  ==> Integral Transformation <==

  Number of molecular orbitals:               19
  Number of correlated molecular orbitals:    18
  Number of frozen occupied orbitals:          1
  Number of frozen unoccupied orbitals:        0


 DFIntegrals overall time
 Computing Density fitted integrals 

 Number of auxiliary basis functions:  70
 Need 0.000188 GB to store DF integrals

    Computing DF Integrals               ......Done. Timing        0.086800 s
    Seeking DF Integrals                 ......Done. Timing        0.086869 s
   Reading DF Integrals                 . . ....Done. Timing        0.086912 s...Done.  Timing        0.086916 s
  Frozen-core energy            -76.184657170046 a.u.

 Frozen_Core_Energy takes   0.00035900 s
  Freezing MO 0 

 FrozenOneBody Operator takes  0.00293300 s
  Resorting integrals after freezing core.
 Done with resorting
 Resorting integrals takes   0.00014300s
 Frozen Orbitals takes 0.00346800 s
 DFIntegrals take      0.11264200 s

  ***************************************************
  * Complete Active Space Configuration Interaction *
  *                 by Chenyang Li                  *
  ***************************************************


  Options:
  ----------------------------------------------------------------------------
  1_RDM                       => FALSE             
  ACTIVE                      => [ 2, 0, 0, 0 ]   !
  ADAPTIVE_BETA               => FALSE             
  BENCH                       => 0                 
  CASTYPE                     => CAS               
  CCVV_ALGORITHM              => FLY_AMBIT         
  CCVV_SOURCE                 => NORMAL            
  CC_TYPE                     => CONVENTIONAL      
  CHARGE                      => 0                 
  CHOLESKY_TOLERANCE          => 1e-06             
  COMPUTE_ENERGY              => TRUE              
  CORR_LEVEL                  => PT2               
  CUBEPROP_BASIS_FUNCTIONS    => [  ]              
  CUBEPROP_FILEPATH           => .                 
  CUBEPROP_ORBITALS           => [  ]              
  CUBEPROP_TASKS              => [  ]              
  CUBIC_BASIS_TOLERANCE       => 1e-12             
  CUBIC_BLOCK_MAX_POINTS      => 1000              
  CUBIC_GRID_OVERAGE          => [  ]              
  CUBIC_GRID_SPACING          => [  ]              
  DEATH_PARENT_ONLY           => FALSE             
  DEBUG                       => 0                 
  DELTA_EXPONENT              => 2                 
  DEN_THRESHOLD               => 1.5               
  DERTYPE                     => NONE              
  DETTOUR_WRITE_FILE          => FALSE             
  DET_THRESHOLD               => 1                 
  DF_BASIS_CC                 => (empty)           
  DIAG_ALGORITHM              => DAVIDSON          
  DIE_IF_NOT_CONVERGED        => TRUE              
  DKH_ORDER                   => 2                 
  DOCC                        => [  ]              
  DOD_BINS                    => 2000              
  DOD_BIN_WIDTH               => 0.05              
  DOD_FORMAT                  => HISTOGRAM         
  DSRGPT                      => TRUE              
  DSRG_POWER                  => 2                 
  DSRG_S                      => 1                !
  DYNAMIC_PRESCREENING        => FALSE             
  ENERGY_ESTIMATE_FREQ        => 25                
  ENERGY_ESTIMATE_THRESHOLD   => 1e-06             
  ENERGY_TYPE                 => FULL              
  ENFORCE_SPIN_COMPLETE       => FALSE             
  EXCITED_ALGORITHM           => STATE_AVERAGE     
  EXPLORER_ALGORITHM          => DENOMINATORS      
  EXTERNAL_POTENTIAL_SYMMETRY => FALSE             
  E_CONVERGENCE               => 1e-15            !
  FAST_EVAR                   => FALSE             
  FREEZE_CORE                 => FALSE             
  FROZEN_DOCC                 => [ 1, 0, 0, 0 ]   !
  FROZEN_UOCC                 => [  ]              
  GUESS_SPAWNING_THRESHOLD    => 0.01              
  H_BUFFER                    => 0                 
  H_TYPE                      => FIXED_ENERGY      
  IMRCISD_SIZE                => 0                 
  IMRCISD_TEST_SIZE           => 0                 
  INITIATOR_NA                => 3                 
  INTEGRAL_PACKAGE            => ERD               
  INTRUDER_TAMP               => 0.1               
  INT_TYPE                    => DF               !
  ISA_B                       => 0.02              
  JOB_TYPE                    => THREE-DSRG-MRPT2 !
  LAMBDA_GUESS                => FALSE             
  LAMBDA_THRESH               => 1                 
  LITERAL_CFOUR               => (empty)           
  MAT_NUM_COLUMN_PRINT        => 5                 
  MAXBETA                     => 1000              
  MAXITER                     => 100               
  MAX_DET                     => 1000000           
  MAX_EXC_LEVEL               => 0                 
  MAX_GUESS_SIZE              => 10000             
  MAX_NDETS                   => 1000000           
  MEMORY_SUMMARY              => FALSE             
  MIN_EXC_LEVEL               => 0                 
  MOLDEN_WRITE                => FALSE             
  MP2_NOS                     => FALSE             
  MS                          => 0                 
  MULTI                       => 1                 
  MULTIPLICITY                => 0                 
  NAT_ACT                     => FALSE             
  NAT_ORBS_PRINT              => FALSE             
  NDETS                       => 100               
  NPOP                        => 100               
  NROOT                       => 1                !
  NTAMP                       => 15                
  NUM_FROZEN_DOCC             => 0                 
  NUM_FROZEN_UOCC             => 0                 
  OCC_NATURAL                 => 0.98              
  PCM                         => FALSE             
  PCM_SCF_TYPE                => TOTAL             
  PERTURB_SELECT              => FALSE             
  POST_DIAGONALIZE            => FALSE             
  POST_ROOT                   => 1                 
  PQ_FUNCTION                 => AVERAGE           
  PRINT                       => 1                 
  PRINT_CI_VECTOR             => 0.05              
  PRINT_FREQ                  => 100               
  PROPAGATOR                  => LINEAR            
  PROPERTIES                  => [  ]              
  PROPERTIES_ORIGIN           => [  ]              
  PUREAM                      => TRUE              
  Q_REFERENCE                 => GS                
  Q_REL                       => FALSE             
  RAS1                        => [  ]              
  RAS2                        => [  ]              
  RAS3                        => [  ]              
  RAS4                        => [  ]              
  REF_ROOT                    => 0                 
  RELATIVISTIC                => NO                
  RELAX_REF                   => NONE              
  REL_BASIS                   => (empty)           
  RENORMALIZATION_STEPS       => 10                
  REN_MAX_NDETS               => 1000              
  RESTRICTED_DOCC             => [ 1, 0, 1, 1 ]   !
  RESTRICTED_UOCC             => [  ]              
  RESTRICT_EXCITATION         => 0                 
  ROOT                        => 0                 
  ROOT_SYM                    => 0                !
  SAVE_HBAR                   => FALSE             
  SCREENING_TYPE              => MP                
  SELECT                      => FALSE             
  SELECT_TYPE                 => AMP               
  SEMI_CANONICAL              => TRUE              
  SHIFT_DAMP                  => 0.1               
  SHIFT_FREQ                  => 10                
  SHIFT_NUM_WALKERS           => 10000             
  SIMPLE_PRESCREENING         => FALSE             
  SMOOTH                      => FALSE             
  SMOOTH_THRESHOLD            => 0.01              
  SMO_THRESHOLD               => 0                 
  SOCC                        => [  ]              
  SOURCE                      => STANDARD          
  SPACE_I_THRESHOLD           => 1000              
  SPACE_M_THRESHOLD           => 1000              
  SPAWNING_THRESHOLD          => 0.001             
  SPAWN_TYPE                  => RANDOM            
  SPIN_PROJECTION             => 0                 
  SPIN_TOL                    => 0.01              
  SRG_COMM                    => STANDARD          
  SRG_DT                      => 0.001             
  SRG_ETA                     => WHITE             
  SRG_MODE                    => SRG               
  SRG_ODEINT                  => FEHLBERG78        
  SRG_ODEINT_ABSERR           => 1e-12             
  SRG_ODEINT_RELERR           => 1e-12             
  SRG_OP                      => UNITARY           
  SRG_RSC_NCOMM               => 20                
  SRG_RSC_THRESHOLD           => 1e-12             
  SRG_SMAX                    => 10                
  START_NUM_WALKERS           => 1000              
  T1_ZERO                     => FALSE             
  T2_THRESHOLD                => 1e-06             
  TAU                         => 0.01              
  TAUP                        => 0.01              
  TAUQ                        => 1e-06             
  TAYLOR_THRESHOLD            => 3                 
  TEST_RDMS                   => FALSE             
  THREEPDC                    => MK                
  TWOPDC                      => MK                
  T_ALGORITHM                 => DSRG              
  UNITS                       => ANGSTROMS         
  UNO                         => FALSE             
  UNOMAX                      => 1.98              
  UNOMIN                      => 0.02              
  UNO_PRINT                   => FALSE             
  USE_INITIATOR               => FALSE             
  USE_INTER_NORM              => FALSE             
  USE_SHIFT                   => FALSE             
  VAR_ENERGY_ESTIMATE_FREQ    => 1000              
  VIRT_NATURAL                => 0.02              
  WFN                         => SCF               
  WRITER_FILE_LABEL           => (empty)           
  WRITE_DEN_ENERGY            => FALSE             
  WRITE_DET_ENERGY            => TRUE              
  WRITE_EXC_LEVEL             => FALSE             
  WRITE_OCCUPATION            => TRUE              


  ==> Input Summary <==

    number of atoms                =     2
    number of electrons            =    10
    molecular charge               =     0
    number of alpha electrons      =     5
    number of beta electrons       =     5
    multiplicity                   =     1
    number of molecular orbitals   =    19

  ==> Orbital Spaces <==

    TOTAL MO                      [   10     1     4     4 ]
    FROZEN CORE                   [    1     0     0     0 ]
    FROZEN VIRTUAL                [    0     0     0     0 ]
    CORRELATED MO                 [    9     1     4     4 ]
    CORE                          [    1     0     1     1 ]
    ACTIVE                        [    2     0     0     0 ]
    VIRTUAL                       [    6     1     3     3 ]

  ==> Correlated Subspace Indices <==

    CORE                             0   10   14 
    ACTIVE                           1    2 
    HOLE                             1    2    0   10   14 
    VIRTUAL                          3    4    5    6    7    8    9   11   12   13   15   16   17 
    PARTICLE                         1    2    3    4    5    6    7    8    9   11   12   13   15   16   17 
                                  

  Forming alpha and beta strings      ...  Done. Timing        0.000026 s
  Forming determinants                ...  Done. Timing        0.000009 s

  ==> Determinants Summary <==

    number of alpha active electrons    =     1
    number of beta active electrons     =     1
    root symmetry (zero based)          =     0
    number of determinants              =     4

  Diagonalizing Hamiltonian           ...
  Time spent diagonalizing H using Full: 0.000021 s

  Reference type: TWOCON
  Threshold for spin check: 0.0001

  Spin State: S^2 = 0.000, S = 0.000, singlet (from 4 determinants)  Done. Timing        0.000113 s

  * * * * * * * * * * * * * * * * *
  *  CI Vectors & Configurations  *
  * * * * * * * * * * * * * * * * *

  ==> Root No. 1 <==

    20            0.95491428
    02           -0.29688164

    Total Energy:   -99.940819361639839


  Forming one-particle density        ...  Done. Timing        0.000141 s
  Forming generalized Fock matrix     ...  Done. Timing        0.003218 s
  Checking Fock matrices (Fa, Fb)     ...
  Nonzero criteria: > 1.00E-15
  Warning: Fa_CORE    NOT diagonal!
  Nonzero off-diagonal:     2. Largest value:  0.000000000000004
  Warning: Fb_CORE    NOT diagonal!
  Nonzero off-diagonal:     2. Largest value:  0.000000000000004
  Warning: Fa_ACTIVE  NOT diagonal!
  Nonzero off-diagonal:     2. Largest value:  0.035644003260584
  Warning: Fb_ACTIVE  NOT diagonal!
  Nonzero off-diagonal:     2. Largest value:  0.035644003260585
  Warning: Fa_VIRTUAL NOT diagonal!
  Nonzero off-diagonal:    60. Largest value:  0.000391286980751
  Warning: Fb_VIRTUAL NOT diagonal!
  Nonzero off-diagonal:    60. Largest value:  0.000391286980752
  Done checking Fock matrices.                   Timing        0.000053 s

  Use semi-canonical orbitals.

  Block diagonalizing Fock matrices   ...  Done. Timing        0.000154 s

 Computing Density fitted integrals 

 Number of auxiliary basis functions:  70
 Need 0.000188 GB to store DF integrals

    Computing DF Integrals               ......Done. Timing        0.086645 s
    Seeking DF Integrals                 ......Done. Timing        0.086721 s
   Reading DF Integrals                 . . ....Done. Timing        0.086776 s...Done.  Timing        0.086781 s
  Frozen-core energy            -76.184657170046 a.u.

 Frozen_Core_Energy takes   0.00003100 s
  Freezing MO 0 

 FrozenOneBody Operator takes  0.00277400 s
  Resorting integrals after freezing core.
 Done with resorting
 Resorting integrals takes   0.00014000s
 Frozen Orbitals takes 0.00297600 s
  Diagonalizing Hamiltonian           ...
  Time spent diagonalizing H using Full: 0.000019 s

  Reference type: TWOCON
  Threshold for spin check: 0.0001

  Spin State: S^2 = 0.000, S = 0.000, singlet (from 4 determinants)  Done. Timing        0.000082 s

  * * * * * * * * * * * * * * * * *
  *  CI Vectors & Configurations  *
  * * * * * * * * * * * * * * * * *

  ==> Root No. 1 <==

    20            0.95088058
    02           -0.29284794
    ba            0.07094437
    ab            0.07094437

    Total Energy:   -99.940819361639839


  Forming one-particle density        ...  Done. Timing        0.000133 s
  Forming generalized Fock matrix     ...  Done. Timing        0.003175 s
  Checking Fock matrices (Fa, Fb)     ...
  Nonzero criteria: > 1.00E-15
  Warning: Fa_CORE    NOT diagonal!
  Nonzero off-diagonal:     2. Largest value:  0.000000000000004
  Warning: Fb_CORE    NOT diagonal!
  Nonzero off-diagonal:     2. Largest value:  0.000000000000004
  Warning: Fa_ACTIVE  NOT diagonal!
  Nonzero off-diagonal:     2. Largest value:  0.000000000000039
  Warning: Fb_ACTIVE  NOT diagonal!
  Nonzero off-diagonal:     2. Largest value:  0.000000000000021
  Warning: Fa_VIRTUAL NOT diagonal!
  Nonzero off-diagonal:    43. Largest value:  0.000000000000014
  Warning: Fb_VIRTUAL NOT diagonal!
  Nonzero off-diagonal:    34. Largest value:  0.000000000000009
  Done checking Fock matrices.                   Timing        0.000050 s

  Forming Lambda2                     ...  Done. Timing        0.000402 s
  Forming Lambda3                     ...  Done. Timing        0.000180 s

	  ---------------------------------------------------------
	      DF/CD - Driven Similarity Renormalization Group MBPT2
	                   Kevin Hannon and Chenyang (York) Li
	                       1 thread(s) 
	  ---------------------------------------------------------
 Reference = TWOCON
  Reference Energy = -99.940819361639839

  ==> Calculation Information <==

    Flow parameter                           1.000e+00
    Cholesky Tolerance                       1.000e-06
    Taylor expansion threshold               1.000e-03
    int_type                                        DF
    ccvv_algorithm                           FLY_AMBIT
    ccvv_source                                 NORMAL
    Computing T2                         ......Done. Timing        0.001164 s
    Computing T1                         ......Done. Timing        0.001427 s
    Renormalizing V                      ......Done. Timing        0.000548 s
    Renormalizing F                      ......Done. Timing        0.001698 s
    Computing <[F,T1]>                   ......Done. Timing        0.002555 s
    Computing <[F, T2]>                  ......Done. Timing        0.001317 s
    Computing <[V, T1]>                  ......Done. Timing        0.001217 s
    Computing <[V, T2]> (C_2)^4 (no ccvv) ......Done. Timing        0.047902 s
Computing <[V, T2]> (C_2)^4 ccvv     with FLY_AMBIT...Done. Timing        0.003127 s
    Computing <[V, T2]> 4HH              ......Done. Timing        0.005942 s
    Computing <V, T2]> 4PP               ...  Done. Timing        0.006697 s
    Computing [V, T2] 4PH                ...  Done. Timing        0.022130 s
    Computing [V, T2] λ3                ......Done. Timing        0.005051 s

  ==> DSRG-MRPT2 Energy Summary <==

    E0 (reference)                 =    -99.940819361639839
    <[F, T1]>                      =     -0.013708905968712
    <[F, T2]>                      =      0.012627442721783
    <[V, T1]>                      =      0.012634814098931
    <[V, T2]> (C_2)^4              =     -0.214362733439212
    <[V, T2]> C_4 (C_2)^2 HH       =      0.002958840486218
    <[V, T2]> C_4 (C_2)^2 PP       =      0.013761617302522
    <[V, T2]> C_4 (C_2)^2 PH       =      0.027751978751420
    <[V, T2]> C_6 C_2              =     -0.003203363652431
    <[V, T2]>                      =     -0.173093660551484
    DSRG-MRPT2 correlation energy  =     -0.161540309699483
    DSRG-MRPT2 total energy        =   -100.102359671339329
    max(T1)                        =      0.136580732315854
    max(T2)                        =      0.072120073992806
    ||T1||                         =      0.244681445901312
    ||T2||                         =      0.961764500763221


    CD/DF-DSRG-MRPT2 took   0.10198200 s.
 Your calculation took 0.37308200 seconds
*** PSI4 exiting successfully. Buy a developer a beer!
