
    -----------------------------------------------------------------------
          Psi4: An Open-Source Ab Initio Electronic Structure Package
                               Psi4 1.2a1.dev704 

                         Git: Rev {master} a7fc050 


    R. M. Parrish, L. A. Burns, D. G. A. Smith, A. C. Simmonett,
    A. E. DePrince III, E. G. Hohenstein, U. Bozkaya, A. Yu. Sokolov,
    R. Di Remigio, R. M. Richard, J. F. Gonthier, A. M. James,
    H. R. McAlexander, A. Kumar, M. Saitow, X. Wang, B. P. Pritchard,
    P. Verma, H. F. Schaefer III, K. Patkowski, R. A. King, E. F. Valeev,
    F. A. Evangelista, J. M. Turney, T. D. Crawford, and C. D. Sherrill,
    J. Chem. Theory Comput. 13(7) pp 3185--3197 (2017).
    (doi: 10.1021/acs.jctc.7b00174)

    -----------------------------------------------------------------------


    Psi4 started on: Monday, 04 December 2017 01:32PM

    Process ID:  33902
    PSIDATADIR: /Users/york/src/psi4new/psi4/share/psi4
    Memory:     500.0 MiB
    Threads:    1
    
  ==> Input File <==

--------------------------------------------------------------------------
#! Generated using commit GITCOMMIT
#! Perform a DF-DSRG-MRPT2 on benzyne 

import forte


memory 500 mb

refmcscf   =  -225.76764656871
refdsrgpt2 =  -226.854315197443555
#refdsrgpt2_jk_rd = -226.85228622918

molecule mbenzyne{
  0 3
   C   0.0000000000  -2.5451795941   0.0000000000
   C   0.0000000000   2.5451795941   0.0000000000
   C  -2.2828001669  -1.3508352528   0.0000000000
   C   2.2828001669  -1.3508352528   0.0000000000
   C   2.2828001669   1.3508352528   0.0000000000
   C  -2.2828001669   1.3508352528   0.0000000000
   H  -4.0782187459  -2.3208602146   0.0000000000
   H   4.0782187459  -2.3208602146   0.0000000000
   H   4.0782187459   2.3208602146   0.0000000000
   H  -4.0782187459   2.3208602146   0.0000000000

  units bohr
}

set globals{
   basis                   sto-3g
   df_basis_mp2            cc-pvdz-ri
   df_basis_scf            cc-pvdz-jkfit
   scf_type                df
   d_convergence           10
   e_convergence           12
   docc                   [5, 3, 1, 1, 0, 1, 4, 4]
   socc                   [1, 0, 0, 0, 0, 0, 1, 0]
   maxiter                 500
}

set forte {
   frozen_docc            [2, 1, 0, 0, 0, 0, 2, 1]
   restricted_docc        [3, 2, 1, 1, 0, 1, 2, 3]
   active                 [1, 0, 0, 0, 0, 0, 1, 0]
   root_sym                0
   nroot                   1
   multiplicity            1
#   dsrgpt                  false
   dsrg_s                  0.5
   int_type                DISKDF
   job_type                three-dsrg-mrpt2
   cas_type                FCI
}

scf, wfn = energy('mcscf', return_wfn=True)
compare_values(refmcscf, scf,10,"SCF Energy")
set_num_threads(1)

energy('forte', ref_wfn = wfn)
compare_values(refdsrgpt2, get_variable("CURRENT ENERGY"),10,"DSRG-MRPT2 energy")


--------------------------------------------------------------------------

  Memory set to 476.837 MiB by Python driver.
   => Loading Basis Set <=

    Name: STO-3G
    Role: ORBITAL
    Keyword: BASIS
    atoms 1-6  entry C          line    61 file /Users/york/src/psi4new/psi4/share/psi4/basis/sto-3g.gbs 
    atoms 7-10 entry H          line    19 file /Users/york/src/psi4new/psi4/share/psi4/basis/sto-3g.gbs 


*** tstart() called on yorks-mac.wireless.emory.edu
*** at Mon Dec  4 13:32:49 2017


         ------------------------------------------
           MCSCF: a self-consistent field program
            written by Francesco A. Evangelista
         ------------------------------------------

  MOs per irrep:                  Ag  B1g  B2g  B3g  Au  B1u  B2u  B3u Total
  ----------------------------------------------------------------------------
  Total                            8    6    1    2    1    2    8    6    34
  Doubly Occupied                  5    3    1    1    0    1    4    4    19
  Active/Singly Occupied           1    0    0    0    0    0    1    0     2
  ----------------------------------------------------------------------------

  Running an SCF calculation

  Generated 595 pairs
  Distributed as [122 Ag][100 B1g][40 B2g][44 B3g][40 Au][44 B1u][105 B2u][100 B3u]
  batch   0 pq = [       0,     122] index = [               0,            7503]

  Allocated the PK matrix (7503 elements) 
  Reading the two-electron integrals to form PK ... 
  batch   0 ... done.


  =========================================================================================
         Cycle          Energy               D(Energy)            D(Density)            DIIS
  ===========================================================================================
  Setting level shift to 0.000 S
  @SCF    0     -212.591783893326    -212.591783893326       0.283940323457
  Setting level shift to 0.000 S
  @SCF    1     -223.551422907842     -10.959639014516       0.275117881171
  Setting level shift to 0.000 S
  @SCF    2     -225.634306679483      -2.082883771640       0.061051248309
  Setting level shift to 0.000 S
  @SCF    3     -225.741973038514      -0.107666359032       0.012962175269
  Setting level shift to 0.000 S
  @SCF    4     -225.762320410909      -0.020347372394       0.006354750064
  Setting level shift to 0.000 S
  @SCF    5     -225.766510671298      -0.004190260389       0.002840537282
  Setting level shift to 0.000 S
  @SCF    6     -225.767407075829      -0.000896404532       0.001383874861
  Setting level shift to 0.000 S/E
  @SCF    7     -225.767595763104      -0.000188687275       0.000620625385
  Setting level shift to 0.000 S/E
  @SCF    8     -225.767646508516      -0.000050745412       0.000258338706
  Setting level shift to 0.000 S/E
  @SCF    9     -225.767646565167      -0.000000056651       0.000009056861
  Setting level shift to 0.000 S/E
  @SCF   10     -225.767646568655      -0.000000003488       0.000002750341
  Setting level shift to 0.000 S/E
  @SCF   11     -225.767646568710      -0.000000000055       0.000000376130
  Setting level shift to 0.000 S/E
  @SCF   12     -225.767646568711      -0.000000000002       0.000000056393
  Setting level shift to 0.000 S/E
  @SCF   13     -225.767646568711      -0.000000000000       0.000000006429
  Setting level shift to 0.000 S/E
  @SCF   14     -225.767646568711       0.000000000000       0.000000000707
  Setting level shift to 0.000 S/E
  @SCF   15     -225.767646568711      -0.000000000000       0.000000000212
  Setting level shift to 0.000 S/E
  @SCF   16     -225.767646568711       0.000000000000       0.000000000026
  =========================================================================================

      * SCF total energy   =    -225.767646568711


  End of SCF
  MOs orthonormality check passed.

  Orbitals are canonicalized as:
  inactive (docc + uocc) : Fock(core)
  active   (actv)        : Fock(core)

  =========================================================================
  Eigenvalues (Eh)
  -------------------------------------------------------------------------
  Doubly occupied orbitals
      1    -11.734921 B2u      2    -11.734814  Ag      3    -11.617672 B3u
      4    -11.617560 B2u      5    -11.617549  Ag      6    -11.617546 B1g
      7     -1.660065  Ag      8     -1.504736 B2u      9     -1.492338 B3u
     10     -1.316418 B1g     11     -1.247260  Ag     12     -1.119183 B3u
     13     -1.106923  Ag     14     -1.072355 B2u     15     -1.041836 B3u
     16     -1.013115 B1u     17     -0.978385 B1g     18     -0.877276 B3g
     19     -0.784949 B2g
  Active orbitals
     20     -0.466838 B2u     21     -0.404049  Ag
  Unoccupied orbitals
     22     -0.289647 B1u     23     -0.265999  Au     24     -0.043321 B3g
     25      0.145757  Ag     26      0.176088 B3u     27      0.176684 B2u
     28      0.193079 B1g     29      0.295933  Ag     30      0.307110 B2u
     31      0.344744 B1g     32      0.369222 B3u     33      0.538856 B1g
     34      0.561388 B2u
  =========================================================================


  MCSCF Execution Completed.


*** tstop() called on yorks-mac.wireless.emory.edu at Mon Dec  4 13:32:49 2017
Module time:
	user time   =       0.30 seconds =       0.01 minutes
	system time =       0.04 seconds =       0.00 minutes
	total time  =          0 seconds =       0.00 minutes
Total time:
	user time   =       0.30 seconds =       0.01 minutes
	system time =       0.04 seconds =       0.00 minutes
	total time  =          0 seconds =       0.00 minutes
	SCF Energy........................................................PASSED
  Python driver attempted to set threads to 1.
  Psi4 was compiled without OpenMP, setting threads to 1.
   => Loading Basis Set <=

    Name: CC-PVDZ-RI
    Role: RIFIT
    Keyword: DF_BASIS_MP2
    atoms 1-6  entry C          line   159 file /Users/york/src/psi4new/psi4/share/psi4/basis/cc-pvdz-ri.gbs 
    atoms 7-10 entry H          line    19 file /Users/york/src/psi4new/psi4/share/psi4/basis/cc-pvdz-ri.gbs 

   => Loading Basis Set <=

    Name: STO-3G
    Role: ORBITAL
    Keyword: MINAO_BASIS
    atoms 1-6  entry C          line    61 file /Users/york/src/psi4new/psi4/share/psi4/basis/sto-3g.gbs 
    atoms 7-10 entry H          line    19 file /Users/york/src/psi4new/psi4/share/psi4/basis/sto-3g.gbs 


Reading options from the FORTE block
Calling plugin forte.so.



  Forte
  ----------------------------------------------------------------------------
  A suite of quantum chemistry methods for strongly correlated electrons

    git branch: master - git commit: 1c92254a

  Developed by:
    Francesco A. Evangelista, Chenyang Li, Kevin P. Hannon,
    Jeffrey B. Schriber, Tianyuan Zhang, Chenxi Cai
  ----------------------------------------------------------------------------

  Size of Determinant class: 32

  ==> MO Space Information <==

  Read options for space FROZEN_DOCC
  Read options for space RESTRICTED_DOCC
  Read options for space ACTIVE
 Removing orbital 0
 Removing orbital 1
 Removing orbital 8
 Removing orbital 20
 Removing orbital 21
 Removing orbital 28
  -------------------------------------------------------------------------
                       Ag   B1g   B2g   B3g    Au   B1u   B2u   B3u   Sum
  -------------------------------------------------------------------------
    FROZEN_DOCC         2     1     0     0     0     0     2     1     6
    RESTRICTED_DOCC     3     2     1     1     0     1     2     3    13
    ACTIVE              1     0     0     0     0     0     1     0     2
    RESTRICTED_UOCC     2     3     0     1     1     1     3     2    13
    FROZEN_UOCC         0     0     0     0     0     0     0     0     0
    Total               8     6     1     2     1     2     8     6    34
  -------------------------------------------------------------------------

  ==> Integral Transformation <==

  Number of molecular orbitals:               34
  Number of correlated molecular orbitals:    28
  Number of frozen occupied orbitals:          6
  Number of frozen unoccupied orbitals:        0

    Molecular point group: d2h
    Full point group: D2h

    Geometry (in Bohr), charge = 0, multiplicity = 3:

       Center              X                  Y                   Z               Mass       
    ------------   -----------------  -----------------  -----------------  -----------------
           C          0.000000000000    -2.545179594100     0.000000000000    12.000000000000
           C         -0.000000000000     2.545179594100     0.000000000000    12.000000000000
           C         -2.282800166900    -1.350835252800     0.000000000000    12.000000000000
           C          2.282800166900    -1.350835252800     0.000000000000    12.000000000000
           C          2.282800166900     1.350835252800     0.000000000000    12.000000000000
           C         -2.282800166900     1.350835252800     0.000000000000    12.000000000000
           H         -4.078218745900    -2.320860214600     0.000000000000     1.007825032070
           H          4.078218745900    -2.320860214600     0.000000000000     1.007825032070
           H          4.078218745900     2.320860214600     0.000000000000     1.007825032070
           H         -4.078218745900     2.320860214600     0.000000000000     1.007825032070

  -AO BASIS SET INFORMATION:
    Name                   = STO-3G
    Blend                  = STO-3G
    Total number of shells = 22
    Number of primitives   = 66
    Number of AO           = 34
    Number of SO           = 34
    Maximum AM             = 1
    Spherical Harmonics    = TRUE

  -Contraction Scheme:
    Atom   Type   All Primitives // Shells:
   ------ ------ --------------------------
       1     C     6s 3p // 2s 1p 
       2     C     6s 3p // 2s 1p 
       3     C     6s 3p // 2s 1p 
       4     C     6s 3p // 2s 1p 
       5     C     6s 3p // 2s 1p 
       6     C     6s 3p // 2s 1p 
       7     H     3s // 1s 
       8     H     3s // 1s 
       9     H     3s // 1s 
      10     H     3s // 1s 

  ==> AO Basis Functions <==

    [ STO-3G ]
    spherical
    ****
    C   1
    S   3 1.00
                        71.61683700           0.15432897
                        13.04509600           0.53532814
                         3.53051220           0.44463454
    S   3 1.00
                         2.94124940          -0.09996723
                         0.68348310           0.39951283
                         0.22228990           0.70011547
    P   3 1.00
                         2.94124940           0.15591627
                         0.68348310           0.60768372
                         0.22228990           0.39195739
    ****
    C   3
    S   3 1.00
                        71.61683700           0.15432897
                        13.04509600           0.53532814
                         3.53051220           0.44463454
    S   3 1.00
                         2.94124940          -0.09996723
                         0.68348310           0.39951283
                         0.22228990           0.70011547
    P   3 1.00
                         2.94124940           0.15591627
                         0.68348310           0.60768372
                         0.22228990           0.39195739
    ****
    H   7
    S   3 1.00
                         3.42525091           0.15432897
                         0.62391373           0.53532814
                         0.16885540           0.44463454
    ****


  DISKDFIntegrals overall time
 Computing Density fitted integrals 

 Number of auxiliary basis functions:  392
 Need 0.003376 GB to store DF integrals

    Computing DF Integrals               ......Done. Timing        0.063827 s
  Frozen-core energy           -287.157994529077 a.u.

  FrozenOneBody Operator takes  0.95122200 s
  Resorting integrals after freezing core.
 Resorting integrals takes   0.00004200s
  DISKDFIntegrals take      1.52338300 s

                -----------------------------------------------
                  String-based Full Configuration Interaction
                          by Francesco A. Evangelista
                -----------------------------------------------

  Number of electrons: 40
  Charge: 0
  Multiplicity: 1
  Davidson subspace max dim: 8
  Davidson subspace min dim: 2
  M_s: 0

  ==> String Lists <==

  Number of alpha electrons     = 1
  Number of beta electrons      = 1
  Number of alpha strings       = 2
  Number of beta strings        = 2
  Timing for strings        =      0.000 s
  Timing for NN strings     =      0.000 s
  Timing for VO strings     =      0.000 s
  Timing for OO strings     =      0.000 s
  Timing for VVOO strings   =      0.000 s
  Timing for VOVO strings   =      0.000 s
  Timing for 1-hole strings =      0.000 s
  Timing for 2-hole strings =      0.000 s
  Timing for 3-hole strings =      0.000 s
  Total timing              =      0.000 s

  ==> FCI Solver <==

    Number of determinants                           2
    Symmetry                                         0
    Multiplicity                                     1
    Number of roots                                  1
    Target root                                      0
    Trial vectors per root                          10

  Allocating memory for the Hamiltonian algorithm. Size: 2 x 1 x 1.   Memory: 0.000000 GB

  ==> FCI Initial Guess <==

  ---------------------------------------------
    Root            Energy     <S^2>   Spin
  ---------------------------------------------
      0     -226.450946697278  0.000  singlet
      1     -226.041166867061  0.000  singlet
  ---------------------------------------------
  Timing for initial guess  =      0.000 s

  ==> Diagonalizing Hamiltonian <==

  ----------------------------------------
    Iter.      Avg. Energy       Delta_E
  ----------------------------------------
      1     -226.450946697278  -2.265e+02
      2     -226.450946697278  +0.000e+00
  ----------------------------------------
  The Davidson-Liu algorithm converged in 3 iterations.

  ==> Root No. 0 <==

    0 2     -0.77100261
    2 0      0.63683199

    Total Energy:      -226.450946697277772

  ==> Computing RDMs for Root No. 0 <==

    Timing for 1-RDM: 0.000 s
    Timing for 2-RDM: 0.000 s
    Timing for 3-RDM: 0.000 s

  ==> NATURAL ORBITALS <==

        1B2u    1.188890      1Ag     0.811110  


       -----------------------------------------------------------------
                            Semi-Canonical Orbitals
         Chenyang Li, Jeffrey B. Schriber and Francesco A. Evangelista
       -----------------------------------------------------------------

 Making a fock matrix 

---------Blocking Information-------

  2458624 / 375000000 = 0
  Block_size = 392 num_block = 1
  Took 0.115805 s to build Fock matrix

  ==> Checking Fock Matrix Diagonal Blocks <==

    Off-Diag. Elements       Max           2-Norm
    ------------------------------------------------
    Fa actv              0.0000000000   0.0000000000
    Fb actv              0.0000000000   0.0000000000
    ------------------------------------------------
    Fa core              0.1094628916   0.2616738385
    Fb core              0.1094628916   0.2616738385
    ------------------------------------------------
    Fa virt              0.1048401924   0.2846409377
    Fb virt              0.1048401924   0.2846409377
    ------------------------------------------------

  ==> Integral Transformation to Semicanonical Basis <==
    Molecular point group: d2h
    Full point group: D2h

    Geometry (in Bohr), charge = 0, multiplicity = 3:

       Center              X                  Y                   Z               Mass       
    ------------   -----------------  -----------------  -----------------  -----------------
           C          0.000000000000    -2.545179594100     0.000000000000    12.000000000000
           C         -0.000000000000     2.545179594100     0.000000000000    12.000000000000
           C         -2.282800166900    -1.350835252800     0.000000000000    12.000000000000
           C          2.282800166900    -1.350835252800     0.000000000000    12.000000000000
           C          2.282800166900     1.350835252800     0.000000000000    12.000000000000
           C         -2.282800166900     1.350835252800     0.000000000000    12.000000000000
           H         -4.078218745900    -2.320860214600     0.000000000000     1.007825032070
           H          4.078218745900    -2.320860214600     0.000000000000     1.007825032070
           H          4.078218745900     2.320860214600     0.000000000000     1.007825032070
           H         -4.078218745900     2.320860214600     0.000000000000     1.007825032070

  -AO BASIS SET INFORMATION:
    Name                   = STO-3G
    Blend                  = STO-3G
    Total number of shells = 22
    Number of primitives   = 66
    Number of AO           = 34
    Number of SO           = 34
    Maximum AM             = 1
    Spherical Harmonics    = TRUE

  -Contraction Scheme:
    Atom   Type   All Primitives // Shells:
   ------ ------ --------------------------
       1     C     6s 3p // 2s 1p 
       2     C     6s 3p // 2s 1p 
       3     C     6s 3p // 2s 1p 
       4     C     6s 3p // 2s 1p 
       5     C     6s 3p // 2s 1p 
       6     C     6s 3p // 2s 1p 
       7     H     3s // 1s 
       8     H     3s // 1s 
       9     H     3s // 1s 
      10     H     3s // 1s 

  ==> AO Basis Functions <==

    [ STO-3G ]
    spherical
    ****
    C   1
    S   3 1.00
                        71.61683700           0.15432897
                        13.04509600           0.53532814
                         3.53051220           0.44463454
    S   3 1.00
                         2.94124940          -0.09996723
                         0.68348310           0.39951283
                         0.22228990           0.70011547
    P   3 1.00
                         2.94124940           0.15591627
                         0.68348310           0.60768372
                         0.22228990           0.39195739
    ****
    C   3
    S   3 1.00
                        71.61683700           0.15432897
                        13.04509600           0.53532814
                         3.53051220           0.44463454
    S   3 1.00
                         2.94124940          -0.09996723
                         0.68348310           0.39951283
                         0.22228990           0.70011547
    P   3 1.00
                         2.94124940           0.15591627
                         0.68348310           0.60768372
                         0.22228990           0.39195739
    ****
    H   7
    S   3 1.00
                         3.42525091           0.15432897
                         0.62391373           0.53532814
                         0.16885540           0.44463454
    ****


 Integrals are about to be computed.
 Computing Density fitted integrals 

 Number of auxiliary basis functions:  392
 Need 0.003376 GB to store DF integrals

    Computing DF Integrals               ......Done. Timing        0.032442 s
 Integrals are about to be updated.
 Make diagonal integrals in DISKDF took 0.000000 s
  Frozen-core energy           -287.157994529077 a.u.

  FrozenOneBody Operator takes  0.51020000 s
  Resorting integrals after freezing core.
 Resorting integrals takes   0.00003700s
  Frozen Orbitals takes     0.511 s.

  ==> Reference Transformation to Semicanonical Basis <==

    Transformed 1 cumulants.
    Transformed 2 cumulants and RDMs.
    Transformed 3 cumulants.
  SemiCanonicalize takes 2.936575 s.

  ==> Multireference Driven Similarity Renormalization Group <==

    Reading DSRG options ............................ Done
    Setting ambit MO space .......................... Done
    Preparing tensors for density cumulants ......... Done
    Building Fock matrix ............................ 
 Making a fock matrix 

---------Blocking Information-------

  2458624 / 375000000 = 0
  Block_size = 392 num_block = 1Done

                  --------------------------------------------
                      Density Fitted / Cholesky Decomposed
                    MR-DSRG Second-Order Perturbation Theory
                      Kevin Hannon and Chenyang (York) Li
                                    1 thread
                  --------------------------------------------

    References:
      u-DSRG-MRPT2:      J. Chem. Theory Comput. 2015, 11, 2097.
      DF/CD-DSRG-MRPT2:  J. Chem. Phys. 2016, 144, 204111.
      (pr-)DSRG-MRPT2:   J. Chem. Phys. 2017, 146, 124132.


  ==> Calculation Information <==

    Flow parameter                                 5.000e-01
    Taylor expansion threshold                     1.000e-03
    Cholesky tolerance                             1.000e-06
    Psi4 ref_type                                        RHF
    Integral type                                     DISKDF
    Source operator                                 STANDARD
    CCVV algorithm                                 FLY_AMBIT
    CCVV source                                       NORMAL
    Reference relaxation                                NONE
    State type                                STATE-SPECIFIC

  ==> Checking Semicanonical Orbitals <==

    Abs. max of Fock core, active, virtual blocks (Fij, i != j)
                  core          active         virtual
    --------------------------------------------------
    Fα    0.0000000000    0.0000000000    0.0000000000
    Fβ    0.0000000000    0.0000000000    0.0000000000
    --------------------------------------------------

    1-Norm of Fock core, active, virtual blocks (Fij, i != j)
                  core          active         virtual
    --------------------------------------------------
    Fα    0.0000000000    0.0000000000    0.0000000000
    Fβ    0.0000000000    0.0000000000    0.0000000000
    --------------------------------------------------

    Orbitals are semi-canonicalized.

  ==> Computing DSRG-MRPT2 Energy <==

  Reference Energy = -226.450946697277772
    Computing minimal T2                     ...... Done. Timing        0.101048 s
    Renormalizing minimal V                  ...... Done. Timing        0.076404 s
    Computing T1                             ...... Done. Timing        0.004186 s
    Renormalizing F                          ...... Done. Timing        0.005564 s
    Computing <[F, T1]>                      ...... Done. Timing        0.001920 s
    Computing <[F, T2]>                      ...... Done. Timing        0.003340 s
    Computing <[V, T1]>                      ...... Done. Timing        0.003181 s
    Computing <[V, T2]> 4HH                  ...... Done. Timing        0.005734 s
    Computing <V, T2]> 4PP                   ...... Done. Timing        0.004980 s
    Computing [V, T2] 4PH                    ...... Done. Timing        0.021490 s
    Computing [V, T2] λ3                     ...... Done. Timing        0.011589 s
    Computing <[V, T2]> (C_2)^4 (no ccvv)    ...

  CAVV computation takes 0.04233499

  CCVA takes 0.35605455... Done. Timing        0.423598 s
    Computing <[V, T2]> (C_2)^4 ccvv         ...... Done. Timing        0.310680 s
  Eccvv: -0.2579269257

  ==> DSRG-MRPT2 (DF/CD) Energy Summary <==

    E0 (reference)                 =   -226.450946697277772
    <[F, T1]>                      =     -0.078776747546143
    <[F, T2]>                      =      0.000641605325877
    <[V, T1]>                      =      0.000121312882875
    <[V, T2]> C_4 (C_2)^2 HH       =      0.005673674790359
    <[V, T2]> C_4 (C_2)^2 PP       =      0.004114071394435
    <[V, T2]> C_4 (C_2)^2 PH       =      0.037343086373407
    <[V, T2]> C_6 C_2              =     -0.001057950311127
    <[V, T2]> (C_2)^4              =     -0.371427553160569
    <[V, T2]>                      =     -0.325354670913494
    DSRG-MRPT2 correlation energy  =     -0.403368500250885
    DSRG-MRPT2 total energy        =   -226.854315197528649
    max(T1)                        =      0.041979024589798
    ||T1||                         =      0.151272844557904

  ==> Total Timings (s) for Computing Commutators <==

             [H1, T1]    [H1, T2]    [H2, T1]    [H2, T2]
    -----------------------------------------------------
    -> C0       0.002       0.003       0.003       0.767
    -> C1       0.000       0.000       0.000       0.000
    -> C2                   0.000       0.000       0.000
    -----------------------------------------------------

 CD/DF DSRG-MRPT2 took  4.35018 s.	DSRG-MRPT2 energy.................................................PASSED

*** Psi4 exiting successfully. Buy a developer a beer!
