    -----------------------------------------------------------------------
          Psi4: An Open-Source Ab Initio Electronic Structure Package
                              Psi4 (no tag) Driver

                          Git: Rev {detached?} 7a17eb9 dirty

    J. M. Turney, A. C. Simmonett, R. M. Parrish, E. G. Hohenstein,
    F. A. Evangelista, J. T. Fermann, B. J. Mintz, L. A. Burns, J. J. Wilke,
    M. L. Abrams, N. J. Russ, M. L. Leininger, C. L. Janssen, E. T. Seidl,
    W. D. Allen, H. F. Schaefer, R. A. King, E. F. Valeev, C. D. Sherrill,
    and T. D. Crawford, WIREs Comput. Mol. Sci. 2, 556-565 (2012)
    (doi: 10.1002/wcms.93)

                         Additional Contributions by
    A. E. DePrince, M. Saitow, U. Bozkaya, A. Yu. Sokolov
    -----------------------------------------------------------------------


    Psi4 started on: Fri Jan 22 16:49:30 2016

    Process ID:  20727
    PSI4DATADIR: /Users/jeffschriber/src/psi4/lib
    Memory level set to 256.000 MB

  ==> Input File <==

--------------------------------------------------------------------------
#! This tests the EX-CI procedure using energy selection
#! Generated using commit GITCOMMIT
# This option tests the selection criteria

import forte 

refscf = -14.5754349839908386 #TEST
refaci = -14.634961542869 #TEST
refacipt2 = -14.640285520241 #TEST

molecule li2{
   Li
   Li 1 1.0000
}

set {
  basis DZ
  e_convergence 10
  d_convergence 10
  r_convergence 10
}

set scf {
  scf_type pk
  reference rhf
  docc = [2,0,0,0,0,1,0,0]
}

set forte {
  job_type = aci
  multiplicity 1
  SELECT_TYPE aimed_energy
  perturb_select false
  q_rel true
  q_reference adjacent
  pq_function average
  TAUP 0.01
  TAUQ 0.01
  nroot 3
  charge 0
  enforce_spin_complete true
}

energy('scf')

compare_values(refscf, get_variable("CURRENT ENERGY"),9, "SCF energy") #TEST

energy('forte')
compare_values(refaci, get_variable("ACI ENERGY"),9, "ACI energy") #TEST
compare_values(refacipt2, get_variable("ACI+PT2 ENERGY"),8, "ACI+PT2 energy") #TEST
--------------------------------------------------------------------------
/Users/jeffschriber/src/forte/forte.so loaded.

*** tstart() called on Jeffs-MBP.attlocal.net
*** at Fri Jan 22 16:49:31 2016

    There are an even number of electrons - assuming singlet.
    Specify the multiplicity with the MULTP option in the
    input if this is incorrect


         ---------------------------------------------------------
                                   SCF
            by Justin Turney, Rob Parrish, and Andy Simmonett
                              RHF Reference
                        1 Threads,    256 MiB Core
         ---------------------------------------------------------

  ==> Geometry <==

    Molecular point group: d2h
    Full point group: D_inf_h

    Geometry (in Angstrom), charge = 0, multiplicity = 1:

       Center              X                  Y                   Z               Mass       
    ------------   -----------------  -----------------  -----------------  -----------------
          LI          0.000000000000     0.000000000000    -0.500000000000     7.016004548000
          LI          0.000000000000     0.000000000000     0.500000000000     7.016004548000

  Running in d2h symmetry.

  Rotational constants: A = ************  B =      4.80548  C =      4.80548 [cm^-1]
  Rotational constants: A = ************  B = 144064.61727  C = 144064.61727 [MHz]
  Nuclear repulsion =    4.762594877309999

  Charge       = 0
  Multiplicity = 1
  Electrons    = 6
  Nalpha       = 3
  Nbeta        = 3

  ==> Algorithm <==

  SCF Algorithm Type is PK.
  DIIS enabled.
  MOM disabled.
  Fractional occupation disabled.
  Guess Type is CORE.
  Energy threshold   = 1.00e-10
  Density threshold  = 1.00e-10
  Integral threshold = 0.00e+00

  ==> Primary Basis <==

  Basis Set: DZ
    Number of shells: 12
    Number of basis function: 20
    Number of Cartesian functions: 20
    Spherical Harmonics?: false
    Max angular momentum: 1

  ==> Pre-Iterations <==

   -------------------------------------------------------
    Irrep   Nso     Nmo     Nalpha   Nbeta   Ndocc  Nsocc
   -------------------------------------------------------
     Ag         6       6       2       2       2       0
     B1g        0       0       0       0       0       0
     B2g        2       2       0       0       0       0
     B3g        2       2       0       0       0       0
     Au         0       0       0       0       0       0
     B1u        6       6       1       1       1       0
     B2u        2       2       0       0       0       0
     B3u        2       2       0       0       0       0
   -------------------------------------------------------
    Total      20      20       3       3       3       0
   -------------------------------------------------------

  Starting with a DF guess...

 OEINTS: Overlap, kinetic, potential, dipole, and quadrupole integrals
         stored in file 35.

  ==> Integral Setup <==

  ==> DFJK: Density-Fitted J/K Matrices <==

    J tasked:                  Yes
    K tasked:                  Yes
    wK tasked:                  No
    OpenMP threads:              1
    Integrals threads:           1
    Memory (MB):               183
    Algorithm:                Core
    Integral Cache:           NONE
    Schwarz Cutoff:          1E-12
    Fitting Condition:       1E-12

   => Auxiliary Basis Set <=

  Basis Set: 
    Number of shells: 34
    Number of basis function: 120
    Number of Cartesian functions: 120
    Spherical Harmonics?: false
    Max angular momentum: 3

  Minimum eigenvalue in the overlap matrix is 3.7166949980E-04.
  Using Symmetric Orthogonalization.
  SCF Guess: Core (One-Electron) Hamiltonian.

  ==> Iterations <==

                           Total Energy        Delta E     RMS |[F,P]|

   @DF-RHF iter   1:   -12.94862298565563   -1.29486e+01   1.44223e-01 
   @DF-RHF iter   2:   -14.53727585365523   -1.58865e+00   1.71398e-02 DIIS
   @DF-RHF iter   3:   -14.57196629221468   -3.46904e-02   3.39791e-03 DIIS
   @DF-RHF iter   4:   -14.57521282469420   -3.24653e-03   6.85403e-04 DIIS
   @DF-RHF iter   5:   -14.57538967979822   -1.76855e-04   3.38387e-05 DIIS
   @DF-RHF iter   6:   -14.57538992112800   -2.41330e-07   8.33745e-06 DIIS
   @DF-RHF iter   7:   -14.57538994187538   -2.07474e-08   9.87255e-07 DIIS
   @DF-RHF iter   8:   -14.57538994227612   -4.00739e-10   1.64778e-07 DIIS
   @DF-RHF iter   9:   -14.57538994228871   -1.25908e-11   1.43528e-08 DIIS
   @DF-RHF iter  10:   -14.57538994228877   -6.39488e-14   2.12305e-10 DIIS
   @DF-RHF iter  11:   -14.57538994228878   -3.55271e-15   1.53837e-11 DIIS

  DF guess converged.

  ==> Integral Setup <==

 MINTS: Wrapper to libmints.
   by Justin Turney

   Calculation information:
      Number of atoms:                   2
      Number of AO shells:              12
      Number of SO shells:               6
      Number of primitives:             26
      Number of atomic orbitals:        20
      Number of basis functions:        20

      Number of irreps:                  8
      Integral cutoff                 0.00e+00
      Number of functions per irrep: [   6    0    2    2    0    6    2    2 ]

 OEINTS: Overlap, kinetic, potential, dipole, and quadrupole integrals
         stored in file 35.

      Computing two-electron integrals...done
      Computed 3747 non-zero two-electron integrals.
        Stored in file 33.

	Batch   1 pq = [       0,      54] index = [             0,1485]
  ==> DiskJK: Disk-Based J/K Matrices <==

    J tasked:                  Yes
    K tasked:                  Yes
    wK tasked:                  No
    Memory (MB):               183
    Schwarz Cutoff:          1E-12

   @RHF iter  12:   -14.57543498241539   -4.50401e-05   7.76414e-06 DIIS
   @RHF iter  13:   -14.57543498397007   -1.55468e-09   7.80667e-07 DIIS
   @RHF iter  14:   -14.57543498399031   -2.02398e-11   4.01664e-08 DIIS
   @RHF iter  15:   -14.57543498399081   -5.04485e-13   9.44030e-09 DIIS
   @RHF iter  16:   -14.57543498399083   -2.13163e-14   5.16326e-10 DIIS
   @RHF iter  17:   -14.57543498399084   -7.10543e-15   1.16255e-10 DIIS
   @RHF iter  18:   -14.57543498399084   -3.55271e-15   1.54200e-11 DIIS

  ==> Post-Iterations <==

    Orbital Energies (a.u.)
    -----------------------

    Doubly Occupied:                                                      

       1Ag    -2.834029     1B1u   -2.545290     2Ag    -0.217870  

    Virtual:                                                              

       1B2u    0.001711     1B3u    0.001711     2B1u    0.015193  
       3Ag     0.063196     1B3g    0.074417     1B2g    0.074417  
       3B1u    0.077252     2B2u    0.091645     2B3u    0.091645  
       4Ag     0.127626     4B1u    0.240502     5Ag     0.247857  
       2B3g    0.295009     2B2g    0.295009     5B1u    0.904332  
       6Ag     1.607794     6B1u    2.027282  

    Final Occupation by Irrep:
             Ag   B1g   B2g   B3g    Au   B1u   B2u   B3u 
    DOCC [     2,    0,    0,    0,    0,    1,    0,    0 ]

  Energy converged.

  @RHF Final Energy:   -14.57543498399084

   => Energetics <=

    Nuclear Repulsion Energy =              4.7625948773099989
    One-Electron Energy =                 -27.4816802315090456
    Two-Electron Energy =                   8.1436503702082028
    DFT Exchange-Correlation Energy =       0.0000000000000000
    Empirical Dispersion Energy =           0.0000000000000000
    PCM Polarization Energy =               0.0000000000000000
    EFP Energy =                            0.0000000000000000
    Total Energy =                        -14.5754349839908421

    Alert: EFP and PCM quantities not currently incorporated into SCF psivars.

Properties will be evaluated at   0.000000,   0.000000,   0.000000 Bohr
  ==> Properties <==


Properties computed using the SCF density matrix

  Nuclear Dipole Moment: (a.u.)
     X:     0.0000      Y:     0.0000      Z:     0.0000

  Electronic Dipole Moment: (a.u.)
     X:     0.0000      Y:     0.0000      Z:     0.0000

  Dipole Moment: (a.u.)
     X:     0.0000      Y:     0.0000      Z:     0.0000     Total:     0.0000

  Dipole Moment: (Debye)
     X:     0.0000      Y:     0.0000      Z:     0.0000     Total:     0.0000


  Saving occupied orbitals to File 180.

*** tstop() called on Jeffs-MBP.attlocal.net at Fri Jan 22 16:49:31 2016
Module time:
	user time   =       0.33 seconds =       0.01 minutes
	system time =       0.01 seconds =       0.00 minutes
	total time  =          0 seconds =       0.00 minutes
Total time:
	user time   =       0.33 seconds =       0.01 minutes
	system time =       0.01 seconds =       0.00 minutes
	total time  =          0 seconds =       0.00 minutes
Reading options from the FORTE block
Calling plugin /Users/jeffschriber/src/forte/forte.so.


  ==> MO Space Information <==

  -------------------------------------------------------------------------
                       Ag   B1g   B2g   B3g    Au   B1u   B2u   B3u   Sum
  -------------------------------------------------------------------------
    FROZEN_DOCC         0     0     0     0     0     0     0     0     0
    RESTRICTED_DOCC     0     0     0     0     0     0     0     0     0
    ACTIVE              6     0     2     2     0     6     2     2    20
    RESTRICTED_UOCC     0     0     0     0     0     0     0     0     0
    FROZEN_UOCC         0     0     0     0     0     0     0     0     0
    Total               6     0     2     2     0     6     2     2    20
  -------------------------------------------------------------------------

  ==> Integral Transformation <==

  Number of molecular orbitals:               20
  Number of correlated molecular orbitals:    20
  Number of frozen occupied orbitals:          0
  Number of frozen unoccupied orbitals:        0


  Overall Conventional Integrals timings

	Presorting SO-basis two-electron integrals.
	Sorting File: SO Ints (nn|nn) nbuckets = 1
	Transforming the one-electron integrals and constructing Fock matrices
	Starting first half-transformation.
	Sorting half-transformed integrals.
	First half integral transformation complete.
	Starting second half-transformation.
	Two-electron integral transformation complete.

  Integral transformation done. 0.01022000 s
  Reading the two-electron integrals from disk
  Size of two-electron integrals:   0.003576 GB
  Conventional integrals take 0.02022300 s

                    ---------------------------------------
                      Adaptive Configuration Interaction
                      written by Francesco A. Evangelista
                    ---------------------------------------

  ==> Reference Information <==

  There are 0 frozen orbitals.
  There are 20 active orbitals.

  |22000000002000000000>
  REFERENCE ENERGY:         -14.575434983991
  ==> Calculation Information <==

  -----------------------------------------------------------------
    Multiplicity                             1    
    Symmetry                                 0    
    Number of roots                          3    
    Root used for properties                 0    
    P-threshold                              1.00e-02
    Q-threshold                              1.00e-02
    Convergence threshold                    1.00e-10
    Determinant selection criterion          Second-order Energy
    Selection criterion                      Aimed selection
    PQ Function                              AVERAGE
    Q Type                                   Relative Energy
    PT2 Parameters                           False
    Project out spin contaminants            True
    Enforce spin completeness of basis       True
    Enforce complete aimed selection         True
  -----------------------------------------------------------------

  ==> Cycle 0 <==

  Initial P space dimension: 1
  Spin-complete dimension of the P space: 1 determinants
  Time spent diagonalizing H:   0.000049 s
  Not performing spin projection.

    P-space  CI Energy Root   1        = -14.575434983991 Eh =   0.0000 eV

  Dimension of the SD space: 661 determinants
  Time spent building the model space: 0.001954 s

  Using non-perturbative energy estimates
  Added 1 missing determinants in aimed selection.
  Dimension of the P + Q space: 25 determinants
  Time spent screening the model space: 0.007007 s
  Spin-complete dimension of the PQ space: 27
  Time spent diagonalizing H:   0.001292 s
  Not performing spin projection.

    PQ-space CI Energy Root   1        = -14.629827140388 Eh =   0.0000 eV
    PQ-space CI Energy + EPT2 Root   1 = -14.639713044596 Eh =   0.0000 eV

  Added 1 missing determinants in aimed selection.

  Most important contributions to root   0:
    0  -0.901722 0.813103168           0 |22000000002000000000>
    1   0.255152 0.065102629          22 |20000000002000002000>
    2   0.255152 0.065102629          23 |20000000002000000020>
    3   0.098097 0.009623065          17 |2000000000200000-+00>
    4   0.098097 0.009623065          16 |200000000020000000-+>
    5   0.098097 0.009623065          19 |2000000000200000+-00>
    6   0.098097 0.009623065          18 |200000000020000000+->
    7   0.078257 0.006124137          21 |20000000002200000000>
    8   0.055057 0.003031319          13 |20000000002-+0000000>
    9   0.055057 0.003031319          14 |20000000002+-0000000>

  Spin state for root 0: S^2 = 0.000, S = 0.000, singlet (from 27 determinants, 100.00)

  ==> Cycle 1 <==

  Initial P space dimension: 10
  Spin-complete dimension of the P space: 10 determinants
  Time spent diagonalizing H:   0.000349 s
  Not performing spin projection.

    P-space  CI Energy Root   1        = -14.618451303403 Eh =   0.0000 eV
    P-space  CI Energy Root   2        = -14.494899681370 Eh =   3.3620 eV
    P-space  CI Energy Root   3        = -14.440915636840 Eh =   4.8310 eV

  Dimension of the SD space: 4248 determinants
  Time spent building the model space: 0.020492 s

  Using non-perturbative energy estimates
  Added 1 missing determinants in aimed selection.
  Dimension of the P + Q space: 45 determinants
  Time spent screening the model space: 0.041178 s
  Spin-complete dimension of the PQ space: 51
  Time spent diagonalizing H:   0.003148 s
  Not performing spin projection.

    PQ-space CI Energy Root   1        = -14.632907792935 Eh =   0.0000 eV
    PQ-space CI Energy + EPT2 Root   1 = -14.639661942020 Eh =   0.0000 eV
    PQ-space CI Energy Root   2        = -14.506619387844 Eh =   3.4365 eV
    PQ-space CI Energy + EPT2 Root   2 = -14.515846745614 Eh =   3.3692 eV
    PQ-space CI Energy Root   3        = -14.488269225997 Eh =   3.9358 eV
    PQ-space CI Energy + EPT2 Root   3 = -14.499747633632 Eh =   3.8073 eV


  Most important contributions to root   0:
    0   0.888704 0.789794458           8 |22000000002000000000>
    1  -0.271702 0.073821936           6 |20000000002000000020>
    2  -0.271702 0.073821936           7 |20000000002000002000>
    3  -0.101459 0.010293976           5 |2000000000200000-+00>
    4  -0.101459 0.010293976           4 |200000000020000000-+>
    5  -0.101459 0.010293976           3 |2000000000200000+-00>
    6  -0.101459 0.010293976           2 |200000000020000000+->
    7  -0.073591 0.005415659           1 |20000000002200000000>
    8  -0.052067 0.002710933           9 |20000000002+-0000000>
    9  -0.052067 0.002710933           0 |20000000002-+0000000>

  Spin state for root 0: S^2 = 0.000, S = 0.000, singlet (from 51 determinants, 100.00)

  Most important contributions to root   1:
    0   0.651863 0.424925581           6 |20000000002000000020>
    1  -0.651863 0.424925581           7 |20000000002000002000>
    2  -0.189445 0.035889571           5 |2000000000200000-+00>
    3   0.189445 0.035889571           4 |200000000020000000-+>
    4   0.189445 0.035889571           2 |200000000020000000+->
    5  -0.189445 0.035889571           3 |2000000000200000+-00>
    6  -0.047051 0.002213822          34 |20000002002000000000>
    7   0.047051 0.002213822          35 |20000000022000000000>
    8  -0.022420 0.000502662          19 |20000000002000000200>
    9   0.022420 0.000502662          20 |20000000002000000002>

  Spin state for root 1: S^2 = 0.000, S = 0.000, singlet (from 51 determinants, 100.00)

  Most important contributions to root   2:
    0  -0.438274 0.192084280           6 |20000000002000000020>
    1  -0.438274 0.192084280           7 |20000000002000002000>
    2   0.324648 0.105396339           1 |20000000002200000000>
    3  -0.308155 0.094959528           8 |22000000002000000000>
    4   0.273937 0.075041733          42 |2-+00000002000000000>
    5   0.273937 0.075041733          43 |2+-00000002000000000>
    6   0.216149 0.046720506          40 |2-00+000002000000000>
    7   0.216149 0.046720506          41 |2+00-000002000000000>
    8   0.185650 0.034465848           9 |20000000002+-0000000>
    9   0.185650 0.034465848           0 |20000000002-+0000000>

  Spin state for root 2: S^2 = 0.000, S = 0.000, singlet (from 51 determinants, 100.00)

  ==> Cycle 2 <==

  Initial P space dimension: 14
  Spin-complete dimension of the P space: 14 determinants
  Time spent diagonalizing H:   0.000552 s
  Not performing spin projection.

    P-space  CI Energy Root   1        = -14.619364331276 Eh =   0.0000 eV
    P-space  CI Energy Root   2        = -14.494899681370 Eh =   3.3869 eV
    P-space  CI Energy Root   3        = -14.474416349233 Eh =   3.9442 eV

  Dimension of the SD space: 5414 determinants
  Time spent building the model space: 0.031028 s

  Using non-perturbative energy estimates
  Added 1 missing determinants in aimed selection.
  Dimension of the P + Q space: 77 determinants
  Time spent screening the model space: 0.052810 s
  Spin-complete dimension of the PQ space: 97
  Time spent diagonalizing H:   0.008185 s
  Not performing spin projection.

    PQ-space CI Energy Root   1        = -14.634110857067 Eh =   0.0000 eV
    PQ-space CI Energy + EPT2 Root   1 = -14.639921359565 Eh =   0.0000 eV
    PQ-space CI Energy Root   2        = -14.508218404629 Eh =   3.4257 eV
    PQ-space CI Energy + EPT2 Root   2 = -14.515538243868 Eh =   3.3846 eV
    PQ-space CI Energy Root   3        = -14.494904908096 Eh =   3.7880 eV
    PQ-space CI Energy + EPT2 Root   3 = -14.503838461496 Eh =   3.7030 eV

  Added 1 missing determinants in aimed selection.

  Most important contributions to root   0:
    0   0.888942 0.790217668          11 |22000000002000000000>
    1  -0.267583 0.071600610          12 |20000000002000002000>
    2  -0.267583 0.071600610          13 |20000000002000000020>
    3  -0.101393 0.010280625           7 |2000000000200000+-00>
    4  -0.101393 0.010280625          10 |2000000000200000-+00>
    5  -0.101393 0.010280625           9 |200000000020000000-+>
    6  -0.101393 0.010280625           8 |200000000020000000+->
    7  -0.075694 0.005729643           6 |20000000002200000000>
    8  -0.055205 0.003047581           0 |20000000002-+0000000>
    9  -0.055205 0.003047581           1 |20000000002+-0000000>

  Spin state for root 0: S^2 = 0.000, S = 0.000, singlet (from 97 determinants, 100.00)

  Most important contributions to root   1:
    0  -0.651682 0.424688914          12 |20000000002000002000>
    1   0.651682 0.424688914          13 |20000000002000000020>
    2  -0.188080 0.035373987           7 |2000000000200000+-00>
    3  -0.188080 0.035373987          10 |2000000000200000-+00>
    4   0.188080 0.035373987           8 |200000000020000000+->
    5   0.188080 0.035373987           9 |200000000020000000-+>
    6   0.048875 0.002388798          71 |20000000022000000000>
    7  -0.048875 0.002388798          70 |20000002002000000000>
    8  -0.023578 0.000555913          36 |20000000+-2000000000>
    9   0.023578 0.000555913          33 |200000-+002000000000>

  Spin state for root 1: S^2 = 0.000, S = 0.000, singlet (from 97 determinants, 100.00)

  Most important contributions to root   2:
    0   0.430913 0.185686069          13 |20000000002000000020>
    1   0.430913 0.185686069          12 |20000000002000002000>
    2  -0.320643 0.102811626           6 |20000000002200000000>
    3  -0.291526 0.084987449           4 |2+-00000002000000000>
    4  -0.291526 0.084987449           5 |2-+00000002000000000>
    5   0.281563 0.079277809          11 |22000000002000000000>
    6  -0.216824 0.047012651           2 |2+00-000002000000000>
    7  -0.216824 0.047012651           3 |2-00+000002000000000>
    8  -0.187617 0.035200143           1 |20000000002+-0000000>
    9  -0.187617 0.035200143           0 |20000000002-+0000000>

  Spin state for root 2: S^2 = 0.000, S = 0.000, singlet (from 97 determinants, 100.00)

  ==> Cycle 3 <==

  Initial P space dimension: 17
  Spin-complete dimension of the P space: 17 determinants
  Time spent diagonalizing H:   0.000720 s
  Not performing spin projection.

    P-space  CI Energy Root   1        = -14.620775713518 Eh =   0.0000 eV
    P-space  CI Energy Root   2        = -14.494899681370 Eh =   3.4253 eV
    P-space  CI Energy Root   3        = -14.481931368867 Eh =   3.7781 eV

  Dimension of the SD space: 6130 determinants
  Time spent building the model space: 0.039008 s

  Using non-perturbative energy estimates
  Added 2 missing determinants in aimed selection.
  Dimension of the P + Q space: 84 determinants
  Time spent screening the model space: 0.060737 s
  Spin-complete dimension of the PQ space: 112
  Time spent diagonalizing H:   0.010464 s
  Not performing spin projection.

    PQ-space CI Energy Root   1        = -14.634961542869 Eh =   0.0000 eV
    PQ-space CI Energy + EPT2 Root   1 = -14.640285520241 Eh =   0.0000 eV
    PQ-space CI Energy Root   2        = -14.508611252350 Eh =   3.4382 eV
    PQ-space CI Energy + EPT2 Root   2 = -14.515761927989 Eh =   3.3885 eV
    PQ-space CI Energy Root   3        = -14.495554606256 Eh =   3.7935 eV
    PQ-space CI Energy + EPT2 Root   3 = -14.504950895833 Eh =   3.6826 eV

  Added 1 missing determinants in aimed selection.

  Most important contributions to root   0:
    0   0.889081 0.790464358          13 |22000000002000000000>
    1  -0.267202 0.071396820          14 |20000000002000002000>
    2  -0.267202 0.071396820          15 |20000000002000000020>
    3  -0.101213 0.010244000          11 |200000000020000000+->
    4  -0.101213 0.010244000          10 |2000000000200000-+00>
    5  -0.101213 0.010244000           9 |200000000020000000-+>
    6  -0.101213 0.010244000          12 |2000000000200000+-00>
    7  -0.076506 0.005853183           8 |20000000002200000000>
    8  -0.055676 0.003099846           4 |20000000002-+0000000>
    9  -0.055676 0.003099846           5 |20000000002+-0000000>

  Spin state for root 0: S^2 = 0.000, S = 0.000, singlet (from 112 determinants, 100.00)

  Most important contributions to root   1:
    0  -0.651931 0.425014619          15 |20000000002000000020>
    1   0.651931 0.425014619          14 |20000000002000002000>
    2  -0.187625 0.035202961          11 |200000000020000000+->
    3   0.187625 0.035202961          10 |2000000000200000-+00>
    4  -0.187625 0.035202961           9 |200000000020000000-+>
    5   0.187625 0.035202961          12 |2000000000200000+-00>
    6   0.048810 0.002382454          79 |20000002002000000000>
    7  -0.048810 0.002382454          80 |20000000022000000000>
    8  -0.023556 0.000554867          42 |200000+-002000000000>
    9   0.023556 0.000554867          45 |20000000-+2000000000>

  Spin state for root 1: S^2 = 0.000, S = 0.000, singlet (from 112 determinants, 100.00)

  Most important contributions to root   2:
    0   0.430171 0.185046859          14 |20000000002000002000>
    1   0.430171 0.185046859          15 |20000000002000000020>
    2  -0.323588 0.104709362           8 |20000000002200000000>
    3  -0.289974 0.084084873           6 |2-+00000002000000000>
    4  -0.289974 0.084084873           7 |2+-00000002000000000>
    5   0.278813 0.077736775          13 |22000000002000000000>
    6  -0.219344 0.048111692           2 |2-00+000002000000000>
    7  -0.219344 0.048111692           3 |2+00-000002000000000>
    8  -0.188778 0.035637256           4 |20000000002-+0000000>
    9  -0.188778 0.035637256           5 |20000000002+-0000000>

  Spin state for root 2: S^2 = 0.000, S = 0.000, singlet (from 112 determinants, 100.00)

  ==> Cycle 4 <==

  Initial P space dimension: 17
  Spin-complete dimension of the P space: 17 determinants
  Time spent diagonalizing H:   0.000741 s
  Not performing spin projection.

    P-space  CI Energy Root   1        = -14.620775713518 Eh =   0.0000 eV
    P-space  CI Energy Root   2        = -14.494899681370 Eh =   3.4253 eV
    P-space  CI Energy Root   3        = -14.481931368867 Eh =   3.7781 eV

  Dimension of the SD space: 6130 determinants
  Time spent building the model space: 0.039235 s

  Using non-perturbative energy estimates
  Added 2 missing determinants in aimed selection.
  Dimension of the P + Q space: 84 determinants
  Time spent screening the model space: 0.064494 s
  Spin-complete dimension of the PQ space: 112
  Time spent diagonalizing H:   0.010665 s
  Not performing spin projection.

    PQ-space CI Energy Root   1        = -14.634961542869 Eh =   0.0000 eV
    PQ-space CI Energy + EPT2 Root   1 = -14.640285520241 Eh =   0.0000 eV
    PQ-space CI Energy Root   2        = -14.508611252350 Eh =   3.4382 eV
    PQ-space CI Energy + EPT2 Root   2 = -14.515761927989 Eh =   3.3885 eV
    PQ-space CI Energy Root   3        = -14.495554606256 Eh =   3.7935 eV
    PQ-space CI Energy + EPT2 Root   3 = -14.504950895833 Eh =   3.6826 eV

  ***** Calculation Converged *****
  Not performing spin projection.
  1-RDM  took 0.001066 s

  ==> ACI Summary <==

  Iterations required:                         4
  Dimension of optimized determinant space:    112

  * Adaptive-CI Energy Root   1        = -14.634961542869 Eh =   0.0000 eV
  * Adaptive-CI Energy Root   1 + EPT2 = -14.640285520241 Eh =   0.0000 eV
  * Adaptive-CI Energy Root   2        = -14.508611252350 Eh =   3.4382 eV
  * Adaptive-CI Energy Root   2 + EPT2 = -14.515761927989 Eh =   3.3885 eV
  * Adaptive-CI Energy Root   3        = -14.495554606256 Eh =   3.7935 eV
  * Adaptive-CI Energy Root   3 + EPT2 = -14.504950895833 Eh =   3.6826 eV

  ==> Wavefunction Information <==

  Most important contributions to root   0:
    0   0.889081 0.790464358          13 |22000000002000000000>
    1  -0.267202 0.071396820          14 |20000000002000002000>
    2  -0.267202 0.071396820          15 |20000000002000000020>
    3  -0.101213 0.010244000          11 |2000000000200000-+00>
    4  -0.101213 0.010244000          10 |200000000020000000-+>
    5  -0.101213 0.010244000          12 |200000000020000000+->
    6  -0.101213 0.010244000           9 |2000000000200000+-00>
    7  -0.076506 0.005853183           8 |20000000002200000000>
    8  -0.055676 0.003099846           5 |20000000002-+0000000>
    9  -0.055676 0.003099846           4 |20000000002+-0000000>

  Spin state for root 0: S^2 = 0.000, S = 0.000, singlet (from 112 determinants, 100.00)

  Most important contributions to root   1:
    0   0.651931 0.425014619          14 |20000000002000002000>
    1  -0.651931 0.425014619          15 |20000000002000000020>
    2  -0.187625 0.035202961          10 |200000000020000000-+>
    3   0.187625 0.035202961          11 |2000000000200000-+00>
    4  -0.187625 0.035202961          12 |200000000020000000+->
    5   0.187625 0.035202961           9 |2000000000200000+-00>
    6  -0.048810 0.002382454          80 |20000000022000000000>
    7   0.048810 0.002382454          79 |20000002002000000000>
    8   0.023556 0.000554867          44 |20000000-+2000000000>
    9   0.023556 0.000554867          45 |20000000+-2000000000>

  Spin state for root 1: S^2 = 0.000, S = 0.000, singlet (from 112 determinants, 100.00)

  Most important contributions to root   2:
    0   0.430171 0.185046859          14 |20000000002000002000>
    1   0.430171 0.185046859          15 |20000000002000000020>
    2  -0.323588 0.104709362           8 |20000000002200000000>
    3  -0.289974 0.084084873           7 |2-+00000002000000000>
    4  -0.289974 0.084084873           6 |2+-00000002000000000>
    5   0.278813 0.077736775          13 |22000000002000000000>
    6  -0.219344 0.048111692           3 |2-00+000002000000000>
    7  -0.219344 0.048111692           2 |2+00-000002000000000>
    8  -0.188778 0.035637256           4 |20000000002+-0000000>
    9  -0.188778 0.035637256           5 |20000000002-+0000000>

  Spin state for root 2: S^2 = 0.000, S = 0.000, singlet (from 112 determinants, 100.00)

     Order		 # of Dets        Total |c^2|   
  __________ 	____________   ________________ 
       0                  1           0.79046435832
       1                  6           0.00358580795
       2                 46           0.20571944626
       3                 30           0.00001282216
       4                 29           0.00021756532

  Highest-order excitation searched:     10  

       0                  1           0.00000000000
       1                  6           0.00000000000
       2                 46           0.99869085717
       3                 30           0.00006290225
       4                 29           0.00124624058

  Highest-order excitation searched:     10  

       0                  1           0.07773677548
       1                  6           0.27509805522
       2                 46           0.64622854702
       3                 30           0.00025756488
       4                 29           0.00067905740

  Highest-order excitation searched:     10  


  Adaptive-CI (bitset) ran in : 0.752008 s

  Saving information for root: 1

  Your calculation took 0.85387000 seconds

*** PSI4 exiting successfully. Buy a developer a beer!
