
    -----------------------------------------------------------------------
          Psi4: An Open-Source Ab Initio Electronic Structure Package
                               Psi4 undefined 

                         Git: Rev {x2c-norm} b906495 


    D. G. A. Smith, L. A. Burns, A. C. Simmonett, R. M. Parrish,
    M. C. Schieber, R. Galvelis, P. Kraus, H. Kruse, R. Di Remigio,
    A. Alenaizan, A. M. James, S. Lehtola, J. P. Misiewicz, M. Scheurer,
    R. A. Shaw, J. B. Schriber, Y. Xie, Z. L. Glick, D. A. Sirianni,
    J. S. O'Brien, J. M. Waldrop, A. Kumar, E. G. Hohenstein,
    B. P. Pritchard, B. R. Brooks, H. F. Schaefer III, A. Yu. Sokolov,
    K. Patkowski, A. E. DePrince III, U. Bozkaya, R. A. King,
    F. A. Evangelista, J. M. Turney, T. D. Crawford, C. D. Sherrill,
    J. Chem. Phys. 152(18) 184108 (2020). https://doi.org/10.1063/5.0006002

                            Additional Code Authors
    E. T. Seidl, C. L. Janssen, E. F. Valeev, M. L. Leininger,
    J. F. Gonthier, R. M. Richard, H. R. McAlexander, M. Saitow, X. Wang,
    P. Verma, and M. H. Lechner

             Previous Authors, Complete List of Code Contributors,
                       and Citations for Specific Modules
    https://github.com/psi4/psi4/blob/master/codemeta.json
    https://github.com/psi4/psi4/graphs/contributors
    http://psicode.org/psi4manual/master/introduction.html#citing-psifour

    -----------------------------------------------------------------------


    Psi4 started on: Thursday, 24 December 2020 03:08PM

    Process ID: 60672
    Host:       Yorks-Mac.local
    PSIDATADIR: /Users/york/src/psi4new/psi4/share/psi4
    Memory:     500.0 MiB
    Threads:    1
    
  ==> Input File <==

--------------------------------------------------------------------------
#! Generated using commit GITCOMMIT
# GASSCF-DSRG-MRPT2 for core-excited singlet A1 state of H2O
# at most one electron occupies the core orbital

import forte

refscf = -76.0172965561
refgasscf = -56.291988402563831
refdsrg = -56.462802951195542

memory 1000mb
molecule h2o{
   O
   H  1 1.00
   H  1 1.00 2 103.1
}

set global {
  basis 6-31g**
  e_convergence 10
  d_convergence 10
  r_convergence 10
  guess gwh
  scf_type pk
  reference rhf
}

set scf_type direct
set forte {
  active_space_solver aci
  ms 0.0
  multiplicity 1
  root_sym 0
  charge 0
  sigma 0.00
  sci_enforce_spin_complete true
  # for non-selective GAS, we always treat spin_project_full as true
  # such that the following line is only optional
  spin_project_full true
  active_ref_type gas
  GAS1 [1,0,0,0]
  GAS2 [3,0,1,2]
  GAS1MAX [1]
  GAS1MIN [0]
  job_type mcscf_two_step
  casscf_ci_solver aci
  casscf_maxiter 100
  casscf_e_convergence 10
  casscf_g_convergence 10
  casscf_active_frozen_orbital [0]
}

escf, wfn = energy('scf', return_wfn=True)
egasscf, wfn_gasscf = energy('forte', ref_wfn=wfn, return_wfn=True)
compare_values(refgasscf, egasscf, 9, "GASSCF energy")

set forte {
  job_type newdriver
  correlation_solver sa-mrdsrg
  dsrg_s 1.0
}

edsrg = energy('forte', ref_wfn=wfn_gasscf)
compare_values(refdsrg, edsrg, 9, "GASSCF-DSRG-MRPT2 energy")
--------------------------------------------------------------------------

  Memory set to 953.674 MiB by Python driver.

Scratch directory: /Users/york/scratch/psi4/

*** tstart() called on Yorks-Mac.local
*** at Thu Dec 24 15:08:00 2020

   => Loading Basis Set <=

    Name: 6-31G**
    Role: ORBITAL
    Keyword: BASIS
    atoms 1   entry O          line   149 file /Users/york/src/psi4new/psi4/share/psi4/basis/6-31gss.gbs 
    atoms 2-3 entry H          line    44 file /Users/york/src/psi4new/psi4/share/psi4/basis/6-31gss.gbs 


         ---------------------------------------------------------
                                   SCF
               by Justin Turney, Rob Parrish, Andy Simmonett
                          and Daniel G. A. Smith
                              RHF Reference
                        1 Threads,    953 MiB Core
         ---------------------------------------------------------

  ==> Geometry <==

    Molecular point group: c2v
    Full point group: C2v

    Geometry (in Angstrom), charge = 0, multiplicity = 1:

       Center              X                  Y                   Z               Mass       
    ------------   -----------------  -----------------  -----------------  -----------------
         O            0.000000000000     0.000000000000    -0.069592187400    15.994914619570
         H            0.000000000000    -0.783151105291     0.552239257834     1.007825032230
         H            0.000000000000     0.783151105291     0.552239257834     1.007825032230

  Running in c2v symmetry.

  Rotational constants: A =     24.35462  B =     13.63610  C =      8.74166 [cm^-1]
  Rotational constants: A = 730133.21529  B = 408800.04239  C = 262068.46393 [MHz]
  Nuclear repulsion =    8.804686653247025

  Charge       = 0
  Multiplicity = 1
  Electrons    = 10
  Nalpha       = 5
  Nbeta        = 5

  ==> Algorithm <==

  SCF Algorithm Type is DIRECT.
  DIIS enabled.
  MOM disabled.
  Fractional occupation disabled.
  Guess Type is GWH.
  Energy threshold   = 1.00e-10
  Density threshold  = 1.00e-10
  Integral threshold = 1.00e-12

  ==> Primary Basis <==

  Basis Set: 6-31G**
    Blend: 6-31G**
    Number of shells: 12
    Number of basis function: 25
    Number of Cartesian functions: 25
    Spherical Harmonics?: false
    Max angular momentum: 2

   => Loading Basis Set <=

    Name: (6-31G** AUX)
    Role: JKFIT
    Keyword: DF_BASIS_SCF
    atoms 1   entry O          line   221 file /Users/york/src/psi4new/psi4/share/psi4/basis/cc-pvdz-jkfit.gbs 
    atoms 2-3 entry H          line    51 file /Users/york/src/psi4new/psi4/share/psi4/basis/cc-pvdz-jkfit.gbs 

  Starting with a DF guess...

  ==> Integral Setup <==

  DFHelper Memory: AOs need 0.001 GiB; user supplied 0.698 GiB. Using in-core AOs.

  ==> MemDFJK: Density-Fitted J/K Matrices <==

    J tasked:                   Yes
    K tasked:                   Yes
    wK tasked:                   No
    OpenMP threads:               1
    Memory [MiB]:               715
    Algorithm:                 Core
    Schwarz Cutoff:           1E-12
    Mask sparsity (%):       0.0000
    Fitting Condition:        1E-10

   => Auxiliary Basis Set <=

  Basis Set: (6-31G** AUX)
    Blend: CC-PVDZ-JKFIT
    Number of shells: 42
    Number of basis function: 131
    Number of Cartesian functions: 131
    Spherical Harmonics?: false
    Max angular momentum: 3

  Minimum eigenvalue in the overlap matrix is 2.2571686435E-02.
  Reciprocal condition number of the overlap matrix is 5.1514795888E-03.
    Using symmetric orthogonalization.

  ==> Pre-Iterations <==

  SCF Guess: Generalized Wolfsberg-Helmholtz.

   -------------------------------------------------------
    Irrep   Nso     Nmo     Nalpha   Nbeta   Ndocc  Nsocc
   -------------------------------------------------------
     A1        12      12       3       3       3       0
     A2         2       2       0       0       0       0
     B1         4       4       1       1       1       0
     B2         7       7       1       1       1       0
   -------------------------------------------------------
    Total      25      25       5       5       5       0
   -------------------------------------------------------

  ==> Iterations <==

                           Total Energy        Delta E     RMS |[F,P]|

   @DF-RHF iter   1:   -74.69502194331292   -7.46950e+01   1.19380e-01 DIIS
   @DF-RHF iter   2:   -75.63883488359986   -9.43813e-01   7.21524e-02 DIIS
   @DF-RHF iter   3:   -76.01065330024043   -3.71818e-01   7.66497e-03 DIIS
   @DF-RHF iter   4:   -76.01705150838622   -6.39821e-03   1.07848e-03 DIIS
   @DF-RHF iter   5:   -76.01724771497759   -1.96207e-04   2.45196e-04 DIIS
   @DF-RHF iter   6:   -76.01725930217384   -1.15872e-05   5.17439e-05 DIIS
   @DF-RHF iter   7:   -76.01725996692316   -6.64749e-07   8.86755e-06 DIIS
   @DF-RHF iter   8:   -76.01725998300643   -1.60833e-08   1.68546e-06 DIIS
   @DF-RHF iter   9:   -76.01725998410998   -1.10356e-09   3.99731e-07 DIIS
   @DF-RHF iter  10:   -76.01725998416075   -5.07612e-11   4.32937e-08 DIIS
   @DF-RHF iter  11:   -76.01725998416110   -3.55271e-13   4.33252e-09 DIIS
   @DF-RHF iter  12:   -76.01725998416109    1.42109e-14   4.75420e-10 DIIS
   @DF-RHF iter  13:   -76.01725998416119   -9.94760e-14   4.32045e-11 DIIS

  DF guess converged.

  ==> DirectJK: Integral-Direct J/K Matrices <==

    J tasked:                  Yes
    K tasked:                  Yes
    wK tasked:                  No
    Integrals threads:           1
    Schwarz Cutoff:          1E-12

   @RHF iter  14:   -76.01729654450095   -7.60173e+01   1.19915e-05 DIIS
   @RHF iter  15:   -76.01729655577867   -1.12777e-08   1.64017e-06 DIIS
   @RHF iter  16:   -76.01729655606729   -2.88622e-10   4.89639e-07 DIIS
   @RHF iter  17:   -76.01729655608825   -2.09610e-11   1.68507e-07 DIIS
   @RHF iter  18:   -76.01729655609124   -2.98428e-12   4.58642e-08 DIIS
   @RHF iter  19:   -76.01729655609152   -2.84217e-13   5.21060e-09 DIIS
   @RHF iter  20:   -76.01729655609152    0.00000e+00   7.84812e-10 DIIS
   @RHF iter  21:   -76.01729655609147    5.68434e-14   1.27029e-10 DIIS
   @RHF iter  22:   -76.01729655609152   -5.68434e-14   2.82299e-11 DIIS
  Energy and wave function converged.


  ==> Post-Iterations <==

    Orbital Energies [Eh]
    ---------------------

    Doubly Occupied:                                                      

       1A1   -20.569000     2A1    -1.320609     1B2    -0.678724  
       3A1    -0.563930     1B1    -0.495004  

    Virtual:                                                              

       4A1     0.202466     2B2     0.292719     3B2     0.981164  
       5A1     1.056318     6A1     1.129179     2B1     1.168639  
       4B2     1.294985     7A1     1.413596     1A2     1.802875  
       8A1     1.806916     3B1     1.918871     9A1     2.513249  
       5B2     2.537822     6B2     2.713577     2A2     2.921065  
       4B1     2.947486    10A1     3.291755    11A1     3.620730  
       7B2     3.874917    12A1     4.077740  

    Final Occupation by Irrep:
             A1    A2    B1    B2 
    DOCC [     3,    0,    1,    1 ]

  @RHF Final Energy:   -76.01729655609152

   => Energetics <=

    Nuclear Repulsion Energy =              8.8046866532470247
    One-Electron Energy =                -122.3894315645717938
    Two-Electron Energy =                  37.5674483552332532
    Total Energy =                        -76.0172965560915230

Computation Completed


Properties will be evaluated at   0.000000,   0.000000,   0.000000 [a0]

Properties computed using the SCF density matrix

  Nuclear Dipole Moment: [e a0]
     X:     0.0000      Y:     0.0000      Z:     1.0351

  Electronic Dipole Moment: [e a0]
     X:     0.0000      Y:     0.0000      Z:    -0.1532

  Dipole Moment: [e a0]
     X:     0.0000      Y:     0.0000      Z:     0.8819     Total:     0.8819

  Dipole Moment: [D]
     X:     0.0000      Y:     0.0000      Z:     2.2414     Total:     2.2414


*** tstop() called on Yorks-Mac.local at Thu Dec 24 15:08:01 2020
Module time:
	user time   =       0.19 seconds =       0.00 minutes
	system time =       0.01 seconds =       0.00 minutes
	total time  =          1 seconds =       0.02 minutes
Total time:
	user time   =       0.19 seconds =       0.00 minutes
	system time =       0.01 seconds =       0.00 minutes
	total time  =          1 seconds =       0.02 minutes

Scratch directory: /Users/york/scratch/psi4/

  Forte
  ----------------------------------------------------------------------------
  A suite of quantum chemistry methods for strongly correlated electrons

    git branch: gasci-dsrg-semi - git commit: 9f012f3a

  Developed by:
    Francesco A. Evangelista, Chenyang Li, Kevin P. Hannon,
    Jeffrey B. Schriber, Tianyuan Zhang, Chenxi Cai,
    Nan He, Nicholas Stair, Shuhe Wang, Renke Huang
  ----------------------------------------------------------------------------

  Size of Determinant class: 256 bits

  Preparing forte objects from a Psi4 Wavefunction object
  Read options for space GAS1
  Read options for space GAS2
  Read options for space GAS1
  Read options for space GAS2

  ==> MO Space Information <==

  -------------------------------------------------
                       A1    A2    B1    B2   Sum
  -------------------------------------------------
    FROZEN_DOCC         0     0     0     0     0
    RESTRICTED_DOCC     0     0     0     0     0
    GAS1                1     0     0     0     1
    GAS2                3     0     1     2     6
    GAS3                0     0     0     0     0
    GAS4                0     0     0     0     0
    GAS5                0     0     0     0     0
    GAS6                0     0     0     0     0
    RESTRICTED_UOCC     8     2     3     5    18
    FROZEN_UOCC         0     0     0     0     0
    Total              12     2     4     7    25
  -------------------------------------------------

   => Loading Basis Set <=

    Name: 6-31G**
    Role: ORBITAL
    Keyword: BASIS
    atoms 1   entry O          line   149 file /Users/york/src/psi4new/psi4/share/psi4/basis/6-31gss.gbs 
    atoms 2-3 entry H          line    44 file /Users/york/src/psi4new/psi4/share/psi4/basis/6-31gss.gbs 


  Checking orbital orthonormality against current geometry ... Done (OK)

   => Loading Basis Set <=

    Name: STO-3G
    Role: ORBITAL
    Keyword: MINAO_BASIS
    atoms 1   entry O          line    81 file /Users/york/src/psi4new/psi4/share/psi4/basis/sto-3g.gbs 
    atoms 2-3 entry H          line    19 file /Users/york/src/psi4new/psi4/share/psi4/basis/sto-3g.gbs 


  Forte will use psi4 integrals

  ==> Primary Basis Set Summary <==

  Basis Set: 6-31G**
    Blend: 6-31G**
    Number of shells: 12
    Number of basis function: 25
    Number of Cartesian functions: 25
    Spherical Harmonics?: false
    Max angular momentum: 2


  JK created using conventional PK integrals
  Using in-core PK algorithm.
   Calculation information:
      Number of atoms:                   3
      Number of AO shells:              12
      Number of primitives:             25
      Number of atomic orbitals:        25
      Number of basis functions:        25

      Integral cutoff                 1.00e-12
      Number of threads:                 1

  Performing in-core PK
  Using 105950 doubles for integral storage.
  We computed 3081 shell quartets total.
  Whereas there are 3081 unique shell quartets.

  ==> DiskJK: Disk-Based J/K Matrices <==

    J tasked:                  Yes
    K tasked:                  Yes
    wK tasked:                  No
    Memory [MiB]:              762
    Schwarz Cutoff:          1E-12

    OpenMP threads:              1



  ==> Integral Transformation <==

  Number of molecular orbitals:                         25
  Number of correlated molecular orbitals:              25
  Number of frozen occupied orbitals:                    0
  Number of frozen unoccupied orbitals:                  0
  Two-electron integral type:                 Conventional


  Skip integral allocation and transformation for AO-driven CASSCF.

          -----------------------------------------------------------
                  Multi-Configurational Self Consistent Field
                Two-Step Approximate Second-Order AO Algorithm
            written by Chenyang Li, Kevin P. Hannon, and Shuhe Wang
          -----------------------------------------------------------


  ==> Calculation Information <==

    Integral type                               CONVENTIONAL
    CI solver type                                       ACI
    Final orbital type                             CANONICAL
    Include internal rotations                         FALSE
    Debug printing                                     FALSE
    Energy convergence                             1.000e-10
    Gradient convergence                           1.000e-10
    Max value for rotation                         5.000e-01
    Printing level                                         1
    Max number of macro iterations                       100
    Max number of micro iterations                        50
    Min number of micro iterations                        15
    DIIS start                                             2
    Min DIIS vectors                                       2
    Max DIIS vectors                                       8
    Frequency of DIIS extrapolation                        1


  ==> Independent Orbital Rotations <==

    ORBITAL SPACES                        A1     A2     B1     B2
    -------------------------------------------------------------
               GAS1 /            GAS2      0      0      0      0
             ACTIVE / RESTRICTED_DOCC      0      0      0      0
    RESTRICTED_UOCC /          ACTIVE     24      0      3     10
    RESTRICTED_UOCC / RESTRICTED_DOCC      0      0      0      0
    -------------------------------------------------------------

  ==> Summary of Active Space Solver Input <==

    Irrep.  Multi.(2ms)      N
    --------------------------
       A1      1  (  0)      1
    --------------------------
    N: number of roots
    ms: spin z component
    Total number of roots:   1
    --------------------------


-------------------------------------------------------------------------------
               Selected Configuration Interaction Excited States
  written by Jeffrey B. Schriber, Tianyuan Zhang and Francesco A. Evangelista
-------------------------------------------------------------------------------

  ==> Reference Information <==

  ==> Calculation Information <==

  -----------------------------------------------------------------
    Multiplicity                             1    
    Symmetry                                 0    
    Number of roots                          1    
    Ms                                       0
    Excited Algorithm                        NONE
  -----------------------------------------------------------------
  Using 1 threads
  Computing wavefunction for root 0

        ---------------------------------------------------------------
                      Adaptive Configuration Interaction
          written by Jeffrey B. Schriber and Francesco A. Evangelista
        ---------------------------------------------------------------

  ==> Reference Information <==

  There are 0 frozen orbitals.
  There are 7 active orbitals.

  ==> Calculation Information <==

  -----------------------------------------------------------------
    Multiplicity                             1    
    Symmetry                                 0    
    Number of roots                          1    
    Root used for properties                 0    
    Sigma (Eh)                               0.00e+00
    Gamma (Eh^(-1))                          1.00e+00
    Convergence threshold                    1.00e-09
    Ms                                       0
    Diagonalization algorithm                SPARSE
    Excited Algorithm                        NONE
    Project out spin contaminants            True
    Enforce spin completeness of basis       True
    Enforce complete aimed selection         True
  -----------------------------------------------------------------
  Number of active alpha electrons: 5
  Number of active beta electrons: 5
  Maximum reference space size: 1000
  The maximum number of electrons in GAS1 is 1
  The minimum number of electrons in GAS1 is 0
  The maximum number of electrons in GAS2 is 10 
  The minimum number of electrons in GAS2 is 0
  
  Possible electron occupations in the GAS 
  GAS1_A  GAS1_B  GAS2_A  GAS2_B  
     1       0       4       5    
     0       1       5       4    
     0       0       5       5    

  GAS Orbital Energies
  GAS   Energies    Orb 
  1  -20.568999574  0 
  2  -1.320609273  1 
  2  -0.563930450  2 
  2   0.202465902  3 
  2  -0.495003944  4 
  2  -0.678724187  5 
  2   0.292719335  6 

  ---------------------------------- Cycle 0 -----------------------------------


  ==> Diagonalizing the Hamiltonian in the P space <==

  Initial P space dimension: 68
  Spin-complete dimension of the P space: 68 determinants

  ==> Computing Coupling Lists <==
  --------------------------------
        α          0.000219 s
        β          0.000151 s
        αα         0.000232 s
        ββ         0.000227 s
        αβ         0.000557 s
  --------------------------------

  Davidson-Liu solver algorithm using SigmaVectorSparseList sigma algorithm

  Performing diagonalization of the H matrix
  Found 33 roots with 2S+1 = 1 *
  Found 31 roots with 2S+1 = 3
  Found 4 roots with 2S+1 = 5
  Time spent diagonalizing H:   0.002702 s

    P-space  CI Energy Root   0        = -55.841944166829 Eh =   0.0000 eV, S^2 = 0.000000


  ==> Finding the Q space <==

  Using SR screening algorithm
  Time spent forming F space:             0.000374
  Time spent merging thread F spaces:             0.000008
  Size of F space: 0
  Time spent building sorting list: 0.000000
  Time spent building the model space: 0.000420
  Spin-complete dimension of the PQ space: 68

  ==> Diagonalizing the Hamiltonian in the P + Q space <==

  Number of reference roots: 1

  ==> Computing Coupling Lists <==
  --------------------------------
        α          0.000149 s
        β          0.000145 s
        αα         0.000226 s
        ββ         0.000219 s
        αβ         0.000553 s
  --------------------------------

  Davidson-Liu solver algorithm using SigmaVectorSparseList sigma algorithm

  Performing diagonalization of the H matrix
  Found 33 roots with 2S+1 = 1 *
  Found 31 roots with 2S+1 = 3
  Found 4 roots with 2S+1 = 5
  Total time spent diagonalizing H:   0.002449 s

    PQ-space CI Energy Root   0        = -55.841944166829 Eh =   0.0000 eV, S^2 = 0.000000
    PQ-space CI Energy + EPT2 Root   0 = -55.841944166829 Eh =   0.0000 eV

  
  GAS Contribution Analysis  
  GAS contributions root 0: 
  GAS1_A    GASI_B    GAS2_A    GAS2_B        Cont  
     1         0         4         5        0.499976323  
     0         1         5         4        0.499976323  
     0         0         5         5        0.000047353  

           0                  10            0.000047353  
           1                  9            0.999952647  


  ==> Pruning the Q space <==

  Cycle 0 took: 0.006139 s

  ---------------------------------- Cycle 1 -----------------------------------


  ==> Diagonalizing the Hamiltonian in the P space <==

  Initial P space dimension: 68
  Spin-complete dimension of the P space: 68 determinants

  ==> Computing Coupling Lists <==
  --------------------------------
        α          0.000148 s
        β          0.000144 s
        αα         0.000228 s
        ββ         0.000221 s
        αβ         0.000550 s
  --------------------------------

  Davidson-Liu solver algorithm using SigmaVectorSparseList sigma algorithm

  Performing diagonalization of the H matrix
  Found 33 roots with 2S+1 = 1 *
  Found 31 roots with 2S+1 = 3
  Found 4 roots with 2S+1 = 5
  Time spent diagonalizing H:   0.002618 s

    P-space  CI Energy Root   0        = -55.841944166829 Eh =   0.0000 eV, S^2 = 0.000000


  ==> Finding the Q space <==

  Using SR screening algorithm
  Time spent forming F space:             0.000372
  Time spent merging thread F spaces:             0.000009
  Size of F space: 0
  Time spent building sorting list: 0.000000
  Time spent building the model space: 0.000414
  Spin-complete dimension of the PQ space: 68

  ==> Diagonalizing the Hamiltonian in the P + Q space <==

  Number of reference roots: 1

  ==> Computing Coupling Lists <==
  --------------------------------
        α          0.000146 s
        β          0.000144 s
        αα         0.000227 s
        ββ         0.000220 s
        αβ         0.000614 s
  --------------------------------

  Davidson-Liu solver algorithm using SigmaVectorSparseList sigma algorithm

  Performing diagonalization of the H matrix
  Found 33 roots with 2S+1 = 1 *
  Found 31 roots with 2S+1 = 3
  Found 4 roots with 2S+1 = 5
  Total time spent diagonalizing H:   0.002580 s

    PQ-space CI Energy Root   0        = -55.841944166829 Eh =   0.0000 eV, S^2 = 0.000000
    PQ-space CI Energy + EPT2 Root   0 = -55.841944166829 Eh =   0.0000 eV

  
  GAS Contribution Analysis  
  GAS contributions root 0: 
  GAS1_A    GASI_B    GAS2_A    GAS2_B        Cont  
     1         0         4         5        0.499976323  
     0         1         5         4        0.499976323  
     0         0         5         5        0.000047353  

           0                  10            0.000047353  
           1                  9            0.999952647  

  ***** Calculation Converged *****

  ==> ACI Natural Orbitals <==


  ==> Computing Coupling Lists <==
  --------------------------------
        α          0.000147 s
        β          0.000145 s
        1B1     1.999996      1A1     1.999966      2A1     1.999260  
        1B2     1.997347      3A1     1.009512      4A1     0.990076  
        2B2     0.003842  

  ==> Excited state solver summary <==

  Iterations required:                         1
  Dimension of optimized determinant space:    68

  * Selected-CI Energy Root   0        = -55.841944166829 Eh =   0.0000 eV
  * Selected-CI Energy Root   0 + EPT2 = -55.841944166829 Eh =   0.0000 eV

  ==> Wavefunction Information <==

  Most important contributions to root   0:
    0   0.658040 0.433017134          67 |+22-220>
    1   0.658040 0.433017134          66 |-22+220>
    2   0.161418 0.026055697          65 |+22-2-+>
    3   0.161418 0.026055697          64 |-22+2+->
    4   0.136652 0.018673696          63 |-22+2-+>
    5   0.136652 0.018673696          62 |+22-2+->
    6  -0.107422 0.011539587          61 |+2-2220>
    7  -0.107422 0.011539587          60 |-2+2220>
    8  -0.087938 0.007733024          59 |+-22220>
    9  -0.087938 0.007733024          58 |-+22220>

  Saving information for root: 0

  ==> Energy Summary <==

    Multi.(2ms)  Irrep.  No.               Energy
    ---------------------------------------------
       1  (  0)    A1     0      -55.841944166829
    ---------------------------------------------

  ==> Computing Coupling Lists <==
  --------------------------------
        α          0.000000 s
        β          0.000000 s
        αα         0.000000 s
        ββ         0.000000 s
        αβ         0.000000 s
  --------------------------------

  ==> Computing Coupling Lists <==
  --------------------------------
        α          0.000146 s
        β          0.000145 s
  1-RDM  took 0.000482 s (determinant)
        αα         0.000231 s
        ββ         0.000222 s
        αβ         0.000558 s
  --------------------------------
  2-RDMS took 0.001266 s (determinant)

  ==> Optimizing Orbitals for Current RDMs <==

  L-BFGS Iter:  1; fx =  -56.235444615991163; g_norm = 6.328217e-01; step = 6.364e-01
  L-BFGS Iter:  2; fx =  -56.267387074212230; g_norm = 1.671452e-01; step = 1.000e+00
  L-BFGS Iter:  3; fx =  -56.268518535842126; g_norm = 6.701013e-02; step = 1.000e+00
  L-BFGS Iter:  4; fx =  -56.268846333135684; g_norm = 2.223734e-02; step = 1.000e+00
  L-BFGS Iter:  5; fx =  -56.269104890607053; g_norm = 3.585250e-02; step = 1.000e+00
  L-BFGS Iter:  6; fx =  -56.270036605518357; g_norm = 7.637380e-02; step = 1.000e+00
  L-BFGS Iter:  7; fx =  -56.270709823979857; g_norm = 6.696637e-02; step = 1.000e+00
  L-BFGS Iter:  8; fx =  -56.270983371814509; g_norm = 3.561821e-02; step = 1.000e+00
  L-BFGS Iter:  9; fx =  -56.271050783213553; g_norm = 9.240773e-03; step = 1.000e+00
  L-BFGS Iter: 10; fx =  -56.271058155104768; g_norm = 5.211996e-03; step = 1.000e+00
  L-BFGS Iter: 11; fx =  -56.271062074216950; g_norm = 5.152926e-03; step = 1.000e+00
  L-BFGS Iter: 12; fx =  -56.271089149438851; g_norm = 7.820298e-03; step = 1.000e+00
  L-BFGS Iter: 13; fx =  -56.271100883031266; g_norm = 7.060137e-03; step = 1.000e+00
  L-BFGS Iter: 14; fx =  -56.271106987318412; g_norm = 2.733667e-03; step = 1.000e+00
  L-BFGS Iter: 15; fx =  -56.271107899920999; g_norm = 2.733667e-03; step = 1.000e+00

  ==> MCSCF Macro Iter. 1 <==

             Energy CI (  Delta E  )         Energy Opt. (  Delta E  )  E_OPT - E_CI   Orbital RMS  Micro  DIIS
      -55.841944166829 (-5.5842e+01)    -56.271107899921 (-5.6271e+01)   -4.2916e-01    4.4941e-04   15/N

  ==> Summary of Active Space Solver Input <==

    Irrep.  Multi.(2ms)      N
    --------------------------
       A1      1  (  0)      1
    --------------------------
    N: number of roots
    ms: spin z component
    Total number of roots:   1
    --------------------------


-------------------------------------------------------------------------------
               Selected Configuration Interaction Excited States
  written by Jeffrey B. Schriber, Tianyuan Zhang and Francesco A. Evangelista
-------------------------------------------------------------------------------

  ==> Reference Information <==

  ==> Calculation Information <==

  -----------------------------------------------------------------
    Multiplicity                             1    
    Symmetry                                 0    
    Number of roots                          1    
    Ms                                       0
    Excited Algorithm                        NONE
  -----------------------------------------------------------------
  Using 1 threads
  Computing wavefunction for root 0

        ---------------------------------------------------------------
                      Adaptive Configuration Interaction
          written by Jeffrey B. Schriber and Francesco A. Evangelista
        ---------------------------------------------------------------

  ==> Reference Information <==

  There are 0 frozen orbitals.
  There are 7 active orbitals.

  ==> Calculation Information <==

  -----------------------------------------------------------------
    Multiplicity                             1    
    Symmetry                                 0    
    Number of roots                          1    
    Root used for properties                 0    
    Sigma (Eh)                               0.00e+00
    Gamma (Eh^(-1))                          1.00e+00
    Convergence threshold                    1.00e-09
    Ms                                       0
    Diagonalization algorithm                SPARSE
    Excited Algorithm                        NONE
    Project out spin contaminants            True
    Enforce spin completeness of basis       True
    Enforce complete aimed selection         True
  -----------------------------------------------------------------
  Number of active alpha electrons: 5
  Number of active beta electrons: 5
  Maximum reference space size: 1000
  The maximum number of electrons in GAS1 is 1
  The minimum number of electrons in GAS1 is 0
  The maximum number of electrons in GAS2 is 10 
  The minimum number of electrons in GAS2 is 0
  
  Possible electron occupations in the GAS 
  GAS1_A  GAS1_B  GAS2_A  GAS2_B  
     1       0       4       5    
     0       1       5       4    
     0       0       5       5    

  GAS Orbital Energies
  GAS   Energies    Orb 
  1  -20.568999574  0 
  2  -1.320609273  1 
  2  -0.563930450  2 
  2   0.202465902  3 
  2  -0.495003944  4 
  2  -0.678724187  5 
  2   0.292719335  6 

  ---------------------------------- Cycle 0 -----------------------------------


  ==> Diagonalizing the Hamiltonian in the P space <==

  Initial P space dimension: 68
  Spin-complete dimension of the P space: 68 determinants

  ==> Computing Coupling Lists <==
  --------------------------------
        α          0.000153 s
        β          0.000151 s
        αα         0.000232 s
        ββ         0.000225 s
        αβ         0.000569 s
  --------------------------------

  Davidson-Liu solver algorithm using SigmaVectorSparseList sigma algorithm

  Performing diagonalization of the H matrix
  Found 33 roots with 2S+1 = 1 *
  Found 31 roots with 2S+1 = 3
  Found 4 roots with 2S+1 = 5
  Time spent diagonalizing H:   0.002563 s

    P-space  CI Energy Root   0        = -56.289078825172 Eh =   0.0000 eV, S^2 = 0.000000


  ==> Finding the Q space <==

  Using SR screening algorithm
  Time spent forming F space:             0.000406
  Time spent merging thread F spaces:             0.000009
  Size of F space: 0
  Time spent building sorting list: 0.000000
  Time spent building the model space: 0.000450
  Spin-complete dimension of the PQ space: 68

  ==> Diagonalizing the Hamiltonian in the P + Q space <==

  Number of reference roots: 1

  ==> Computing Coupling Lists <==
  --------------------------------
        α          0.000149 s
        β          0.000150 s
        αα         0.000231 s
        ββ         0.000229 s
        αβ         0.000563 s
  --------------------------------

  Davidson-Liu solver algorithm using SigmaVectorSparseList sigma algorithm

  Performing diagonalization of the H matrix
  Found 33 roots with 2S+1 = 1 *
  Found 31 roots with 2S+1 = 3
  Found 4 roots with 2S+1 = 5
  Total time spent diagonalizing H:   0.002505 s

    PQ-space CI Energy Root   0        = -56.289078825172 Eh =   0.0000 eV, S^2 = 0.000000
    PQ-space CI Energy + EPT2 Root   0 = -56.289078825172 Eh =   0.0000 eV

  
  GAS Contribution Analysis  
  GAS contributions root 0: 
  GAS1_A    GASI_B    GAS2_A    GAS2_B        Cont  
     1         0         4         5        0.499971022  
     0         1         5         4        0.499971022  
     0         0         5         5        0.000057957  

           0                  10            0.000057957  
           1                  9            0.999942043  


  ==> Pruning the Q space <==

  Cycle 0 took: 0.006090 s

  ---------------------------------- Cycle 1 -----------------------------------


  ==> Diagonalizing the Hamiltonian in the P space <==

  Initial P space dimension: 68
  Spin-complete dimension of the P space: 68 determinants

  ==> Computing Coupling Lists <==
  --------------------------------
        α          0.000152 s
        β          0.000149 s
        αα         0.000234 s
        ββ         0.000228 s
        αβ         0.000571 s
  --------------------------------

  Davidson-Liu solver algorithm using SigmaVectorSparseList sigma algorithm

  Performing diagonalization of the H matrix
  Found 33 roots with 2S+1 = 1 *
  Found 31 roots with 2S+1 = 3
  Found 4 roots with 2S+1 = 5
  Time spent diagonalizing H:   0.002549 s

    P-space  CI Energy Root   0        = -56.289078825172 Eh =   0.0000 eV, S^2 = 0.000000


  ==> Finding the Q space <==

  Using SR screening algorithm
  Time spent forming F space:             0.000382
  Time spent merging thread F spaces:             0.000009
  Size of F space: 0
  Time spent building sorting list: 0.000000
  Time spent building the model space: 0.000426
  Spin-complete dimension of the PQ space: 68

  ==> Diagonalizing the Hamiltonian in the P + Q space <==

  Number of reference roots: 1

  ==> Computing Coupling Lists <==
  --------------------------------
        α          0.000151 s
        β          0.000150 s
        αα         0.000235 s
        ββ         0.000227 s
        αβ         0.000569 s
  --------------------------------

  Davidson-Liu solver algorithm using SigmaVectorSparseList sigma algorithm

  Performing diagonalization of the H matrix
  Found 33 roots with 2S+1 = 1 *
  Found 31 roots with 2S+1 = 3
  Found 4 roots with 2S+1 = 5
  Total time spent diagonalizing H:   0.002550 s

    PQ-space CI Energy Root   0        = -56.289078825172 Eh =   0.0000 eV, S^2 = 0.000000
    PQ-space CI Energy + EPT2 Root   0 = -56.289078825172 Eh =   0.0000 eV

  
  GAS Contribution Analysis  
  GAS contributions root 0: 
  GAS1_A    GASI_B    GAS2_A    GAS2_B        Cont  
     1         0         4         5        0.499971022  
     0         1         5         4        0.499971022  
     0         0         5         5        0.000057957  

           0                  10            0.000057957  
           1                  9            0.999942043  

  ***** Calculation Converged *****

  ==> ACI Natural Orbitals <==


  ==> Computing Coupling Lists <==
  --------------------------------
        α          0.000154 s
        β          0.000154 s
        1B1     1.999901      1A1     1.999552      2A1     1.996969  
        1B2     1.976002      3A1     1.010960      4A1     0.989745  
        2B2     0.026871  

  ==> Excited state solver summary <==

  Iterations required:                         1
  Dimension of optimized determinant space:    68

  * Selected-CI Energy Root   0        = -56.289078825172 Eh =   0.0000 eV
  * Selected-CI Energy Root   0 + EPT2 = -56.289078825172 Eh =   0.0000 eV

  ==> Wavefunction Information <==

  Most important contributions to root   0:
    0  -0.664897 0.442088131          67 |+22-220>
    1  -0.664897 0.442088131          66 |-22+220>
    2  -0.157145 0.024694424          65 |-22+2+->
    3  -0.157145 0.024694424          64 |+22-2-+>
    4  -0.107118 0.011474242          63 |-22+2-+>
    5  -0.107118 0.011474242          62 |+22-2+->
    6   0.100204 0.010040837          61 |+2-2220>
    7   0.100204 0.010040837          60 |-2+2220>
    8   0.079845 0.006375288          59 |+-22220>
    9   0.079845 0.006375288          58 |-+22220>

  Saving information for root: 0

  ==> Energy Summary <==

    Multi.(2ms)  Irrep.  No.               Energy
    ---------------------------------------------
       1  (  0)    A1     0      -56.289078825172
    ---------------------------------------------

  ==> Computing Coupling Lists <==
  --------------------------------
        α          0.000000 s
        β          0.000000 s
        αα         0.000000 s
        ββ         0.000000 s
        αβ         0.000000 s
  --------------------------------

  ==> Computing Coupling Lists <==
  --------------------------------
        α          0.000154 s
        β          0.000152 s
  1-RDM  took 0.000500 s (determinant)
        αα         0.000235 s
        ββ         0.000232 s
        αβ         0.000571 s
  --------------------------------
  2-RDMS took 0.001294 s (determinant)

  ==> Optimizing Orbitals for Current RDMs <==

  L-BFGS Iter:  1; fx =  -56.290588344414466; g_norm = 7.048509e-02; step = 1.000e+00
  L-BFGS Iter:  2; fx =  -56.290950599720013; g_norm = 1.890868e-02; step = 1.000e+00
  L-BFGS Iter:  3; fx =  -56.291047673135125; g_norm = 2.163435e-02; step = 1.000e+00
  L-BFGS Iter:  4; fx =  -56.291164693969421; g_norm = 1.925836e-02; step = 1.000e+00
  L-BFGS Iter:  5; fx =  -56.291203745943179; g_norm = 8.362229e-03; step = 1.000e+00
  L-BFGS Iter:  6; fx =  -56.291211823590409; g_norm = 2.523780e-03; step = 1.000e+00
  L-BFGS Iter:  7; fx =  -56.291212938436601; g_norm = 1.398088e-03; step = 1.000e+00
  L-BFGS Iter:  8; fx =  -56.291213113490592; g_norm = 8.422774e-04; step = 1.000e+00
  L-BFGS Iter:  9; fx =  -56.291213205444869; g_norm = 5.905448e-04; step = 1.000e+00
  L-BFGS Iter: 10; fx =  -56.291213296865820; g_norm = 3.170977e-04; step = 1.000e+00
  L-BFGS Iter: 11; fx =  -56.291213312599950; g_norm = 1.492338e-04; step = 1.000e+00
  L-BFGS Iter: 12; fx =  -56.291213315582105; g_norm = 6.482315e-05; step = 1.000e+00
  L-BFGS Iter: 13; fx =  -56.291213315957435; g_norm = 2.732788e-05; step = 1.000e+00
  L-BFGS Iter: 14; fx =  -56.291213316122708; g_norm = 1.873590e-05; step = 1.000e+00
  L-BFGS Iter: 15; fx =  -56.291213316293273; g_norm = 1.873590e-05; step = 1.000e+00

  ==> MCSCF Macro Iter. 2 <==

             Energy CI (  Delta E  )         Energy Opt. (  Delta E  )  E_OPT - E_CI   Orbital RMS  Micro  DIIS
      -56.289078825172 (-4.4713e-01)    -56.291213316293 (-2.0105e-02)   -2.1345e-03    4.4877e-04   15/N   S

  ==> Summary of Active Space Solver Input <==

    Irrep.  Multi.(2ms)      N
    --------------------------
       A1      1  (  0)      1
    --------------------------
    N: number of roots
    ms: spin z component
    Total number of roots:   1
    --------------------------


-------------------------------------------------------------------------------
               Selected Configuration Interaction Excited States
  written by Jeffrey B. Schriber, Tianyuan Zhang and Francesco A. Evangelista
-------------------------------------------------------------------------------

  ==> Reference Information <==

  ==> Calculation Information <==

  -----------------------------------------------------------------
    Multiplicity                             1    
    Symmetry                                 0    
    Number of roots                          1    
    Ms                                       0
    Excited Algorithm                        NONE
  -----------------------------------------------------------------
  Using 1 threads
  Computing wavefunction for root 0

        ---------------------------------------------------------------
                      Adaptive Configuration Interaction
          written by Jeffrey B. Schriber and Francesco A. Evangelista
        ---------------------------------------------------------------

  ==> Reference Information <==

  There are 0 frozen orbitals.
  There are 7 active orbitals.

  ==> Calculation Information <==

  -----------------------------------------------------------------
    Multiplicity                             1    
    Symmetry                                 0    
    Number of roots                          1    
    Root used for properties                 0    
    Sigma (Eh)                               0.00e+00
    Gamma (Eh^(-1))                          1.00e+00
    Convergence threshold                    1.00e-09
    Ms                                       0
    Diagonalization algorithm                SPARSE
    Excited Algorithm                        NONE
    Project out spin contaminants            True
    Enforce spin completeness of basis       True
    Enforce complete aimed selection         True
  -----------------------------------------------------------------
  Number of active alpha electrons: 5
  Number of active beta electrons: 5
  Maximum reference space size: 1000
  The maximum number of electrons in GAS1 is 1
  The minimum number of electrons in GAS1 is 0
  The maximum number of electrons in GAS2 is 10 
  The minimum number of electrons in GAS2 is 0
  
  Possible electron occupations in the GAS 
  GAS1_A  GAS1_B  GAS2_A  GAS2_B  
     1       0       4       5    
     0       1       5       4    
     0       0       5       5    

  GAS Orbital Energies
  GAS   Energies    Orb 
  1  -20.568999574  0 
  2  -1.320609273  1 
  2  -0.563930450  2 
  2   0.202465902  3 
  2  -0.495003944  4 
  2  -0.678724187  5 
  2   0.292719335  6 

  ---------------------------------- Cycle 0 -----------------------------------


  ==> Diagonalizing the Hamiltonian in the P space <==

  Initial P space dimension: 68
  Spin-complete dimension of the P space: 68 determinants

  ==> Computing Coupling Lists <==
  --------------------------------
        α          0.000140 s
        β          0.000143 s
        αα         0.000228 s
        ββ         0.000227 s
        αβ         0.000553 s
  --------------------------------

  Davidson-Liu solver algorithm using SigmaVectorSparseList sigma algorithm

  Performing diagonalization of the H matrix
  Found 33 roots with 2S+1 = 1 *
  Found 31 roots with 2S+1 = 3
  Found 4 roots with 2S+1 = 5
  Time spent diagonalizing H:   0.002491 s

    P-space  CI Energy Root   0        = -56.291768720343 Eh =   0.0000 eV, S^2 = 0.000000


  ==> Finding the Q space <==

  Using SR screening algorithm
  Time spent forming F space:             0.000346
  Time spent merging thread F spaces:             0.000009
  Size of F space: 0
  Time spent building sorting list: 0.000000
  Time spent building the model space: 0.000390
  Spin-complete dimension of the PQ space: 68

  ==> Diagonalizing the Hamiltonian in the P + Q space <==

  Number of reference roots: 1

  ==> Computing Coupling Lists <==
  --------------------------------
        α          0.000137 s
        β          0.000143 s
        αα         0.000226 s
        ββ         0.000223 s
        αβ         0.000641 s
  --------------------------------

  Davidson-Liu solver algorithm using SigmaVectorSparseList sigma algorithm

  Performing diagonalization of the H matrix
  Found 33 roots with 2S+1 = 1 *
  Found 31 roots with 2S+1 = 3
  Found 4 roots with 2S+1 = 5
  Total time spent diagonalizing H:   0.002531 s

    PQ-space CI Energy Root   0        = -56.291768720343 Eh =   0.0000 eV, S^2 = 0.000000
    PQ-space CI Energy + EPT2 Root   0 = -56.291768720343 Eh =   0.0000 eV

  
  GAS Contribution Analysis  
  GAS contributions root 0: 
  GAS1_A    GASI_B    GAS2_A    GAS2_B        Cont  
     1         0         4         5        0.499970171  
     0         1         5         4        0.499970171  
     0         0         5         5        0.000059659  

           0                  10            0.000059659  
           1                  9            0.999940341  


  ==> Pruning the Q space <==

  Cycle 0 took: 0.005972 s

  ---------------------------------- Cycle 1 -----------------------------------


  ==> Diagonalizing the Hamiltonian in the P space <==

  Initial P space dimension: 68
  Spin-complete dimension of the P space: 68 determinants

  ==> Computing Coupling Lists <==
  --------------------------------
        α          0.000136 s
        β          0.000143 s
        αα         0.000226 s
        ββ         0.000244 s
        αβ         0.000640 s
  --------------------------------

  Davidson-Liu solver algorithm using SigmaVectorSparseList sigma algorithm

  Performing diagonalization of the H matrix
  Found 33 roots with 2S+1 = 1 *
  Found 31 roots with 2S+1 = 3
  Found 4 roots with 2S+1 = 5
  Time spent diagonalizing H:   0.002644 s

    P-space  CI Energy Root   0        = -56.291768720343 Eh =   0.0000 eV, S^2 = 0.000000


  ==> Finding the Q space <==

  Using SR screening algorithm
  Time spent forming F space:             0.000458
  Time spent merging thread F spaces:             0.000031
  Size of F space: 0
  Time spent building sorting list: 0.000000
  Time spent building the model space: 0.000543
  Spin-complete dimension of the PQ space: 68

  ==> Diagonalizing the Hamiltonian in the P + Q space <==

  Number of reference roots: 1

  ==> Computing Coupling Lists <==
  --------------------------------
        α          0.000230 s
        β          0.000258 s
        αα         0.000302 s
        ββ         0.000251 s
        αβ         0.000744 s
  --------------------------------

  Davidson-Liu solver algorithm using SigmaVectorSparseList sigma algorithm

  Performing diagonalization of the H matrix
  Found 33 roots with 2S+1 = 1 *
  Found 31 roots with 2S+1 = 3
  Found 4 roots with 2S+1 = 5
  Total time spent diagonalizing H:   0.003797 s

    PQ-space CI Energy Root   0        = -56.291768720343 Eh =   0.0000 eV, S^2 = 0.000000
    PQ-space CI Energy + EPT2 Root   0 = -56.291768720343 Eh =   0.0000 eV

  
  GAS Contribution Analysis  
  GAS contributions root 0: 
  GAS1_A    GASI_B    GAS2_A    GAS2_B        Cont  
     1         0         4         5        0.499970171  
     0         1         5         4        0.499970171  
     0         0         5         5        0.000059659  

           0                  10            0.000059659  
           1                  9            0.999940341  

  ***** Calculation Converged *****

  ==> ACI Natural Orbitals <==


  ==> Computing Coupling Lists <==
  --------------------------------
        α          0.000151 s
        β          0.000155 s
        1B1     1.999889      1A1     1.999495      2A1     1.996762  
        1B2     1.972845      3A1     1.011167      4A1     0.989665  
        2B2     0.030176  

  ==> Excited state solver summary <==

  Iterations required:                         1
  Dimension of optimized determinant space:    68

  * Selected-CI Energy Root   0        = -56.291768720343 Eh =   0.0000 eV
  * Selected-CI Energy Root   0 + EPT2 = -56.291768720343 Eh =   0.0000 eV

  ==> Wavefunction Information <==

  Most important contributions to root   0:
    0  -0.667548 0.445619668          67 |+22-220>
    1  -0.667548 0.445619668          66 |-22+220>
    2  -0.150466 0.022640113          65 |+22-2-+>
    3  -0.150466 0.022640113          64 |-22+2+->
    4   0.099297 0.009859915          63 |+2-2220>
    5   0.099297 0.009859915          62 |-2+2220>
    6  -0.095971 0.009210494          61 |-22+2-+>
    7  -0.095971 0.009210494          60 |+22-2+->
    8   0.079685 0.006349716          59 |+-22220>
    9   0.079685 0.006349716          58 |-+22220>

  Saving information for root: 0

  ==> Energy Summary <==

    Multi.(2ms)  Irrep.  No.               Energy
    ---------------------------------------------
       1  (  0)    A1     0      -56.291768720343
    ---------------------------------------------

  ==> Computing Coupling Lists <==
  --------------------------------
        α          0.000000 s
        β          0.000000 s
        αα         0.000000 s
        ββ         0.000000 s
        αβ         0.000000 s
  --------------------------------

  ==> Computing Coupling Lists <==
  --------------------------------
        α          0.000147 s
        β          0.000153 s
  1-RDM  took 0.000512 s (determinant)
        αα         0.000235 s
        ββ         0.000238 s
        αβ         0.000621 s
  --------------------------------
  2-RDMS took 0.001417 s (determinant)

  ==> Optimizing Orbitals for Current RDMs <==

  L-BFGS Iter:  1; fx =  -56.291875668729965; g_norm = 1.463535e-02; step = 1.000e+00
  L-BFGS Iter:  2; fx =  -56.291899221110654; g_norm = 6.584177e-03; step = 1.000e+00
  L-BFGS Iter:  3; fx =  -56.291911891592939; g_norm = 7.573294e-03; step = 1.000e+00
  L-BFGS Iter:  4; fx =  -56.291922561059906; g_norm = 5.694672e-03; step = 1.000e+00
  L-BFGS Iter:  5; fx =  -56.291924634059768; g_norm = 1.803219e-03; step = 1.000e+00
  L-BFGS Iter:  6; fx =  -56.291924886374467; g_norm = 3.816241e-04; step = 1.000e+00
  L-BFGS Iter:  7; fx =  -56.291924912083942; g_norm = 2.019747e-04; step = 1.000e+00
  L-BFGS Iter:  8; fx =  -56.291924920926370; g_norm = 1.633419e-04; step = 1.000e+00
  L-BFGS Iter:  9; fx =  -56.291924926231516; g_norm = 8.284509e-05; step = 1.000e+00
  L-BFGS Iter: 10; fx =  -56.291924928457547; g_norm = 5.979366e-05; step = 1.000e+00
  L-BFGS Iter: 11; fx =  -56.291924928931728; g_norm = 2.660629e-05; step = 1.000e+00
  L-BFGS Iter: 12; fx =  -56.291924929002477; g_norm = 1.153292e-05; step = 1.000e+00
  L-BFGS Iter: 13; fx =  -56.291924929028276; g_norm = 9.934272e-06; step = 1.000e+00
  L-BFGS Iter: 14; fx =  -56.291924929045301; g_norm = 5.289734e-06; step = 1.000e+00
  L-BFGS Iter: 15; fx =  -56.291924929050523; g_norm = 5.289734e-06; step = 1.000e+00

  ==> MCSCF Macro Iter. 3 <==

             Energy CI (  Delta E  )         Energy Opt. (  Delta E  )  E_OPT - E_CI   Orbital RMS  Micro  DIIS
      -56.291768720343 (-2.6899e-03)    -56.291924929051 (-7.1161e-04)   -1.5621e-04    2.6150e-06   15/N   S

  ==> Summary of Active Space Solver Input <==

    Irrep.  Multi.(2ms)      N
    --------------------------
       A1      1  (  0)      1
    --------------------------
    N: number of roots
    ms: spin z component
    Total number of roots:   1
    --------------------------


-------------------------------------------------------------------------------
               Selected Configuration Interaction Excited States
  written by Jeffrey B. Schriber, Tianyuan Zhang and Francesco A. Evangelista
-------------------------------------------------------------------------------

  ==> Reference Information <==

  ==> Calculation Information <==

  -----------------------------------------------------------------
    Multiplicity                             1    
    Symmetry                                 0    
    Number of roots                          1    
    Ms                                       0
    Excited Algorithm                        NONE
  -----------------------------------------------------------------
  Using 1 threads
  Computing wavefunction for root 0

        ---------------------------------------------------------------
                      Adaptive Configuration Interaction
          written by Jeffrey B. Schriber and Francesco A. Evangelista
        ---------------------------------------------------------------

  ==> Reference Information <==

  There are 0 frozen orbitals.
  There are 7 active orbitals.

  ==> Calculation Information <==

  -----------------------------------------------------------------
    Multiplicity                             1    
    Symmetry                                 0    
    Number of roots                          1    
    Root used for properties                 0    
    Sigma (Eh)                               0.00e+00
    Gamma (Eh^(-1))                          1.00e+00
    Convergence threshold                    1.00e-09
    Ms                                       0
    Diagonalization algorithm                SPARSE
    Excited Algorithm                        NONE
    Project out spin contaminants            True
    Enforce spin completeness of basis       True
    Enforce complete aimed selection         True
  -----------------------------------------------------------------
  Number of active alpha electrons: 5
  Number of active beta electrons: 5
  Maximum reference space size: 1000
  The maximum number of electrons in GAS1 is 1
  The minimum number of electrons in GAS1 is 0
  The maximum number of electrons in GAS2 is 10 
  The minimum number of electrons in GAS2 is 0
  
  Possible electron occupations in the GAS 
  GAS1_A  GAS1_B  GAS2_A  GAS2_B  
     1       0       4       5    
     0       1       5       4    
     0       0       5       5    

  GAS Orbital Energies
  GAS   Energies    Orb 
  1  -20.568999574  0 
  2  -1.320609273  1 
  2  -0.563930450  2 
  2   0.202465902  3 
  2  -0.495003944  4 
  2  -0.678724187  5 
  2   0.292719335  6 

  ---------------------------------- Cycle 0 -----------------------------------


  ==> Diagonalizing the Hamiltonian in the P space <==

  Initial P space dimension: 68
  Spin-complete dimension of the P space: 68 determinants

  ==> Computing Coupling Lists <==
  --------------------------------
        α          0.000164 s
        β          0.000155 s
        αα         0.000242 s
        ββ         0.000235 s
        αβ         0.000581 s
  --------------------------------

  Davidson-Liu solver algorithm using SigmaVectorSparseList sigma algorithm

  Performing diagonalization of the H matrix
  Found 33 roots with 2S+1 = 1 *
  Found 31 roots with 2S+1 = 3
  Found 4 roots with 2S+1 = 5
  Time spent diagonalizing H:   0.002648 s

    P-space  CI Energy Root   0        = -56.291970253316 Eh =   0.0000 eV, S^2 = 0.000000


  ==> Finding the Q space <==

  Using SR screening algorithm
  Time spent forming F space:             0.000363
  Time spent merging thread F spaces:             0.000009
  Size of F space: 0
  Time spent building sorting list: 0.000000
  Time spent building the model space: 0.000409
  Spin-complete dimension of the PQ space: 68

  ==> Diagonalizing the Hamiltonian in the P + Q space <==

  Number of reference roots: 1

  ==> Computing Coupling Lists <==
  --------------------------------
        α          0.000157 s
        β          0.000154 s
        αα         0.000236 s
        ββ         0.000234 s
        αβ         0.000584 s
  --------------------------------

  Davidson-Liu solver algorithm using SigmaVectorSparseList sigma algorithm

  Performing diagonalization of the H matrix
  Found 33 roots with 2S+1 = 1 *
  Found 31 roots with 2S+1 = 3
  Found 4 roots with 2S+1 = 5
  Total time spent diagonalizing H:   0.002579 s

    PQ-space CI Energy Root   0        = -56.291970253316 Eh =   0.0000 eV, S^2 = 0.000000
    PQ-space CI Energy + EPT2 Root   0 = -56.291970253316 Eh =   0.0000 eV

  
  GAS Contribution Analysis  
  GAS contributions root 0: 
  GAS1_A    GASI_B    GAS2_A    GAS2_B        Cont  
     1         0         4         5        0.499970001  
     0         1         5         4        0.499970001  
     0         0         5         5        0.000059998  

           0                  10            0.000059998  
           1                  9            0.999940002  


  ==> Pruning the Q space <==

  Cycle 0 took: 0.006221 s

  ---------------------------------- Cycle 1 -----------------------------------


  ==> Diagonalizing the Hamiltonian in the P space <==

  Initial P space dimension: 68
  Spin-complete dimension of the P space: 68 determinants

  ==> Computing Coupling Lists <==
  --------------------------------
        α          0.000161 s
        β          0.000159 s
        αα         0.000248 s
        ββ         0.000238 s
        αβ         0.000582 s
  --------------------------------

  Davidson-Liu solver algorithm using SigmaVectorSparseList sigma algorithm

  Performing diagonalization of the H matrix
  Found 33 roots with 2S+1 = 1 *
  Found 31 roots with 2S+1 = 3
  Found 4 roots with 2S+1 = 5
  Time spent diagonalizing H:   0.002618 s

    P-space  CI Energy Root   0        = -56.291970253317 Eh =   0.0000 eV, S^2 = 0.000000


  ==> Finding the Q space <==

  Using SR screening algorithm
  Time spent forming F space:             0.000383
  Time spent merging thread F spaces:             0.000009
  Size of F space: 0
  Time spent building sorting list: 0.000000
  Time spent building the model space: 0.000429
  Spin-complete dimension of the PQ space: 68

  ==> Diagonalizing the Hamiltonian in the P + Q space <==

  Number of reference roots: 1

  ==> Computing Coupling Lists <==
  --------------------------------
        α          0.000161 s
        β          0.000158 s
        αα         0.000243 s
        ββ         0.000236 s
        αβ         0.000586 s
  --------------------------------

  Davidson-Liu solver algorithm using SigmaVectorSparseList sigma algorithm

  Performing diagonalization of the H matrix
  Found 33 roots with 2S+1 = 1 *
  Found 31 roots with 2S+1 = 3
  Found 4 roots with 2S+1 = 5
  Total time spent diagonalizing H:   0.002598 s

    PQ-space CI Energy Root   0        = -56.291970253317 Eh =   0.0000 eV, S^2 = 0.000000
    PQ-space CI Energy + EPT2 Root   0 = -56.291970253317 Eh =   0.0000 eV

  
  GAS Contribution Analysis  
  GAS contributions root 0: 
  GAS1_A    GASI_B    GAS2_A    GAS2_B        Cont  
     1         0         4         5        0.499970001  
     0         1         5         4        0.499970001  
     0         0         5         5        0.000059998  

           0                  10            0.000059998  
           1                  9            0.999940002  

  ***** Calculation Converged *****

  ==> ACI Natural Orbitals <==


  ==> Computing Coupling Lists <==
  --------------------------------
        α          0.000160 s
        β          0.000158 s
        1B1     1.999888      1A1     1.999484      2A1     1.996639  
        1B2     1.971923      3A1     1.011195      4A1     0.989635  
        2B2     0.031236  

  ==> Excited state solver summary <==

  Iterations required:                         1
  Dimension of optimized determinant space:    68

  * Selected-CI Energy Root   0        = -56.291970253317 Eh =   0.0000 eV
  * Selected-CI Energy Root   0 + EPT2 = -56.291970253317 Eh =   0.0000 eV

  ==> Wavefunction Information <==

  Most important contributions to root   0:
    0   0.668235 0.446537420          67 |+22-220>
    1   0.668235 0.446537420          66 |-22+220>
    2   0.148600 0.022081997          65 |-22+2+->
    3   0.148600 0.022081997          64 |+22-2-+>
    4  -0.098920 0.009785150          63 |+2-2220>
    5  -0.098920 0.009785150          62 |-2+2220>
    6   0.092723 0.008597562          61 |-22+2-+>
    7   0.092723 0.008597562          60 |+22-2+->
    8  -0.079621 0.006339455          59 |+-22220>
    9  -0.079621 0.006339455          58 |-+22220>

  Saving information for root: 0

  ==> Energy Summary <==

    Multi.(2ms)  Irrep.  No.               Energy
    ---------------------------------------------
       1  (  0)    A1     0      -56.291970253317
    ---------------------------------------------

  ==> Computing Coupling Lists <==
  --------------------------------
        α          0.000000 s
        β          0.000000 s
        αα         0.000000 s
        ββ         0.000000 s
        αβ         0.000000 s
  --------------------------------

  ==> Computing Coupling Lists <==
  --------------------------------
        α          0.000154 s
        β          0.000154 s
  1-RDM  took 0.000513 s (determinant)
        αα         0.000240 s
        ββ         0.000236 s
        αβ         0.000592 s
  --------------------------------
  2-RDMS took 0.001353 s (determinant)

  ==> Optimizing Orbitals for Current RDMs <==

  L-BFGS Iter:  1; fx =  -56.291978807653763; g_norm = 3.964392e-03; step = 1.000e+00
  L-BFGS Iter:  2; fx =  -56.291980813118720; g_norm = 2.072724e-03; step = 1.000e+00
  L-BFGS Iter:  3; fx =  -56.291982187637501; g_norm = 2.333039e-03; step = 1.000e+00
  L-BFGS Iter:  4; fx =  -56.291983009043228; g_norm = 1.579423e-03; step = 1.000e+00
  L-BFGS Iter:  5; fx =  -56.291983169384380; g_norm = 4.772952e-04; step = 1.000e+00
  L-BFGS Iter:  6; fx =  -56.291983188059071; g_norm = 9.856025e-05; step = 1.000e+00
  L-BFGS Iter:  7; fx =  -56.291983190220222; g_norm = 6.403933e-05; step = 1.000e+00
  L-BFGS Iter:  8; fx =  -56.291983191016676; g_norm = 4.344320e-05; step = 1.000e+00
  L-BFGS Iter:  9; fx =  -56.291983191487944; g_norm = 2.594635e-05; step = 1.000e+00
  L-BFGS Iter: 10; fx =  -56.291983191652392; g_norm = 1.487379e-05; step = 1.000e+00
  L-BFGS Iter: 11; fx =  -56.291983191683677; g_norm = 5.472213e-06; step = 1.000e+00
  L-BFGS Iter: 12; fx =  -56.291983191688431; g_norm = 3.783380e-06; step = 1.000e+00
  L-BFGS Iter: 13; fx =  -56.291983191690314; g_norm = 2.567374e-06; step = 1.000e+00
  L-BFGS Iter: 14; fx =  -56.291983191691457; g_norm = 1.297213e-06; step = 1.000e+00
  L-BFGS Iter: 15; fx =  -56.291983191691756; g_norm = 1.297213e-06; step = 1.000e+00

  ==> MCSCF Macro Iter. 4 <==

             Energy CI (  Delta E  )         Energy Opt. (  Delta E  )  E_OPT - E_CI   Orbital RMS  Micro  DIIS
      -56.291970253317 (-2.0153e-04)    -56.291983191692 (-5.8263e-05)   -1.2938e-05    6.6547e-07   15/N   S/E

  ==> Summary of Active Space Solver Input <==

    Irrep.  Multi.(2ms)      N
    --------------------------
       A1      1  (  0)      1
    --------------------------
    N: number of roots
    ms: spin z component
    Total number of roots:   1
    --------------------------


-------------------------------------------------------------------------------
               Selected Configuration Interaction Excited States
  written by Jeffrey B. Schriber, Tianyuan Zhang and Francesco A. Evangelista
-------------------------------------------------------------------------------

  ==> Reference Information <==

  ==> Calculation Information <==

  -----------------------------------------------------------------
    Multiplicity                             1    
    Symmetry                                 0    
    Number of roots                          1    
    Ms                                       0
    Excited Algorithm                        NONE
  -----------------------------------------------------------------
  Using 1 threads
  Computing wavefunction for root 0

        ---------------------------------------------------------------
                      Adaptive Configuration Interaction
          written by Jeffrey B. Schriber and Francesco A. Evangelista
        ---------------------------------------------------------------

  ==> Reference Information <==

  There are 0 frozen orbitals.
  There are 7 active orbitals.

  ==> Calculation Information <==

  -----------------------------------------------------------------
    Multiplicity                             1    
    Symmetry                                 0    
    Number of roots                          1    
    Root used for properties                 0    
    Sigma (Eh)                               0.00e+00
    Gamma (Eh^(-1))                          1.00e+00
    Convergence threshold                    1.00e-09
    Ms                                       0
    Diagonalization algorithm                SPARSE
    Excited Algorithm                        NONE
    Project out spin contaminants            True
    Enforce spin completeness of basis       True
    Enforce complete aimed selection         True
  -----------------------------------------------------------------
  Number of active alpha electrons: 5
  Number of active beta electrons: 5
  Maximum reference space size: 1000
  The maximum number of electrons in GAS1 is 1
  The minimum number of electrons in GAS1 is 0
  The maximum number of electrons in GAS2 is 10 
  The minimum number of electrons in GAS2 is 0
  
  Possible electron occupations in the GAS 
  GAS1_A  GAS1_B  GAS2_A  GAS2_B  
     1       0       4       5    
     0       1       5       4    
     0       0       5       5    

  GAS Orbital Energies
  GAS   Energies    Orb 
  1  -20.568999574  0 
  2  -1.320609273  1 
  2  -0.563930450  2 
  2   0.202465902  3 
  2  -0.495003944  4 
  2  -0.678724187  5 
  2   0.292719335  6 

  ---------------------------------- Cycle 0 -----------------------------------


  ==> Diagonalizing the Hamiltonian in the P space <==

  Initial P space dimension: 68
  Spin-complete dimension of the P space: 68 determinants

  ==> Computing Coupling Lists <==
  --------------------------------
        α          0.000147 s
        β          0.000150 s
        αα         0.000241 s
        ββ         0.000238 s
        αβ         0.000582 s
  --------------------------------

  Davidson-Liu solver algorithm using SigmaVectorSparseList sigma algorithm

  Performing diagonalization of the H matrix
  Found 33 roots with 2S+1 = 1 *
  Found 31 roots with 2S+1 = 3
  Found 4 roots with 2S+1 = 5
  Time spent diagonalizing H:   0.002601 s

    P-space  CI Energy Root   0        = -56.291988395758 Eh =   0.0000 eV, S^2 = 0.000000


  ==> Finding the Q space <==

  Using SR screening algorithm
  Time spent forming F space:             0.000366
  Time spent merging thread F spaces:             0.000010
  Size of F space: 0
  Time spent building sorting list: 0.000000
  Time spent building the model space: 0.000412
  Spin-complete dimension of the PQ space: 68

  ==> Diagonalizing the Hamiltonian in the P + Q space <==

  Number of reference roots: 1

  ==> Computing Coupling Lists <==
  --------------------------------
        α          0.000145 s
        β          0.000150 s
        αα         0.000242 s
        ββ         0.000242 s
        αβ         0.000584 s
  --------------------------------

  Davidson-Liu solver algorithm using SigmaVectorSparseList sigma algorithm

  Performing diagonalization of the H matrix
  Found 33 roots with 2S+1 = 1 *
  Found 31 roots with 2S+1 = 3
  Found 4 roots with 2S+1 = 5
  Total time spent diagonalizing H:   0.002580 s

    PQ-space CI Energy Root   0        = -56.291988395758 Eh =   0.0000 eV, S^2 = 0.000000
    PQ-space CI Energy + EPT2 Root   0 = -56.291988395758 Eh =   0.0000 eV

  
  GAS Contribution Analysis  
  GAS contributions root 0: 
  GAS1_A    GASI_B    GAS2_A    GAS2_B        Cont  
     1         0         4         5        0.499969933  
     0         1         5         4        0.499969933  
     0         0         5         5        0.000060133  

           0                  10            0.000060133  
           1                  9            0.999939867  


  ==> Pruning the Q space <==

  Cycle 0 took: 0.006172 s

  ---------------------------------- Cycle 1 -----------------------------------


  ==> Diagonalizing the Hamiltonian in the P space <==

  Initial P space dimension: 68
  Spin-complete dimension of the P space: 68 determinants

  ==> Computing Coupling Lists <==
  --------------------------------
        α          0.000144 s
        β          0.000152 s
        αα         0.000243 s
        ββ         0.000237 s
        αβ         0.000587 s
  --------------------------------

  Davidson-Liu solver algorithm using SigmaVectorSparseList sigma algorithm

  Performing diagonalization of the H matrix
  Found 33 roots with 2S+1 = 1 *
  Found 31 roots with 2S+1 = 3
  Found 4 roots with 2S+1 = 5
  Time spent diagonalizing H:   0.002582 s

    P-space  CI Energy Root   0        = -56.291988395758 Eh =   0.0000 eV, S^2 = 0.000000


  ==> Finding the Q space <==

  Using SR screening algorithm
  Time spent forming F space:             0.000376
  Time spent merging thread F spaces:             0.000010
  Size of F space: 0
  Time spent building sorting list: 0.000000
  Time spent building the model space: 0.000433
  Spin-complete dimension of the PQ space: 68

  ==> Diagonalizing the Hamiltonian in the P + Q space <==

  Number of reference roots: 1

  ==> Computing Coupling Lists <==
  --------------------------------
        α          0.000143 s
        β          0.000150 s
        αα         0.000242 s
        ββ         0.000245 s
        αβ         0.000633 s
  --------------------------------

  Davidson-Liu solver algorithm using SigmaVectorSparseList sigma algorithm

  Performing diagonalization of the H matrix
  Found 33 roots with 2S+1 = 1 *
  Found 31 roots with 2S+1 = 3
  Found 4 roots with 2S+1 = 5
  Total time spent diagonalizing H:   0.002646 s

    PQ-space CI Energy Root   0        = -56.291988395758 Eh =   0.0000 eV, S^2 = 0.000000
    PQ-space CI Energy + EPT2 Root   0 = -56.291988395758 Eh =   0.0000 eV

  
  GAS Contribution Analysis  
  GAS contributions root 0: 
  GAS1_A    GASI_B    GAS2_A    GAS2_B        Cont  
     1         0         4         5        0.499969933  
     0         1         5         4        0.499969933  
     0         0         5         5        0.000060133  

           0                  10            0.000060133  
           1                  9            0.999939867  

  ***** Calculation Converged *****

  ==> ACI Natural Orbitals <==


  ==> Computing Coupling Lists <==
  --------------------------------
        α          0.000143 s
        β          0.000148 s
        1B1     1.999887      1A1     1.999480      2A1     1.996577  
        1B2     1.971533      3A1     1.011203      4A1     0.989619  
        2B2     0.031702  

  ==> Excited state solver summary <==

  Iterations required:                         1
  Dimension of optimized determinant space:    68

  * Selected-CI Energy Root   0        = -56.291988395758 Eh =   0.0000 eV
  * Selected-CI Energy Root   0 + EPT2 = -56.291988395758 Eh =   0.0000 eV

  ==> Wavefunction Information <==

  Most important contributions to root   0:
    0   0.668496 0.446886311          67 |+22-220>
    1   0.668496 0.446886311          66 |-22+220>
    2   0.147872 0.021866216          65 |+22-2-+>
    3   0.147872 0.021866216          64 |-22+2+->
    4  -0.098749 0.009751434          63 |+2-2220>
    5  -0.098749 0.009751434          62 |-2+2220>
    6   0.091396 0.008353172          60 |+22-2+->
    7   0.091396 0.008353172          61 |-22+2-+>
    8  -0.079593 0.006335050          59 |+-22220>
    9  -0.079593 0.006335050          58 |-+22220>

  Saving information for root: 0

  ==> Energy Summary <==

    Multi.(2ms)  Irrep.  No.               Energy
    ---------------------------------------------
       1  (  0)    A1     0      -56.291988395758
    ---------------------------------------------

  ==> Computing Coupling Lists <==
  --------------------------------
        α          0.000000 s
        β          0.000000 s
        αα         0.000000 s
        ββ         0.000000 s
        αβ         0.000000 s
  --------------------------------

  ==> Computing Coupling Lists <==
  --------------------------------
        α          0.000145 s
        β          0.000151 s
  1-RDM  took 0.000493 s (determinant)
        αα         0.000232 s
        ββ         0.000237 s
        αβ         0.000594 s
  --------------------------------
  2-RDMS took 0.001336 s (determinant)

  ==> Optimizing Orbitals for Current RDMs <==

  L-BFGS Iter:  1; fx =  -56.291988399781673; g_norm = 1.117080e-04; step = 1.000e+00
  L-BFGS Iter:  2; fx =  -56.291988400568798; g_norm = 2.149458e-05; step = 1.000e+00
  L-BFGS Iter:  3; fx =  -56.291988400672444; g_norm = 2.264485e-05; step = 1.000e+00
  L-BFGS Iter:  4; fx =  -56.291988400833468; g_norm = 1.648353e-05; step = 1.000e+00
  L-BFGS Iter:  5; fx =  -56.291988400853803; g_norm = 4.735056e-06; step = 1.000e+00
  L-BFGS Iter:  6; fx =  -56.291988400855672; g_norm = 1.185609e-06; step = 1.000e+00
  L-BFGS Iter:  7; fx =  -56.291988400855857; g_norm = 7.192249e-07; step = 1.000e+00

  ==> MCSCF Macro Iter. 5 <==

             Energy CI (  Delta E  )         Energy Opt. (  Delta E  )  E_OPT - E_CI   Orbital RMS  Micro  DIIS
      -56.291988395758 (-1.8142e-05)    -56.291988400856 (-5.2092e-06)   -5.0977e-09    2.5506e-07    7/Y   S/E

  ==> Summary of Active Space Solver Input <==

    Irrep.  Multi.(2ms)      N
    --------------------------
       A1      1  (  0)      1
    --------------------------
    N: number of roots
    ms: spin z component
    Total number of roots:   1
    --------------------------


-------------------------------------------------------------------------------
               Selected Configuration Interaction Excited States
  written by Jeffrey B. Schriber, Tianyuan Zhang and Francesco A. Evangelista
-------------------------------------------------------------------------------

  ==> Reference Information <==

  ==> Calculation Information <==

  -----------------------------------------------------------------
    Multiplicity                             1    
    Symmetry                                 0    
    Number of roots                          1    
    Ms                                       0
    Excited Algorithm                        NONE
  -----------------------------------------------------------------
  Using 1 threads
  Computing wavefunction for root 0

        ---------------------------------------------------------------
                      Adaptive Configuration Interaction
          written by Jeffrey B. Schriber and Francesco A. Evangelista
        ---------------------------------------------------------------

  ==> Reference Information <==

  There are 0 frozen orbitals.
  There are 7 active orbitals.

  ==> Calculation Information <==

  -----------------------------------------------------------------
    Multiplicity                             1    
    Symmetry                                 0    
    Number of roots                          1    
    Root used for properties                 0    
    Sigma (Eh)                               0.00e+00
    Gamma (Eh^(-1))                          1.00e+00
    Convergence threshold                    1.00e-09
    Ms                                       0
    Diagonalization algorithm                SPARSE
    Excited Algorithm                        NONE
    Project out spin contaminants            True
    Enforce spin completeness of basis       True
    Enforce complete aimed selection         True
  -----------------------------------------------------------------
  Number of active alpha electrons: 5
  Number of active beta electrons: 5
  Maximum reference space size: 1000
  The maximum number of electrons in GAS1 is 1
  The minimum number of electrons in GAS1 is 0
  The maximum number of electrons in GAS2 is 10 
  The minimum number of electrons in GAS2 is 0
  
  Possible electron occupations in the GAS 
  GAS1_A  GAS1_B  GAS2_A  GAS2_B  
     1       0       4       5    
     0       1       5       4    
     0       0       5       5    

  GAS Orbital Energies
  GAS   Energies    Orb 
  1  -20.568999574  0 
  2  -1.320609273  1 
  2  -0.563930450  2 
  2   0.202465902  3 
  2  -0.495003944  4 
  2  -0.678724187  5 
  2   0.292719335  6 

  ---------------------------------- Cycle 0 -----------------------------------


  ==> Diagonalizing the Hamiltonian in the P space <==

  Initial P space dimension: 68
  Spin-complete dimension of the P space: 68 determinants

  ==> Computing Coupling Lists <==
  --------------------------------
        α          0.000160 s
        β          0.000156 s
        αα         0.000241 s
        ββ         0.000233 s
        αβ         0.000583 s
  --------------------------------

  Davidson-Liu solver algorithm using SigmaVectorSparseList sigma algorithm

  Performing diagonalization of the H matrix
  Found 33 roots with 2S+1 = 1 *
  Found 31 roots with 2S+1 = 3
  Found 4 roots with 2S+1 = 5
  Time spent diagonalizing H:   0.002614 s

    P-space  CI Energy Root   0        = -56.291988402537 Eh =   0.0000 eV, S^2 = 0.000000


  ==> Finding the Q space <==

  Using SR screening algorithm
  Time spent forming F space:             0.000366
  Time spent merging thread F spaces:             0.000008
  Size of F space: 0
  Time spent building sorting list: 0.000000
  Time spent building the model space: 0.000412
  Spin-complete dimension of the PQ space: 68

  ==> Diagonalizing the Hamiltonian in the P + Q space <==

  Number of reference roots: 1

  ==> Computing Coupling Lists <==
  --------------------------------
        α          0.000158 s
        β          0.000152 s
        αα         0.000237 s
        ββ         0.000232 s
        αβ         0.000576 s
  --------------------------------

  Davidson-Liu solver algorithm using SigmaVectorSparseList sigma algorithm

  Performing diagonalization of the H matrix
  Found 33 roots with 2S+1 = 1 *
  Found 31 roots with 2S+1 = 3
  Found 4 roots with 2S+1 = 5
  Total time spent diagonalizing H:   0.002611 s

    PQ-space CI Energy Root   0        = -56.291988402537 Eh =   0.0000 eV, S^2 = 0.000000
    PQ-space CI Energy + EPT2 Root   0 = -56.291988402537 Eh =   0.0000 eV

  
  GAS Contribution Analysis  
  GAS contributions root 0: 
  GAS1_A    GASI_B    GAS2_A    GAS2_B        Cont  
     1         0         4         5        0.499969935  
     0         1         5         4        0.499969935  
     0         0         5         5        0.000060131  

           0                  10            0.000060131  
           1                  9            0.999939869  


  ==> Pruning the Q space <==

  Cycle 0 took: 0.006224 s

  ---------------------------------- Cycle 1 -----------------------------------


  ==> Diagonalizing the Hamiltonian in the P space <==

  Initial P space dimension: 68
  Spin-complete dimension of the P space: 68 determinants

  ==> Computing Coupling Lists <==
  --------------------------------
        α          0.000156 s
        β          0.000154 s
        αα         0.000242 s
        ββ         0.000233 s
        αβ         0.000580 s
  --------------------------------

  Davidson-Liu solver algorithm using SigmaVectorSparseList sigma algorithm

  Performing diagonalization of the H matrix
  Found 33 roots with 2S+1 = 1 *
  Found 31 roots with 2S+1 = 3
  Found 4 roots with 2S+1 = 5
  Time spent diagonalizing H:   0.002585 s

[...]
  Timing for computing conventional integrals:                0.029 s.

  ==> Summary of Active Space Solver Input <==

    Irrep.  Multi.(2ms)      N
    --------------------------
       A1      1  (  0)      1
    --------------------------
    N: number of roots
    ms: spin z component
    Total number of roots:   1
    --------------------------


-------------------------------------------------------------------------------
               Selected Configuration Interaction Excited States
  written by Jeffrey B. Schriber, Tianyuan Zhang and Francesco A. Evangelista
-------------------------------------------------------------------------------

  ==> Reference Information <==

  ==> Calculation Information <==

  -----------------------------------------------------------------
    Multiplicity                             1    
    Symmetry                                 0    
    Number of roots                          1    
    Ms                                       0
    Excited Algorithm                        NONE
  -----------------------------------------------------------------
  Using 1 threads
  Computing wavefunction for root 0

        ---------------------------------------------------------------
                      Adaptive Configuration Interaction
          written by Jeffrey B. Schriber and Francesco A. Evangelista
        ---------------------------------------------------------------

  ==> Reference Information <==

  There are 0 frozen orbitals.
  There are 7 active orbitals.

  ==> Calculation Information <==

  -----------------------------------------------------------------
    Multiplicity                             1    
    Symmetry                                 0    
    Number of roots                          1    
    Root used for properties                 0    
    Sigma (Eh)                               0.00e+00
    Gamma (Eh^(-1))                          1.00e+00
    Convergence threshold                    1.00e-09
    Ms                                       0
    Diagonalization algorithm                SPARSE
    Excited Algorithm                        NONE
    Project out spin contaminants            True
    Enforce spin completeness of basis       True
    Enforce complete aimed selection         True
  -----------------------------------------------------------------
  Number of active alpha electrons: 5
  Number of active beta electrons: 5
  Maximum reference space size: 1000
  The maximum number of electrons in GAS1 is 1
  The minimum number of electrons in GAS1 is 0
  The maximum number of electrons in GAS2 is 10 
  The minimum number of electrons in GAS2 is 0
  
  Possible electron occupations in the GAS 
  GAS1_A  GAS1_B  GAS2_A  GAS2_B  
     1       0       4       5    
     0       1       5       4    
     0       0       5       5    

  GAS Orbital Energies
  GAS   Energies    Orb 
  1  -20.568999574  0 
  2  -1.320609273  1 
  2  -0.563930450  2 
  2   0.202465902  3 
  2  -0.495003944  4 
  2  -0.678724187  5 
  2   0.292719335  6 

  ---------------------------------- Cycle 0 -----------------------------------


  ==> Diagonalizing the Hamiltonian in the P space <==

  Initial P space dimension: 68
  Spin-complete dimension of the P space: 68 determinants

  ==> Computing Coupling Lists <==
  --------------------------------
        α          0.000159 s
        β          0.000157 s
        αα         0.000234 s
        ββ         0.000228 s
        αβ         0.000577 s
  --------------------------------

  Davidson-Liu solver algorithm using SigmaVectorSparseList sigma algorithm

  Performing diagonalization of the H matrix
  Found 33 roots with 2S+1 = 1 *
  Found 31 roots with 2S+1 = 3
  Found 4 roots with 2S+1 = 5
  Time spent diagonalizing H:   0.002624 s

    P-space  CI Energy Root   0        = -56.291988402569 Eh =   0.0000 eV, S^2 = 0.000000


  ==> Finding the Q space <==

  Using SR screening algorithm
  Time spent forming F space:             0.000381
  Time spent merging thread F spaces:             0.000009
  Size of F space: 0
  Time spent building sorting list: 0.000000
  Time spent building the model space: 0.000425
  Spin-complete dimension of the PQ space: 68

  ==> Diagonalizing the Hamiltonian in the P + Q space <==

  Number of reference roots: 1

  ==> Computing Coupling Lists <==
  --------------------------------
        α          0.000156 s
        β          0.000154 s
        αα         0.000238 s
        ββ         0.000229 s
        αβ         0.000579 s
  --------------------------------

  Davidson-Liu solver algorithm using SigmaVectorSparseList sigma algorithm

  Performing diagonalization of the H matrix
  Found 33 roots with 2S+1 = 1 *
  Found 31 roots with 2S+1 = 3
  Found 4 roots with 2S+1 = 5
  Total time spent diagonalizing H:   0.002565 s

    PQ-space CI Energy Root   0        = -56.291988402569 Eh =   0.0000 eV, S^2 = 0.000000
    PQ-space CI Energy + EPT2 Root   0 = -56.291988402569 Eh =   0.0000 eV

  
  GAS Contribution Analysis  
  GAS contributions root 0: 
  GAS1_A    GASI_B    GAS2_A    GAS2_B        Cont  
     1         0         4         5        0.499969935  
     0         1         5         4        0.499969935  
     0         0         5         5        0.000060131  

           0                  10            0.000060131  
           1                  9            0.999939869  


  ==> Pruning the Q space <==

  Cycle 0 took: 0.006233 s

  ---------------------------------- Cycle 1 -----------------------------------


  ==> Diagonalizing the Hamiltonian in the P space <==

  Initial P space dimension: 68
  Spin-complete dimension of the P space: 68 determinants

  ==> Computing Coupling Lists <==
  --------------------------------
        α          0.000154 s
        β          0.000151 s
        αα         0.000237 s
        ββ         0.000231 s
        αβ         0.000585 s
  --------------------------------

  Davidson-Liu solver algorithm using SigmaVectorSparseList sigma algorithm

  Performing diagonalization of the H matrix
  Found 33 roots with 2S+1 = 1 *
  Found 31 roots with 2S+1 = 3
  Found 4 roots with 2S+1 = 5
  Time spent diagonalizing H:   0.002577 s

    P-space  CI Energy Root   0        = -56.291988402569 Eh =   0.0000 eV, S^2 = 0.000000


  ==> Finding the Q space <==

  Using SR screening algorithm
  Time spent forming F space:             0.000392
  Time spent merging thread F spaces:             0.000009
  Size of F space: 0
  Time spent building sorting list: 0.000000
  Time spent building the model space: 0.000436
  Spin-complete dimension of the PQ space: 68

  ==> Diagonalizing the Hamiltonian in the P + Q space <==

  Number of reference roots: 1

  ==> Computing Coupling Lists <==
  --------------------------------
        α          0.000150 s
        β          0.000152 s
        αα         0.000240 s
        ββ         0.000233 s
        αβ         0.000618 s
  --------------------------------

  Davidson-Liu solver algorithm using SigmaVectorSparseList sigma algorithm

  Performing diagonalization of the H matrix
  Found 33 roots with 2S+1 = 1 *
  Found 31 roots with 2S+1 = 3
  Found 4 roots with 2S+1 = 5
  Total time spent diagonalizing H:   0.002615 s

    PQ-space CI Energy Root   0        = -56.291988402569 Eh =   0.0000 eV, S^2 = 0.000000
    PQ-space CI Energy + EPT2 Root   0 = -56.291988402569 Eh =   0.0000 eV

  
  GAS Contribution Analysis  
  GAS contributions root 0: 
  GAS1_A    GASI_B    GAS2_A    GAS2_B        Cont  
     1         0         4         5        0.499969935  
     0         1         5         4        0.499969935  
     0         0         5         5        0.000060131  

           0                  10            0.000060131  
           1                  9            0.999939869  

  ***** Calculation Converged *****

  ==> ACI Natural Orbitals <==


  ==> Computing Coupling Lists <==
  --------------------------------
        α          0.000155 s
        β          0.000153 s
        1B1     1.999887      1A1     1.999480      2A1     1.996577  
        1B2     1.971538      3A1     1.011202      4A1     0.989619  
        2B2     0.031697  

  ==> Excited state solver summary <==

  Iterations required:                         1
  Dimension of optimized determinant space:    68

  * Selected-CI Energy Root   0        = -56.291988402569 Eh =   0.0000 eV
  * Selected-CI Energy Root   0 + EPT2 = -56.291988402569 Eh =   0.0000 eV

  ==> Wavefunction Information <==

  Most important contributions to root   0:
    0  -0.699012 0.488617928          67 |+22-220>
    1  -0.699012 0.488617928          66 |-22+220>
    2   0.062910 0.003957719          65 |-22+202>
    3   0.062910 0.003957719          64 |+22-202>
    4   0.059091 0.003491784          63 |+22+2-->
    5   0.059091 0.003491784          62 |-22-2++>
    6   0.036801 0.001354337          61 |-22+2-+>
    7   0.036801 0.001354337          60 |+22-2+->
    8   0.022541 0.000508115          59 |+2-0222>
    9   0.022541 0.000508115          58 |-2+0222>

  Saving information for root: 0

  ==> Energy Summary <==

    Multi.(2ms)  Irrep.  No.               Energy
    ---------------------------------------------
       1  (  0)    A1     0      -56.291988402569
    ---------------------------------------------

  ==> Computing Coupling Lists <==
  --------------------------------
        α          0.000000 s
        β          0.000000 s
        αα         0.000000 s
        ββ         0.000000 s
        αβ         0.000000 s
  --------------------------------
  Computing 3-list...     done (0.00092 s)

  ==> Computing Coupling Lists <==
  --------------------------------
        α          0.000154 s
        β          0.000155 s
  1-RDM  took 0.000513 s (determinant)
        αα         0.000243 s
        ββ         0.000235 s
        αβ         0.000578 s
  --------------------------------
  2-RDMS took 0.001314 s (determinant)
  3-RDMs took 0.003726 s (determinant)

       -----------------------------------------------------------------
                            Semi-Canonical Orbitals
         Chenyang Li, Jeffrey B. Schriber and Francesco A. Evangelista
       -----------------------------------------------------------------

  Took 0.000861 s to build Fock matrix

  ==> Checking Fock Matrix Diagonal Blocks <==

    Off-Diag. Elements       Max           2-Norm
    ------------------------------------------------
    GAS1                 0.0000000000   0.0000000000
    GAS2                 0.0000000031   0.0000000081
    RESTRICTED_UOCC      0.0000000062   0.0000000239
    ------------------------------------------------
  Integrals are about to be updated.
  Computing Conventional Integrals	Presorting SO-basis two-electron integrals.
	Sorting File: SO Ints (nn|nn) nbuckets = 1
	Constructing frozen core operators
	Starting first half-transformation.
	Sorting half-transformed integrals.
	First half integral transformation complete.
	Starting second half-transformation.
	Two-electron integral transformation complete.

  Integral transformation done. 0.01081108 s
  Reading the two-electron integrals from disk
  Size of two-electron integrals:   0.008731 GB
  Timing for conventional integral transformation:            0.026 s.
  Timing for freezing core and virtual orbitals:              0.000 s.
  Integrals update took     0.026 s.
  Rotating RDMs assuming average over spin multiplets ...
    Transformed 1 RDM.
    Transformed 2 RDM.
    Transformed 3 RDM.
  Timing for semi-canonicalizing orbitals:                    0.095 s.

    -----------------------------------------------------------------------
      Spin-Adapted Multireference Driven Similarity Renormalization Group
                            written by Chenyang Li
                                 1 OMP thread
    -----------------------------------------------------------------------

  Disclaimer:
    The spin-adapted DSRG code is largely adopted from the spin-integrated code developed by
    Chenyang Li, Kevin P. Hannon, Tianyuan Zhang, and Francesco A. Evangelista.

  ==> Multireference Driven Similarity Renormalization Group <==

    Computing Fock matrix and cleaning JK ....... Done. Timing      0.001 s
    Reading DSRG options ........................ Done. Timing      0.000 s
    Setting ambit MO space ...................... Done. Timing      0.000 s
    Initializing density cumulants .............. Done. Timing      0.000 s
    Filling Fock matrix from ForteIntegrals ..... Done. Timing      0.000 s

  ==> Density Cumulant Summary <==

             2-cumulant   3-cumulant
    --------------------------------
    max        1.473499     0.112971
    2-norm     2.253879     0.744199
    --------------------------------

  ==> Checking Semicanonical Orbitals <==

    Block                Max            Mean
    ----------------------------------------
    CORE        0.0000000000    0.0000000000
    VIRTUAL     0.0000000000    0.0000000000
    GAS1        0.0000000000    0.0000000000
    GAS2        0.0000000000    0.0000000000
    ----------------------------------------
    Orbitals are semi-canonicalized.

                  --------------------------------------------
                    MR-DSRG Second-Order Perturbation Theory
                  --------------------------------------------


  ==> Computation Information <==

    Integral type                               CONVENTIONAL
    Source operator                                 STANDARD
    Core-Virtual source type                          NORMAL
    Reference relaxation                                NONE
    Internal amplitudes                                 NONE
    State type                                  SINGLE STATE
    Flow parameter                                 1.000e+00
    Taylor expansion threshold                     1.000e-03
    Intruder amplitudes threshold                  1.000e-01
    Number of amplitudes for printing                     15


  ==> DSRG-MRPT2 Memory Information <==

    Memory assigned by the user                      1.00 GB
    Memory available for MR-DSRG                   892.79 MB
    Generalized Fock matrix                          5.20 KB
    1-, 2-, and 3-density cumulants                  0.96 MB
    2-electron (4-index) integrals                 245.00 KB
    T2 cluster amplitudes                          245.00 KB
    T1 cluster amplitudes                            1.40 KB
    Local 1- and 2-body intermediates               19.60 KB
    Max memory for local intermediates              19.60 KB
    Memory currently available                     891.33 MB

    Initializing integrals ...................... Done. Timing      0.002 s
    Allocating amplitudes ....................... Done. Timing      0.000 s
    Computing T2 amplitudes ..................... Done. Timing      0.002 s
    Computing T1 amplitudes ..................... Done. Timing      0.001 s

  ==> First-Order Excitation Amplitudes Summary <==

    Active Indices:    0    1    2    3   14   18   19
    Largest T1 amplitudes (absolute values):
        i    a                i    a                i    a
    -----------------------------------------------------------------
    [  19   24] 0.0866402 [  19   20] 0.0850736 [  19   21] 0.0587094
    [  19   23] 0.0567136 [  19   22] 0.0173793 [   3    4] 0.0130604
    [   3    5] 0.0124182 [   3   10] 0.0101607 [   0   10] 0.0066946
    [   0   11] 0.0066232 [   3    8] 0.0060905 [   3    6] 0.0059233
    [  18   20] 0.0053667 [   3   11] 0.0052374 [  18   21] 0.0049209
    -----------------------------------------------------------------
    2-Norm of T1 vector:                            0.149741198304938
    Number of nonzero elements:                                    45
    -----------------------------------------------------------------
    Largest T2 amplitudes (absolute values):
        i    j    a    b                i    j    a    b                i    j    a    b
    -----------------------------------------------------------------------------------------------
    [   0   14    0   15] 0.2630352 [   0    2    0    4] 0.2286714 [  14   14   14   15] 0.1242854
    [   2    2    2    4] 0.1067694 [   1   14    1   15] 0.1046265 [   2   14    2   15] 0.1032907
    [   0    3    0    4] 0.0998866 [  14    2   14    4] 0.0959078 [   0   18    0   21] 0.0912981
    [  18   14   18   15] 0.0900055 [   1    2    1    4] 0.0898746 [   0    1    0    5] 0.0835586
    [   0    3    0    5] 0.0830232 [   0    3    0    6] 0.0787069 [  18    2   18    4] 0.0760963
    -----------------------------------------------------------------------------------------------
    2-Norm of T2 vector:                                                          0.977770784434358
    Number of nonzero elements:                                                                8048
    -----------------------------------------------------------------------------------------------

  ==> Possible Intruders <==

    T1 amplitudes larger than 0.1000: NULL
    T2 amplitudes larger than 0.1000:
     Amplitudes      Value                   Denominator
    ----------------------------------------------------------------------------------------------------
    [   0   14    0   15]  -0.263035234 (-21.252783 +  -0.778421 - -21.252783 -   0.916562 =  -1.694983)
    [   0    2    0    4]   0.228671438 (-21.252783 +  -0.839286 - -21.252783 -   0.865439 =  -1.704725)
    [  14   14   14   15]  -0.124285373 ( -0.778421 +  -0.778421 -  -0.778421 -   0.916562 =  -1.694983)
    [   2    2    2    4]   0.106769398 ( -0.839286 +  -0.839286 -  -0.839286 -   0.865439 =  -1.704725)
    [   1   14    1   15]  -0.104626516 ( -1.581581 +  -0.778421 -  -1.581581 -   0.916562 =  -1.694983)
    [   2   14    2   15]  -0.103290735 ( -0.839286 +  -0.778421 -  -0.839286 -   0.916562 =  -1.694983)
    ----------------------------------------------------------------------------------------------------
    Renormalizing 2-body integrals .............. Done. Timing      0.002 s
    Renormalizing 1-body integrals .............. Done. Timing      0.001 s
    Computing <0|[Fr, T1]|0> .................... Done. Timing      0.000 s
    Computing <0|[Fr, T2]|0> .................... Done. Timing      0.000 s
    Computing <0|[Vr, T1]|0> .................... Done. Timing      0.000 s
    Computing <0|[Vr, T2]|0> .................... Done. Timing      0.006 s

  ==> DSRG-MRPT2 Energy Summary <==

    E0 (reference)                 =    -56.291988402569103
    < Phi_0 | [Fr, T1] | Phi_0 >   =     -0.007386883637546
    < Phi_0 | [Fr, T2] | Phi_0 >   =      0.001453877170270
    < Phi_0 | [Vr, T1] | Phi_0 >   =      0.001073229482916
    < Phi_0 | [Vr, T2] | Phi_0 >   =     -0.165954772121102
      - [Vr, T2] L1 contribution   =     -0.515363765713582
      - [Vr, T2] L2 contribution   =      0.349505098364076
      - [Vr, T2] L3 contribution   =     -0.000096104771597
    DSRG-MRPT2 correlation energy  =     -0.170814549105462
    DSRG-MRPT2 total energy        =    -56.462802951674568

  ==> Total Timings (s) for Computing Commutators <==

             [H1, T1]    [H1, T2]    [H2, T1]    [H2, T2]
    -----------------------------------------------------
    -> C0       0.000       0.000       0.000       0.006
    -> C1       0.000       0.000       0.000       0.000
    -> C2                   0.000       0.000       0.000
    -----------------------------------------------------


  Time to prepare integrals:        0.046 seconds
  Time to run job          :        0.143 seconds
  Total                    :        0.189 seconds    GASSCF-DSRG-MRPT2 energy..............................................................PASSED

    Psi4 stopped on: Thursday, 24 December 2020 03:08PM
    Psi4 wall time for execution: 0:00:01.40

*** Psi4 exiting successfully. Buy a developer a beer!
