
    -----------------------------------------------------------------------
          Psi4: An Open-Source Ab Initio Electronic Structure Package
                               Psi4 undefined 

                         Git: Rev {master} 45315cb dirty


    R. M. Parrish, L. A. Burns, D. G. A. Smith, A. C. Simmonett,
    A. E. DePrince III, E. G. Hohenstein, U. Bozkaya, A. Yu. Sokolov,
    R. Di Remigio, R. M. Richard, J. F. Gonthier, A. M. James,
    H. R. McAlexander, A. Kumar, M. Saitow, X. Wang, B. P. Pritchard,
    P. Verma, H. F. Schaefer III, K. Patkowski, R. A. King, E. F. Valeev,
    F. A. Evangelista, J. M. Turney, T. D. Crawford, and C. D. Sherrill,
    J. Chem. Theory Comput. 13(7) pp 3185--3197 (2017).
    (doi: 10.1021/acs.jctc.7b00174)


                         Additional Contributions by
    P. Kraus, H. Kruse, M. H. Lechner, M. C. Schieber, R. A. Shaw,
    A. Alenaizan, R. Galvelis, Z. L. Glick, S. Lehtola, and J. P. Misiewicz

    -----------------------------------------------------------------------


    Psi4 started on: Monday, 10 August 2020 07:04PM

    Process ID: 7306
    Host:       DESKTOP-SQPD2D3
    PSIDATADIR: /home/mhuang/psi4_install/share/psi4
    Memory:     500.0 MiB
    Threads:    1
    
  ==> Input File <==

--------------------------------------------------------------------------
#! Generated using commit GITCOMMIT 
# GASSCF for core-excited state with Core frozen
# Without CASSCF_FROZEN_ORBITAL this will collapse to ground state and not converge
# DSRG 

import forte

refscf = -76.0172965561 #TEST
refgasscf = -56.3135281623 #TEST
refdsrg = -56.4887062416 #TEST

memory 6000mb
molecule h2o{
   O
   H  1 1.00
   H  1 1.00 2 103.1
      }

set global {
  basis 6-31g**
  e_convergence 10
  d_convergence 10
  r_convergence 10
  guess gwh
  scf_type pk
  reference rhf
}

set scf_type direct
set forte {
  active_space_solver aci
  ms 0.0
  multiplicity 1
  sigma 0.00
  root_sym 0
  charge 0
  sci_enforce_spin_complete true
  e_convergence 6
  charge 0
  active_ref_type gas
  GAS1 [1,0,0,0]
  GAS2 [3,0,1,2]
  GAS1MAX 1
  GAS1MIN 0
  job_type casscf
  casscf_ci_solver aci
  casscf_maxiter 100
  casscf_e_convergence 1e-10
  casscf_frozen_orbital [0]
  casscf_diis_start 15
  casscf_semicanonicalize false
}

escf ,wfn = energy('scf',return_wfn = True)
egasscf,wfn_gasscf = energy('forte',ref_wfn = wfn, return_wfn = True)
compare_values(refgasscf, egasscf ,9, "GASSCF energy") #TEST

set forte {
  active_space_solver aci
  ms 0.0
  multiplicity 1
  sigma 0.00
  root_sym 0
  charge 0
  sci_enforce_spin_complete true
  e_convergence 6
  charge 0
  active_ref_type gas
  GAS1 [1,0,0,0]
  GAS2 [3,0,1,2]
  GAS1MAX 1
  GAS1MIN 0
  job_type newdriver
  correlation_solver dsrg-mrpt2
  dsrg_s 1.0
}

edsrg = energy('forte', ref_wfn = wfn_gasscf)
compare_values(refdsrg, edsrg ,9, "GASSCF-MRPT2 energy") #TEST


--------------------------------------------------------------------------

  Memory set to   5.588 GiB by Python driver.

*** tstart() called on DESKTOP-SQPD2D3
*** at Mon Aug 10 19:04:26 2020

   => Loading Basis Set <=

    Name: 6-31G**
    Role: ORBITAL
    Keyword: BASIS
    atoms 1   entry O          line   149 file /home/mhuang/psi4_install/share/psi4/basis/6-31gss.gbs 
    atoms 2-3 entry H          line    44 file /home/mhuang/psi4_install/share/psi4/basis/6-31gss.gbs 


         ---------------------------------------------------------
                                   SCF
               by Justin Turney, Rob Parrish, Andy Simmonett
                          and Daniel G. A. Smith
                              RHF Reference
                        1 Threads,   5722 MiB Core
         ---------------------------------------------------------

  ==> Geometry <==

    Molecular point group: c2v
    Full point group: C2v

    Geometry (in Angstrom), charge = 0, multiplicity = 1:

       Center              X                  Y                   Z               Mass       
    ------------   -----------------  -----------------  -----------------  -----------------
         O            0.000000000000     0.000000000000    -0.069592187400    15.994914619570
         H            0.000000000000    -0.783151105291     0.552239257834     1.007825032230
         H            0.000000000000     0.783151105291     0.552239257834     1.007825032230

  Running in c2v symmetry.

  Rotational constants: A =     24.35462  B =     13.63610  C =      8.74166 [cm^-1]
  Rotational constants: A = 730133.21529  B = 408800.04239  C = 262068.46393 [MHz]
  Nuclear repulsion =    8.804686653247025

  Charge       = 0
  Multiplicity = 1
  Electrons    = 10
  Nalpha       = 5
  Nbeta        = 5

  ==> Algorithm <==

  SCF Algorithm Type is DIRECT.
  DIIS enabled.
  MOM disabled.
  Fractional occupation disabled.
  Guess Type is GWH.
  Energy threshold   = 1.00e-10
  Density threshold  = 1.00e-10
  Integral threshold = 0.00e+00

  ==> Primary Basis <==

  Basis Set: 6-31G**
    Blend: 6-31G**
    Number of shells: 12
    Number of basis function: 25
    Number of Cartesian functions: 25
    Spherical Harmonics?: false
    Max angular momentum: 2

   => Loading Basis Set <=

    Name: (6-31G** AUX)
    Role: JKFIT
    Keyword: DF_BASIS_SCF
    atoms 1   entry O          line   221 file /home/mhuang/psi4_install/share/psi4/basis/cc-pvdz-jkfit.gbs 
    atoms 2-3 entry H          line    51 file /home/mhuang/psi4_install/share/psi4/basis/cc-pvdz-jkfit.gbs 

  Starting with a DF guess...

  ==> Pre-Iterations <==

   -------------------------------------------------------
    Irrep   Nso     Nmo     Nalpha   Nbeta   Ndocc  Nsocc
   -------------------------------------------------------
     A1        12      12       0       0       0       0
     A2         2       2       0       0       0       0
     B1         4       4       0       0       0       0
     B2         7       7       0       0       0       0
   -------------------------------------------------------
    Total      25      25       5       5       5       0
   -------------------------------------------------------

  ==> Integral Setup <==

  DFHelper Memory: AOs need 0.001 GiB; user supplied 4.191 GiB. Using in-core AOs.

  ==> MemDFJK: Density-Fitted J/K Matrices <==

    J tasked:                   Yes
    K tasked:                   Yes
    wK tasked:                   No
    OpenMP threads:               1
    Memory [MiB]:              4291
    Algorithm:                 Core
    Schwarz Cutoff:           1E-12
    Mask sparsity (%):       0.0000
    Fitting Condition:        1E-10

   => Auxiliary Basis Set <=

  Basis Set: (6-31G** AUX)
    Blend: CC-PVDZ-JKFIT
    Number of shells: 42
    Number of basis function: 131
    Number of Cartesian functions: 131
    Spherical Harmonics?: false
    Max angular momentum: 3

  Minimum eigenvalue in the overlap matrix is 2.3361254379E-02.
  Using Symmetric Orthogonalization.

  SCF Guess: Generalized Wolfsberg-Helmholtz.

  ==> Iterations <==

                           Total Energy        Delta E     RMS |[F,P]|

   @DF-RHF iter   1:   -74.69502194331288   -7.46950e+01   1.19380e-01 DIIS
   @DF-RHF iter   2:   -75.63883488360054   -9.43813e-01   7.21524e-02 DIIS
   @DF-RHF iter   3:   -76.01065330024157   -3.71818e-01   7.66497e-03 DIIS
   @DF-RHF iter   4:   -76.01705150838731   -6.39821e-03   1.07848e-03 DIIS
   @DF-RHF iter   5:   -76.01724771497869   -1.96207e-04   2.45196e-04 DIIS
   @DF-RHF iter   6:   -76.01725930217495   -1.15872e-05   5.17439e-05 DIIS
   @DF-RHF iter   7:   -76.01725996692429   -6.64749e-07   8.86755e-06 DIIS
   @DF-RHF iter   8:   -76.01725998300749   -1.60832e-08   1.68546e-06 DIIS
   @DF-RHF iter   9:   -76.01725998411105   -1.10356e-09   3.99731e-07 DIIS
   @DF-RHF iter  10:   -76.01725998416187   -5.08180e-11   4.32937e-08 DIIS
   @DF-RHF iter  11:   -76.01725998416215   -2.84217e-13   4.33252e-09 DIIS
   @DF-RHF iter  12:   -76.01725998416219   -4.26326e-14   4.75419e-10 DIIS
   @DF-RHF iter  13:   -76.01725998416219    0.00000e+00   4.32052e-11 DIIS

  DF guess converged.

  ==> DirectJK: Integral-Direct J/K Matrices <==

    J tasked:                  Yes
    K tasked:                  Yes
    wK tasked:                  No
    Integrals threads:           1
    Schwarz Cutoff:          1E-12

   @RHF iter  14:   -76.01729654450098   -7.60173e+01   1.19915e-05 DIIS
   @RHF iter  15:   -76.01729655577871   -1.12777e-08   1.64017e-06 DIIS
   @RHF iter  16:   -76.01729655606735   -2.88637e-10   4.89639e-07 DIIS
   @RHF iter  17:   -76.01729655608835   -2.10036e-11   1.68507e-07 DIIS
   @RHF iter  18:   -76.01729655609128   -2.92744e-12   4.58642e-08 DIIS
   @RHF iter  19:   -76.01729655609157   -2.84217e-13   5.21060e-09 DIIS
   @RHF iter  20:   -76.01729655609157    0.00000e+00   7.84812e-10 DIIS
   @RHF iter  21:   -76.01729655609158   -1.42109e-14   1.27029e-10 DIIS
   @RHF iter  22:   -76.01729655609158    0.00000e+00   2.82298e-11 DIIS
  Energy and wave function converged.


  ==> Post-Iterations <==

    Orbital Energies [Eh]
    ---------------------

    Doubly Occupied:                                                      

       1A1   -20.569000     2A1    -1.320609     1B2    -0.678724  
       3A1    -0.563930     1B1    -0.495004  

    Virtual:                                                              

       4A1     0.202466     2B2     0.292719     3B2     0.981164  
       5A1     1.056318     6A1     1.129179     2B1     1.168639  
       4B2     1.294985     7A1     1.413596     1A2     1.802875  
       8A1     1.806916     3B1     1.918871     9A1     2.513249  
       5B2     2.537822     6B2     2.713577     2A2     2.921065  
       4B1     2.947486    10A1     3.291755    11A1     3.620730  
       7B2     3.874917    12A1     4.077740  

    Final Occupation by Irrep:
             A1    A2    B1    B2 
    DOCC [     3,    0,    1,    1 ]

  @RHF Final Energy:   -76.01729655609158

   => Energetics <=

    Nuclear Repulsion Energy =              8.8046866532470247
    One-Electron Energy =                -122.3894315645718791
    Two-Electron Energy =                  37.5674483552332887
    Total Energy =                        -76.0172965560915657

Computation Completed


Properties will be evaluated at   0.000000,   0.000000,   0.000000 [a0]

Properties computed using the SCF density matrix

  Nuclear Dipole Moment: [e a0]
     X:     0.0000      Y:     0.0000      Z:     1.0351

  Electronic Dipole Moment: [e a0]
     X:     0.0000      Y:     0.0000      Z:    -0.1532

  Dipole Moment: [e a0]
     X:     0.0000      Y:     0.0000      Z:     0.8819     Total:     0.8819

  Dipole Moment: [D]
     X:     0.0000      Y:     0.0000      Z:     2.2414     Total:     2.2414


*** tstop() called on DESKTOP-SQPD2D3 at Mon Aug 10 19:04:27 2020
Module time:
	user time   =       0.36 seconds =       0.01 minutes
	system time =       0.03 seconds =       0.00 minutes
	total time  =          1 seconds =       0.02 minutes
Total time:
	user time   =       0.36 seconds =       0.01 minutes
	system time =       0.03 seconds =       0.00 minutes
	total time  =          1 seconds =       0.02 minutes

  Forte
  ----------------------------------------------------------------------------
  A suite of quantum chemistry methods for strongly correlated electrons

    git branch: gas-ci - git commit: a29807d6

  Developed by:
    Francesco A. Evangelista, Chenyang Li, Kevin P. Hannon,
    Jeffrey B. Schriber, Tianyuan Zhang, Chenxi Cai,
    Nan He, Nicholas Stair, Shuhe Wang, Renke Huang
  ----------------------------------------------------------------------------

  Size of Determinant class: 128 bits
  Preparing forte objects from a psi4 Wavefunction object   => Loading Basis Set <=

    Name: STO-3G
    Role: ORBITAL
    Keyword: MINAO_BASIS
    atoms 1   entry O          line    81 file /home/mhuang/psi4_install/share/psi4/basis/sto-3g.gbs 
    atoms 2-3 entry H          line    19 file /home/mhuang/psi4_install/share/psi4/basis/sto-3g.gbs 


  Read options for space GAS1
  Read options for space GAS2
  Read options for space GAS1
  Read options for space GAS2

  ==> MO Space Information <==

  -------------------------------------------------
                       A1    A2    B1    B2   Sum
  -------------------------------------------------
    FROZEN_DOCC         0     0     0     0     0
    RESTRICTED_DOCC     0     0     0     0     0
    GAS1                1     0     0     0     1
    GAS2                3     0     1     2     6
    GAS3                0     0     0     0     0
    GAS4                0     0     0     0     0
    GAS5                0     0     0     0     0
    GAS6                0     0     0     0     0
    RESTRICTED_UOCC     8     2     3     5    18
    FROZEN_UOCC         0     0     0     0     0
    Total              12     2     4     7    25
  -------------------------------------------------
  Forte will use psi4 integrals

  ==> Integral Transformation <==

  Number of molecular orbitals:                    25
  Number of correlated molecular orbitals:         25
  Number of frozen occupied orbitals:               0
  Number of frozen unoccupied orbitals:             0
  Two-electron integral type:              Conventional


  Overall Conventional Integrals timings


  Computing Conventional Integrals	Presorting SO-basis two-electron integrals.
	Sorting File: SO Ints (nn|nn) nbuckets = 1
	Transforming the one-electron integrals and constructing Fock matrices
	Starting first half-transformation.
	Sorting half-transformed integrals.
	First half integral transformation complete.
	Starting second half-transformation.
	Two-electron integral transformation complete.

  Integral transformation done. 0.04546040 s
  Reading the two-electron integrals from disk
  Size of two-electron integrals:   0.008731 GB
  Timing for conventional integral transformation:            0.089 s.
  Timing for freezing core and virtual orbitals:              0.000 s.
  Conventional integrals take 0.08947100 s

                -----------------------------------------------
                  Complete Active Space Self Consistent Field
                                 Kevin Hannon
                -----------------------------------------------
  Using in-core PK algorithm.
   Calculation information:
      Number of atoms:                   3
      Number of AO shells:              12
      Number of primitives:             25
      Number of atomic orbitals:        25
      Number of basis functions:        25

      Integral cutoff                 1.00e-12
      Number of threads:                 1

  Performing in-core PK
  Using 105950 doubles for integral storage.
  We computed 3081 shell quartets total.
  Whereas there are 3081 unique shell quartets.


    JK takes 0.02787 s

  ==> CASSCF Iteration <==

  iter    ||g||           Delta_E            E_CASSCF       CONV_TYPE

  Transform Integrals takes 0.00674640 s.

  Performing a CAS with ACI

  ==> Summary of Active Space Solver Input <==

    Irrep.  Multi.(2ms)      N
    --------------------------
       A1      1  (  0)      1
    --------------------------
    N: number of roots
    ms: spin z component
    Total number of roots:   1
    --------------------------


-------------------------------------------------------------------------------
               Selected Configuration Interaction Excited States
  written by Jeffrey B. Schriber, Tianyuan Zhang and Francesco A. Evangelista
-------------------------------------------------------------------------------

  ==> Reference Information <==

  ==> Calculation Information <==

  -----------------------------------------------------------------
    Multiplicity                             1    
    Symmetry                                 0    
    Number of roots                          1    
    Ms                                       0
    Excited Algorithm                        NONE
  -----------------------------------------------------------------
  Using 1 threads
  Computing wavefunction for root 0

        ---------------------------------------------------------------
                      Adaptive Configuration Interaction
          written by Jeffrey B. Schriber and Francesco A. Evangelista
        ---------------------------------------------------------------

  ==> Reference Information <==

  There are 0 frozen orbitals.
  There are 7 active orbitals.

  ==> Calculation Information <==

  -----------------------------------------------------------------
    Multiplicity                             1    
    Symmetry                                 0    
    Number of roots                          1    
    Root used for properties                 0    
    Sigma (Eh)                               0.00e+00
    Gamma (Eh^(-1))                          1.00e+00
    Convergence threshold                    1.00e-09
    Ms                                       0
    Diagonalization algorithm                SPARSE
    Excited Algorithm                        NONE
    Project out spin contaminants            True
    Enforce spin completeness of basis       True
    Enforce complete aimed selection         True
  -----------------------------------------------------------------
  Number of active alpha electrons: 5
  Number of active beta electrons: 5
  Maximum reference space size: 1000
  The maximum number of electrons in GAS1 is 1
  The minimum number of electrons in GAS1 is 0
  The maximum number of electrons in GAS2 is 10 
  The minimum number of electrons in GAS2 is 0
  
  Possible electron occupations in the GAS 
  GAS1_A  GAS1_B  GAS2_A  GAS2_B  
     1       0       4       5    
     0       1       5       4    
     0       0       5       5    

  GAS Orbital Energies
  GAS   Energies    Orb 
  1  -20.568999574  0 
  2  -1.320609273  1 
  2  -0.563930450  2 
  2   0.202465902  3 
  2  -0.495003944  4 
  2  -0.678724187  5 
  2   0.292719335  6 

  ---------------------------------- Cycle 0 -----------------------------------


  ==> Diagonalizing the Hamiltonian in the P space <==

  Initial P space dimension: 68
  Spin-complete dimension of the P space: 68 determinants

  ==> Computing Coupling Lists <==
  --------------------------------
        α          0.000115 s
        β          0.000082 s
        αα         0.000126 s
        ββ         0.000101 s
        αβ         0.000249 s
  --------------------------------

  Davidson-Liu solver algorithm using SigmaVectorSparseList sigma algorithm

  Performing diagonalization of the H matrix
  Time spent diagonalizing H:   0.002110 s

    P-space  CI Energy Root   0        = -55.853959647456 Eh =   0.0000 eV, S^2 = 2.000000


  ==> Finding the Q space <==

  Using SR screening algorithm
  Time spent forming F space:             0.000294
  Time spent merging thread F spaces:             0.000020
  size of hash: 0
  Time spent building sorting list: 0.000021
  Size of F space: 0
  Time spent building the model space: 0.000414
  Spin-complete dimension of the PQ space: 68

  ==> Diagonalizing the Hamiltonian in the P + Q space <==

  Number of reference roots: 1

  ==> Computing Coupling Lists <==
  --------------------------------
        α          0.000059 s
        β          0.000060 s
        αα         0.000134 s
        ββ         0.000116 s
        αβ         0.000255 s
  --------------------------------

  Davidson-Liu solver algorithm using SigmaVectorSparseList sigma algorithm

  Performing diagonalization of the H matrix
  Total time spent diagonalizing H:   0.001904 s

    PQ-space CI Energy Root   0        = -55.853959647456 Eh =   0.0000 eV, S^2 = 2.000000
    PQ-space CI Energy + EPT2 Root   0 = -55.853959647456 Eh =   0.0000 eV

  
  GAS Contribution Analysis  
  GAS contributions root 0: 
  GAS1_A    GASI_B    GAS2_A    GAS2_B        Cont  
     1         0         4         5        0.499999974  
     0         1         5         4        0.499999974  
     0         0         5         5        0.000000053  

           0                  10            0.000000053  
           1                  9            0.999999947  


  ==> Pruning the Q space <==

  Cycle 0 took: 0.005432 s

  ---------------------------------- Cycle 1 -----------------------------------


  ==> Diagonalizing the Hamiltonian in the P space <==

  Initial P space dimension: 68
  Spin-complete dimension of the P space: 68 determinants

  ==> Computing Coupling Lists <==
  --------------------------------
        α          0.000129 s
        β          0.000125 s
        αα         0.000205 s
        ββ         0.000295 s
        αβ         0.000507 s
  --------------------------------

  Davidson-Liu solver algorithm using SigmaVectorSparseList sigma algorithm

  Performing diagonalization of the H matrix
  Time spent diagonalizing H:   0.003052 s

    P-space  CI Energy Root   0        = -55.853959647456 Eh =   0.0000 eV, S^2 = 2.000000


  ==> Finding the Q space <==

  Using SR screening algorithm
  Time spent forming F space:             0.000511
  Time spent merging thread F spaces:             0.000015
  size of hash: 0
  Time spent building sorting list: 0.000017
  Size of F space: 0
  Time spent building the model space: 0.000656
  Spin-complete dimension of the PQ space: 68

  ==> Diagonalizing the Hamiltonian in the P + Q space <==

  Number of reference roots: 1

  ==> Computing Coupling Lists <==
  --------------------------------
        α          0.000131 s
        β          0.000131 s
        αα         0.000207 s
        ββ         0.000449 s
        αβ         0.000634 s
  --------------------------------

  Davidson-Liu solver algorithm using SigmaVectorSparseList sigma algorithm

  Performing diagonalization of the H matrix
  Total time spent diagonalizing H:   0.003439 s

    PQ-space CI Energy Root   0        = -55.853959647456 Eh =   0.0000 eV, S^2 = 2.000000
    PQ-space CI Energy + EPT2 Root   0 = -55.853959647456 Eh =   0.0000 eV

  
  GAS Contribution Analysis  
  GAS contributions root 0: 
  GAS1_A    GASI_B    GAS2_A    GAS2_B        Cont  
     1         0         4         5        0.499999974  
     0         1         5         4        0.499999974  
     0         0         5         5        0.000000053  

           0                  10            0.000000053  
           1                  9            0.999999947  

  ***** Calculation Converged *****

  ==> ACI Natural Orbitals <==


  ==> Computing Coupling Lists <==
  --------------------------------
        α          0.000060 s
        β          0.000059 s
        1B1     1.999996      1A1     1.999959      2A1     1.999152  
        1B2     1.998359      3A1     1.000000      4A1     0.999521  
        2B2     0.003014  

  ==> Excited state solver summary <==

  Iterations required:                         1
  Dimension of optimized determinant space:    68

  * Selected-CI Energy Root   0        = -55.853959647456 Eh =   0.0000 eV
  * Selected-CI Energy Root   0 + EPT2 = -55.853959647456 Eh =   0.0000 eV

  ==> Wavefunction Information <==

  Most important contributions to root   0:
    0   0.660283 0.435974253          67 |-22+220>
    1  -0.660283 0.435974253          66 |+22-220>
    2   0.163605 0.026766744          65 |-22+2+->
    3  -0.163605 0.026766744          64 |+22-2-+>
    4   0.137559 0.018922485          62 |-22+2-+>
    5  -0.137559 0.018922485          63 |+22-2+->
    6  -0.103892 0.010793649          61 |-2+2220>
    7   0.103892 0.010793649          60 |+2-2220>
    8  -0.072765 0.005294799          59 |-+22220>
    9   0.072765 0.005294799          58 |+-22220>

  Saving information for root: 0

  ==> Energy Summary <==

    Multi.(2ms)  Irrep.  No.               Energy
    ---------------------------------------------
       1  (  0)    A1     0      -55.853959647456
    ---------------------------------------------
 Weight 1.000000 

  ==> Computing Coupling Lists <==
  --------------------------------
        α          0.000001 s
        β          0.000001 s
        αα         0.000001 s
        ββ         0.000001 s
        αβ         0.000001 s
  --------------------------------

  ==> Computing Coupling Lists <==
  --------------------------------
        α          0.000059 s
        β          0.000057 s
  1-RDM  took 0.000240 s (determinant)
        αα         0.000106 s
        ββ         0.000106 s
        αβ         0.000291 s
  --------------------------------
  2-RDMS took 0.000750 s (determinant)

 CAS took 0.017285 seconds.

 FormFockIntermediates took 0.00102990 s.
  Active Orbitals Frozen:


 FormOrbitalGradient took 0.00041810 s.

 FormDiagHessian took 0.00044330 s.

 Update function takes 0.00199470 s
    1 0.240655053751   -55.853959647456   -55.853959647456    0.0 s       ~

  Transform Integrals takes 0.00677830 s.

  Performing a CAS with ACI

  ==> Summary of Active Space Solver Input <==

    Irrep.  Multi.(2ms)      N
    --------------------------
       A1      1  (  0)      1
    --------------------------
    N: number of roots
    ms: spin z component
    Total number of roots:   1
    --------------------------


-------------------------------------------------------------------------------
               Selected Configuration Interaction Excited States
  written by Jeffrey B. Schriber, Tianyuan Zhang and Francesco A. Evangelista
-------------------------------------------------------------------------------

  ==> Reference Information <==

  ==> Calculation Information <==

  -----------------------------------------------------------------
    Multiplicity                             1    
    Symmetry                                 0    
    Number of roots                          1    
    Ms                                       0
    Excited Algorithm                        NONE
  -----------------------------------------------------------------
  Using 1 threads
  Computing wavefunction for root 0

        ---------------------------------------------------------------
                      Adaptive Configuration Interaction
          written by Jeffrey B. Schriber and Francesco A. Evangelista
        ---------------------------------------------------------------

  ==> Reference Information <==

  There are 0 frozen orbitals.
  There are 7 active orbitals.

  ==> Calculation Information <==

  -----------------------------------------------------------------
    Multiplicity                             1    
    Symmetry                                 0    
    Number of roots                          1    
    Root used for properties                 0    
    Sigma (Eh)                               0.00e+00
    Gamma (Eh^(-1))                          1.00e+00
    Convergence threshold                    1.00e-09
    Ms                                       0
    Diagonalization algorithm                SPARSE
    Excited Algorithm                        NONE
    Project out spin contaminants            True
    Enforce spin completeness of basis       True
    Enforce complete aimed selection         True
  -----------------------------------------------------------------
  Number of active alpha electrons: 5
  Number of active beta electrons: 5
  Maximum reference space size: 1000
  The maximum number of electrons in GAS1 is 1
  The minimum number of electrons in GAS1 is 0
  The maximum number of electrons in GAS2 is 10 
  The minimum number of electrons in GAS2 is 0
  
  Possible electron occupations in the GAS 
  GAS1_A  GAS1_B  GAS2_A  GAS2_B  
     1       0       4       5    
     0       1       5       4    
     0       0       5       5    

  GAS Orbital Energies
  GAS   Energies    Orb 
  1  -20.568999574  0 
  2  -1.320609273  1 
  2  -0.563930450  2 
  2   0.202465902  3 
  2  -0.495003944  4 
  2  -0.678724187  5 
  2   0.292719335  6 

  ---------------------------------- Cycle 0 -----------------------------------


  ==> Diagonalizing the Hamiltonian in the P space <==

  Initial P space dimension: 68
  Spin-complete dimension of the P space: 68 determinants

  ==> Computing Coupling Lists <==
  --------------------------------
        α          0.000106 s
        β          0.000109 s
        αα         0.000237 s
        ββ         0.000173 s
        αβ         0.000263 s
  --------------------------------

  Davidson-Liu solver algorithm using SigmaVectorSparseList sigma algorithm

  Performing diagonalization of the H matrix
  Time spent diagonalizing H:   0.002236 s

    P-space  CI Energy Root   0        = -56.288514812246 Eh =   0.0000 eV, S^2 = 2.000000


  ==> Finding the Q space <==

  Using SR screening algorithm
  Time spent forming F space:             0.000348
  Time spent merging thread F spaces:             0.000009
  size of hash: 0
  Time spent building sorting list: 0.000011
  Size of F space: 0
  Time spent building the model space: 0.000428
  Spin-complete dimension of the PQ space: 68

  ==> Diagonalizing the Hamiltonian in the P + Q space <==

  Number of reference roots: 1

  ==> Computing Coupling Lists <==
  --------------------------------
        α          0.000059 s
        β          0.000059 s
        αα         0.000100 s
        ββ         0.000100 s
        αβ         0.000245 s
  --------------------------------

  Davidson-Liu solver algorithm using SigmaVectorSparseList sigma algorithm

  Performing diagonalization of the H matrix
  Total time spent diagonalizing H:   0.001697 s

    PQ-space CI Energy Root   0        = -56.288514812246 Eh =   0.0000 eV, S^2 = 2.000000
    PQ-space CI Energy + EPT2 Root   0 = -56.288514812246 Eh =   0.0000 eV

  
  GAS Contribution Analysis  
  GAS contributions root 0: 
  GAS1_A    GASI_B    GAS2_A    GAS2_B        Cont  
     1         0         4         5        0.499999590  
     0         1         5         4        0.499999590  
     0         0         5         5        0.000000821  

           0                  10            0.000000821  
           1                  9            0.999999179  


  ==> Pruning the Q space <==

  Cycle 0 took: 0.005318 s

  ---------------------------------- Cycle 1 -----------------------------------


  ==> Diagonalizing the Hamiltonian in the P space <==

  Initial P space dimension: 68
  Spin-complete dimension of the P space: 68 determinants

  ==> Computing Coupling Lists <==
  --------------------------------
        α          0.000064 s
        β          0.000061 s
        αα         0.000103 s
        ββ         0.000103 s
        αβ         0.000325 s
  --------------------------------

  Davidson-Liu solver algorithm using SigmaVectorSparseList sigma algorithm

  Performing diagonalization of the H matrix
  Time spent diagonalizing H:   0.001798 s

    P-space  CI Energy Root   0        = -56.288514812246 Eh =   0.0000 eV, S^2 = 2.000000


  ==> Finding the Q space <==

  Using SR screening algorithm
  Time spent forming F space:             0.000276
  Time spent merging thread F spaces:             0.000011
  size of hash: 0
  Time spent building sorting list: 0.000011
  Size of F space: 0
  Time spent building the model space: 0.000363
  Spin-complete dimension of the PQ space: 68

  ==> Diagonalizing the Hamiltonian in the P + Q space <==

  Number of reference roots: 1

  ==> Computing Coupling Lists <==
  --------------------------------
        α          0.000065 s
        β          0.000062 s
        αα         0.000168 s
        ββ         0.000102 s
        αβ         0.000253 s
  --------------------------------

  Davidson-Liu solver algorithm using SigmaVectorSparseList sigma algorithm

  Performing diagonalization of the H matrix
  Total time spent diagonalizing H:   0.001819 s

    PQ-space CI Energy Root   0        = -56.288514812246 Eh =   0.0000 eV, S^2 = 2.000000
    PQ-space CI Energy + EPT2 Root   0 = -56.288514812246 Eh =   0.0000 eV

  
  GAS Contribution Analysis  
  GAS contributions root 0: 
  GAS1_A    GASI_B    GAS2_A    GAS2_B        Cont  
     1         0         4         5        0.499999590  
     0         1         5         4        0.499999590  
     0         0         5         5        0.000000821  

           0                  10            0.000000821  
           1                  9            0.999999179  

  ***** Calculation Converged *****

  ==> ACI Natural Orbitals <==


  ==> Computing Coupling Lists <==
  --------------------------------
        α          0.000061 s
        β          0.000060 s
        1B1     1.999910      1A1     1.999468      2A1     1.995360  
        1B2     1.976785      3A1     1.000976      4A1     0.999998  
        2B2     0.027503  

  ==> Excited state solver summary <==

  Iterations required:                         1
  Dimension of optimized determinant space:    68

  * Selected-CI Energy Root   0        = -56.288514812246 Eh =   0.0000 eV
  * Selected-CI Energy Root   0 + EPT2 = -56.288514812246 Eh =   0.0000 eV

  ==> Wavefunction Information <==

  Most important contributions to root   0:
    0   0.679083 0.461153725          66 |+22-220>
    1  -0.679083 0.461153725          67 |-22+220>
    2   0.143813 0.020682189          64 |+22-2-+>
    3  -0.143813 0.020682189          65 |-22+2+->
    4  -0.081361 0.006619616          62 |+2-2220>
    5   0.081361 0.006619616          63 |-2+2220>
    6   0.070884 0.005024492          60 |+22-2+->
    7  -0.070884 0.005024492          61 |-22+2-+>
    8  -0.051128 0.002614030          58 |+-22220>
    9   0.051128 0.002614030          59 |-+22220>

  Saving information for root: 0

  ==> Energy Summary <==

    Multi.(2ms)  Irrep.  No.               Energy
    ---------------------------------------------
       1  (  0)    A1     0      -56.288514812246
    ---------------------------------------------
 Weight 1.000000 

  ==> Computing Coupling Lists <==
  --------------------------------
        α          0.000001 s
        β          0.000001 s
        αα         0.000001 s
        ββ         0.000001 s
        αβ         0.000001 s
  --------------------------------

  ==> Computing Coupling Lists <==
  --------------------------------
        α          0.000060 s
        β          0.000093 s
  1-RDM  took 0.000341 s (determinant)
        αα         0.000102 s
        ββ         0.000099 s
        αβ         0.000246 s
  --------------------------------
  2-RDMS took 0.000611 s (determinant)

 CAS took 0.013071 seconds.

 FormFockIntermediates took 0.00095780 s.
  Active Orbitals Frozen:


 FormOrbitalGradient took 0.00019120 s.

 FormDiagHessian took 0.00021580 s.

 Update function takes 0.00145930 s
    2 0.038194632217    -0.434555164790   -56.288514812246    0.0 s       ~

  Transform Integrals takes 0.00751990 s.

  Performing a CAS with ACI

  ==> Summary of Active Space Solver Input <==

    Irrep.  Multi.(2ms)      N
    --------------------------
       A1      1  (  0)      1
    --------------------------
    N: number of roots
    ms: spin z component
    Total number of roots:   1
    --------------------------


-------------------------------------------------------------------------------
               Selected Configuration Interaction Excited States
  written by Jeffrey B. Schriber, Tianyuan Zhang and Francesco A. Evangelista
-------------------------------------------------------------------------------

  ==> Reference Information <==

  ==> Calculation Information <==

  -----------------------------------------------------------------
    Multiplicity                             1    
    Symmetry                                 0    
    Number of roots                          1    
    Ms                                       0
    Excited Algorithm                        NONE
  -----------------------------------------------------------------
  Using 1 threads
  Computing wavefunction for root 0

        ---------------------------------------------------------------
                      Adaptive Configuration Interaction
          written by Jeffrey B. Schriber and Francesco A. Evangelista
        ---------------------------------------------------------------

  ==> Reference Information <==

  There are 0 frozen orbitals.
  There are 7 active orbitals.

  ==> Calculation Information <==

  -----------------------------------------------------------------
    Multiplicity                             1    
    Symmetry                                 0    
    Number of roots                          1    
    Root used for properties                 0    
    Sigma (Eh)                               0.00e+00
    Gamma (Eh^(-1))                          1.00e+00
    Convergence threshold                    1.00e-09
    Ms                                       0
    Diagonalization algorithm                SPARSE
    Excited Algorithm                        NONE
    Project out spin contaminants            True
    Enforce spin completeness of basis       True
    Enforce complete aimed selection         True
  -----------------------------------------------------------------
  Number of active alpha electrons: 5
  Number of active beta electrons: 5
  Maximum reference space size: 1000
  The maximum number of electrons in GAS1 is 1
  The minimum number of electrons in GAS1 is 0
  The maximum number of electrons in GAS2 is 10 
  The minimum number of electrons in GAS2 is 0
  
  Possible electron occupations in the GAS 
  GAS1_A  GAS1_B  GAS2_A  GAS2_B  
     1       0       4       5    
     0       1       5       4    
     0       0       5       5    

  GAS Orbital Energies
  GAS   Energies    Orb 
  1  -20.568999574  0 
  2  -1.320609273  1 
  2  -0.563930450  2 
  2   0.202465902  3 
  2  -0.495003944  4 
  2  -0.678724187  5 
  2   0.292719335  6 

  ---------------------------------- Cycle 0 -----------------------------------


  ==> Diagonalizing the Hamiltonian in the P space <==

  Initial P space dimension: 68
  Spin-complete dimension of the P space: 68 determinants

  ==> Computing Coupling Lists <==
  --------------------------------
        α          0.000059 s
        β          0.000060 s
        αα         0.000209 s
        ββ         0.000104 s
        αβ         0.000248 s
  --------------------------------

  Davidson-Liu solver algorithm using SigmaVectorSparseList sigma algorithm

  Performing diagonalization of the H matrix
  Time spent diagonalizing H:   0.001843 s

    P-space  CI Energy Root   0        = -56.306481250878 Eh =   0.0000 eV, S^2 = 2.000000


  ==> Finding the Q space <==

  Using SR screening algorithm
  Time spent forming F space:             0.000269
  Time spent merging thread F spaces:             0.000010
  size of hash: 0
  Time spent building sorting list: 0.000012
  Size of F space: 0
  Time spent building the model space: 0.000444
  Spin-complete dimension of the PQ space: 68

  ==> Diagonalizing the Hamiltonian in the P + Q space <==

  Number of reference roots: 1

  ==> Computing Coupling Lists <==
  --------------------------------
        α          0.000060 s
        β          0.000060 s
        αα         0.000101 s
        ββ         0.000099 s
        αβ         0.000244 s
  --------------------------------

  Davidson-Liu solver algorithm using SigmaVectorSparseList sigma algorithm

  Performing diagonalization of the H matrix
  Total time spent diagonalizing H:   0.001714 s

    PQ-space CI Energy Root   0        = -56.306481250878 Eh =   0.0000 eV, S^2 = 2.000000
    PQ-space CI Energy + EPT2 Root   0 = -56.306481250878 Eh =   0.0000 eV

  
  GAS Contribution Analysis  
  GAS contributions root 0: 
  GAS1_A    GASI_B    GAS2_A    GAS2_B        Cont  
     1         0         4         5        0.499999639  
     0         1         5         4        0.499999639  
     0         0         5         5        0.000000723  

           0                  10            0.000000723  
           1                  9            0.999999277  


  ==> Pruning the Q space <==

  Cycle 0 took: 0.004806 s

  ---------------------------------- Cycle 1 -----------------------------------


  ==> Diagonalizing the Hamiltonian in the P space <==

  Initial P space dimension: 68
  Spin-complete dimension of the P space: 68 determinants

  ==> Computing Coupling Lists <==
  --------------------------------
        α          0.000061 s
        β          0.000059 s
        αα         0.000101 s
        ββ         0.000097 s
        αβ         0.000281 s
  --------------------------------

  Davidson-Liu solver algorithm using SigmaVectorSparseList sigma algorithm

  Performing diagonalization of the H matrix
  Time spent diagonalizing H:   0.001818 s

    P-space  CI Energy Root   0        = -56.306481250878 Eh =   0.0000 eV, S^2 = 2.000000


  ==> Finding the Q space <==

  Using SR screening algorithm
  Time spent forming F space:             0.000270
  Time spent merging thread F spaces:             0.000020
  size of hash: 0
  Time spent building sorting list: 0.000010
  Size of F space: 0
  Time spent building the model space: 0.000360
  Spin-complete dimension of the PQ space: 68

  ==> Diagonalizing the Hamiltonian in the P + Q space <==

  Number of reference roots: 1

  ==> Computing Coupling Lists <==
  --------------------------------
        α          0.000076 s
        β          0.000058 s
        αα         0.000101 s
        ββ         0.000096 s
        αβ         0.000241 s
  --------------------------------

  Davidson-Liu solver algorithm using SigmaVectorSparseList sigma algorithm

  Performing diagonalization of the H matrix
  Total time spent diagonalizing H:   0.001757 s

    PQ-space CI Energy Root   0        = -56.306481250878 Eh =   0.0000 eV, S^2 = 2.000000
    PQ-space CI Energy + EPT2 Root   0 = -56.306481250878 Eh =   0.0000 eV

  
  GAS Contribution Analysis  
  GAS contributions root 0: 
  GAS1_A    GASI_B    GAS2_A    GAS2_B        Cont  
     1         0         4         5        0.499999639  
     0         1         5         4        0.499999639  
     0         0         5         5        0.000000723  

           0                  10            0.000000723  
           1                  9            0.999999277  

  ***** Calculation Converged *****

  ==> ACI Natural Orbitals <==


  ==> Computing Coupling Lists <==
  --------------------------------
        α          0.000060 s
        β          0.000058 s
        1B1     1.999925      1A1     1.999489      2A1     1.994394  
        1B2     1.981022      3A1     1.000187      4A1     0.999990  
        2B2     0.024993  

  ==> Excited state solver summary <==

  Iterations required:                         1
  Dimension of optimized determinant space:    68

  * Selected-CI Energy Root   0        = -56.306481250878 Eh =   0.0000 eV
  * Selected-CI Energy Root   0 + EPT2 = -56.306481250878 Eh =   0.0000 eV

  ==> Wavefunction Information <==

  Most important contributions to root   0:
    0   0.676681 0.457897739          66 |-22+220>
    1  -0.676681 0.457897739          67 |+22-220>
    2   0.152263 0.023184047          64 |-22+2+->
    3  -0.152263 0.023184047          65 |+22-2-+>
    4   0.082886 0.006870143          62 |-22+2-+>
    5  -0.082886 0.006870143          63 |+22-2+->
    6  -0.078282 0.006128021          60 |-2+2220>
    7   0.078282 0.006128021          61 |+2-2220>
    8  -0.049974 0.002497405          58 |-+22220>
    9   0.049974 0.002497405          59 |+-22220>

  Saving information for root: 0

  ==> Energy Summary <==

    Multi.(2ms)  Irrep.  No.               Energy
    ---------------------------------------------
       1  (  0)    A1     0      -56.306481250878
    ---------------------------------------------
 Weight 1.000000 

  ==> Computing Coupling Lists <==
  --------------------------------
        α          0.000001 s
        β          0.000001 s
        αα         0.000001 s
        ββ         0.000001 s
        αβ         0.000001 s
  --------------------------------

  ==> Computing Coupling Lists <==
  --------------------------------
        α          0.000153 s
        β          0.000172 s
  1-RDM  took 0.000738 s (determinant)
        αα         0.000219 s
        ββ         0.000134 s
        αβ         0.000251 s
  --------------------------------
  2-RDMS took 0.000876 s (determinant)

 CAS took 0.013296 seconds.

 FormFockIntermediates took 0.00093960 s.
  Active Orbitals Frozen:


 FormOrbitalGradient took 0.00022100 s.

 FormDiagHessian took 0.00020790 s.

 Update function takes 0.00144470 s
    3 0.010761737319    -0.017966438633   -56.306481250878    0.0 s       ~

  Transform Integrals takes 0.00661440 s.

  Performing a CAS with ACI

  ==> Summary of Active Space Solver Input <==

    Irrep.  Multi.(2ms)      N
    --------------------------
       A1      1  (  0)      1
    --------------------------
    N: number of roots
    ms: spin z component
    Total number of roots:   1
    --------------------------


-------------------------------------------------------------------------------
               Selected Configuration Interaction Excited States
  written by Jeffrey B. Schriber, Tianyuan Zhang and Francesco A. Evangelista
-------------------------------------------------------------------------------

  ==> Reference Information <==

  ==> Calculation Information <==

  -----------------------------------------------------------------
    Multiplicity                             1    
    Symmetry                                 0    
    Number of roots                          1    
    Ms                                       0
    Excited Algorithm                        NONE
  -----------------------------------------------------------------
  Using 1 threads
  Computing wavefunction for root 0

        ---------------------------------------------------------------
                      Adaptive Configuration Interaction
          written by Jeffrey B. Schriber and Francesco A. Evangelista
        ---------------------------------------------------------------

  ==> Reference Information <==

  There are 0 frozen orbitals.
  There are 7 active orbitals.

  ==> Calculation Information <==

  -----------------------------------------------------------------
    Multiplicity                             1    
    Symmetry                                 0    
    Number of roots                          1    
    Root used for properties                 0    
    Sigma (Eh)                               0.00e+00
    Gamma (Eh^(-1))                          1.00e+00
    Convergence threshold                    1.00e-09
    Ms                                       0
    Diagonalization algorithm                SPARSE
    Excited Algorithm                        NONE
    Project out spin contaminants            True
    Enforce spin completeness of basis       True
    Enforce complete aimed selection         True
  -----------------------------------------------------------------
  Number of active alpha electrons: 5
  Number of active beta electrons: 5
  Maximum reference space size: 1000
  The maximum number of electrons in GAS1 is 1
  The minimum number of electrons in GAS1 is 0
  The maximum number of electrons in GAS2 is 10 
  The minimum number of electrons in GAS2 is 0
  
  Possible electron occupations in the GAS 
  GAS1_A  GAS1_B  GAS2_A  GAS2_B  
     1       0       4       5    
     0       1       5       4    
     0       0       5       5    

  GAS Orbital Energies
  GAS   Energies    Orb 
  1  -20.568999574  0 
  2  -1.320609273  1 
  2  -0.563930450  2 
  2   0.202465902  3 
  2  -0.495003944  4 
  2  -0.678724187  5 
  2   0.292719335  6 

  ---------------------------------- Cycle 0 -----------------------------------


  ==> Diagonalizing the Hamiltonian in the P space <==

  Initial P space dimension: 68
  Spin-complete dimension of the P space: 68 determinants

  ==> Computing Coupling Lists <==
  --------------------------------
        α          0.000079 s
        β          0.000077 s
        αα         0.000191 s
        ββ         0.000130 s
        αβ         0.000318 s
  --------------------------------

  Davidson-Liu solver algorithm using SigmaVectorSparseList sigma algorithm

  Performing diagonalization of the H matrix
  Time spent diagonalizing H:   0.002260 s

    P-space  CI Energy Root   0        = -56.308870088865 Eh =   0.0000 eV, S^2 = 2.000000


  ==> Finding the Q space <==

  Using SR screening algorithm
  Time spent forming F space:             0.000398
  Time spent merging thread F spaces:             0.000012
  size of hash: 0
  Time spent building sorting list: 0.000014
  Size of F space: 0
  Time spent building the model space: 0.000503
  Spin-complete dimension of the PQ space: 68

  ==> Diagonalizing the Hamiltonian in the P + Q space <==

  Number of reference roots: 1

  ==> Computing Coupling Lists <==
  --------------------------------
        α          0.000083 s
        β          0.000126 s
        αα         0.000147 s
        ββ         0.000130 s
        αβ         0.000316 s
  --------------------------------

  Davidson-Liu solver algorithm using SigmaVectorSparseList sigma algorithm

  Performing diagonalization of the H matrix
  Total time spent diagonalizing H:   0.002259 s

    PQ-space CI Energy Root   0        = -56.308870088865 Eh =   0.0000 eV, S^2 = 2.000000
    PQ-space CI Energy + EPT2 Root   0 = -56.308870088865 Eh =   0.0000 eV

  
  GAS Contribution Analysis  
  GAS contributions root 0: 
  GAS1_A    GASI_B    GAS2_A    GAS2_B        Cont  
     1         0         4         5        0.499999572  
     0         1         5         4        0.499999572  
     0         0         5         5        0.000000856  

           0                  10            0.000000856  
           1                  9            0.999999144  


  ==> Pruning the Q space <==

  Cycle 0 took: 0.006116 s

  ---------------------------------- Cycle 1 -----------------------------------


  ==> Diagonalizing the Hamiltonian in the P space <==

  Initial P space dimension: 68
  Spin-complete dimension of the P space: 68 determinants

  ==> Computing Coupling Lists <==
  --------------------------------
        α          0.000081 s
        β          0.000085 s
        αα         0.000105 s
        ββ         0.000099 s
        αβ         0.000282 s
  --------------------------------

  Davidson-Liu solver algorithm using SigmaVectorSparseList sigma algorithm

  Performing diagonalization of the H matrix
  Time spent diagonalizing H:   0.001874 s

    P-space  CI Energy Root   0        = -56.308870088865 Eh =   0.0000 eV, S^2 = 2.000000


  ==> Finding the Q space <==

  Using SR screening algorithm
  Time spent forming F space:             0.000327
  Time spent merging thread F spaces:             0.000010
  size of hash: 0
  Time spent building sorting list: 0.000011
  Size of F space: 0
  Time spent building the model space: 0.000423
  Spin-complete dimension of the PQ space: 68

  ==> Diagonalizing the Hamiltonian in the P + Q space <==

  Number of reference roots: 1

  ==> Computing Coupling Lists <==
  --------------------------------
        α          0.000062 s
        β          0.000060 s
        αα         0.000104 s
        ββ         0.000098 s
        αβ         0.000248 s
  --------------------------------

  Davidson-Liu solver algorithm using SigmaVectorSparseList sigma algorithm

  Performing diagonalization of the H matrix
  Total time spent diagonalizing H:   0.001645 s

    PQ-space CI Energy Root   0        = -56.308870088865 Eh =   0.0000 eV, S^2 = 2.000000
    PQ-space CI Energy + EPT2 Root   0 = -56.308870088865 Eh =   0.0000 eV

  
  GAS Contribution Analysis  
  GAS contributions root 0: 
  GAS1_A    GASI_B    GAS2_A    GAS2_B        Cont  
     1         0         4         5        0.499999572  
     0         1         5         4        0.499999572  
     0         0         5         5        0.000000856  

           0                  10            0.000000856  
           1                  9            0.999999144  

  ***** Calculation Converged *****

  ==> ACI Natural Orbitals <==


  ==> Computing Coupling Lists <==
  --------------------------------
        α          0.000064 s
        β          0.000063 s
        1B1     1.999910      1A1     1.999424      2A1     1.994035  
        1B2     1.977998      3A1     1.000609      4A1     0.999996  
        2B2     0.028029  

  ==> Excited state solver summary <==

  Iterations required:                         1
  Dimension of optimized determinant space:    68

  * Selected-CI Energy Root   0        = -56.308870088865 Eh =   0.0000 eV
  * Selected-CI Energy Root   0 + EPT2 = -56.308870088865 Eh =   0.0000 eV

  ==> Wavefunction Information <==

  Most important contributions to root   0:
    0  -0.676687 0.457904898          67 |-22+220>
    1   0.676687 0.457904898          66 |+22-220>
    2  -0.152895 0.023376762          65 |-22+2+->
    3   0.152895 0.023376762          64 |+22-2-+>
    4  -0.080807 0.006529777          63 |-22+2-+>
    5   0.080807 0.006529777          62 |+22-2+->
    6   0.076564 0.005862020          61 |-2+2220>
    7  -0.076564 0.005862020          60 |+2-2220>
    8   0.048860 0.002387272          59 |-+22220>
    9  -0.048860 0.002387272          58 |+-22220>

  Saving information for root: 0

  ==> Energy Summary <==

    Multi.(2ms)  Irrep.  No.               Energy
    ---------------------------------------------
       1  (  0)    A1     0      -56.308870088865
    ---------------------------------------------
 Weight 1.000000 

  ==> Computing Coupling Lists <==
  --------------------------------
        α          0.000001 s
        β          0.000001 s
        αα         0.000001 s
        ββ         0.000001 s
        αβ         0.000001 s
  --------------------------------

  ==> Computing Coupling Lists <==
  --------------------------------
        α          0.000061 s
        β          0.000062 s
  1-RDM  took 0.000248 s (determinant)
        αα         0.000104 s
        ββ         0.000100 s
        αβ         0.000299 s
  --------------------------------
  2-RDMS took 0.000707 s (determinant)

 CAS took 0.014224 seconds.

 FormFockIntermediates took 0.00091110 s.
  Active Orbitals Frozen:


 FormOrbitalGradient took 0.00018880 s.

 FormDiagHessian took 0.00027750 s.

 Update function takes 0.00148030 s
    4 0.009159072419    -0.002388837987   -56.308870088865    0.0 s       ~

  Transform Integrals takes 0.00693660 s.

  Performing a CAS with ACI

  ==> Summary of Active Space Solver Input <==

    Irrep.  Multi.(2ms)      N
    --------------------------
       A1      1  (  0)      1
    --------------------------
    N: number of roots
    ms: spin z component
    Total number of roots:   1
    --------------------------


-------------------------------------------------------------------------------
               Selected Configuration Interaction Excited States
  written by Jeffrey B. Schriber, Tianyuan Zhang and Francesco A. Evangelista
-------------------------------------------------------------------------------

  ==> Reference Information <==

  ==> Calculation Information <==

  -----------------------------------------------------------------
    Multiplicity                             1    
    Symmetry                                 0    
    Number of roots                          1    
    Ms                                       0
    Excited Algorithm                        NONE
  -----------------------------------------------------------------
  Using 1 threads
  Computing wavefunction for root 0

        ---------------------------------------------------------------
                      Adaptive Configuration Interaction
          written by Jeffrey B. Schriber and Francesco A. Evangelista
        ---------------------------------------------------------------

  ==> Reference Information <==

  There are 0 frozen orbitals.
  There are 7 active orbitals.

  ==> Calculation Information <==

  -----------------------------------------------------------------
    Multiplicity                             1    
    Symmetry                                 0    
    Number of roots                          1    
    Root used for properties                 0    
    Sigma (Eh)                               0.00e+00
    Gamma (Eh^(-1))                          1.00e+00
    Convergence threshold                    1.00e-09
    Ms                                       0
    Diagonalization algorithm                SPARSE
    Excited Algorithm                        NONE
    Project out spin contaminants            True
    Enforce spin completeness of basis       True
    Enforce complete aimed selection         True
  -----------------------------------------------------------------
  Number of active alpha electrons: 5
  Number of active beta electrons: 5
  Maximum reference space size: 1000
  The maximum number of electrons in GAS1 is 1
  The minimum number of electrons in GAS1 is 0
  The maximum number of electrons in GAS2 is 10 
  The minimum number of electrons in GAS2 is 0
  
  Possible electron occupations in the GAS 
  GAS1_A  GAS1_B  GAS2_A  GAS2_B  
     1       0       4       5    
     0       1       5       4    
     0       0       5       5    

  GAS Orbital Energies
  GAS   Energies    Orb 
  1  -20.568999574  0 
  2  -1.320609273  1 
  2  -0.563930450  2 
  2   0.202465902  3 
  2  -0.495003944  4 
  2  -0.678724187  5 
  2   0.292719335  6 

  ---------------------------------- Cycle 0 -----------------------------------


  ==> Diagonalizing the Hamiltonian in the P space <==

  Initial P space dimension: 68
  Spin-complete dimension of the P space: 68 determinants

  ==> Computing Coupling Lists <==
  --------------------------------
        α          0.000059 s
        β          0.000059 s
        αα         0.000101 s
        ββ         0.000140 s
        αβ         0.000258 s
  --------------------------------

  Davidson-Liu solver algorithm using SigmaVectorSparseList sigma algorithm

  Performing diagonalization of the H matrix
  Time spent diagonalizing H:   0.001773 s

    P-space  CI Energy Root   0        = -56.310288980943 Eh =   0.0000 eV, S^2 = 2.000000


  ==> Finding the Q space <==

  Using SR screening algorithm
  Time spent forming F space:             0.000277
  Time spent merging thread F spaces:             0.000011
  size of hash: 0
  Time spent building sorting list: 0.000011
  Size of F space: 0
  Time spent building the model space: 0.000360
  Spin-complete dimension of the PQ space: 68

  ==> Diagonalizing the Hamiltonian in the P + Q space <==

  Number of reference roots: 1

  ==> Computing Coupling Lists <==
  --------------------------------
        α          0.000061 s
        β          0.000062 s
        αα         0.000105 s
        ββ         0.000102 s
        αβ         0.000260 s
  --------------------------------

  Davidson-Liu solver algorithm using SigmaVectorSparseList sigma algorithm

  Performing diagonalization of the H matrix
  Total time spent diagonalizing H:   0.001723 s

    PQ-space CI Energy Root   0        = -56.310288980943 Eh =   0.0000 eV, S^2 = 2.000000
    PQ-space CI Energy + EPT2 Root   0 = -56.310288980943 Eh =   0.0000 eV

  
  GAS Contribution Analysis  
  GAS contributions root 0: 
  GAS1_A    GASI_B    GAS2_A    GAS2_B        Cont  
     1         0         4         5        0.499999550  
     0         1         5         4        0.499999550  
     0         0         5         5        0.000000900  

           0                  10            0.000000900  
           1                  9            0.999999100  


  ==> Pruning the Q space <==

  Cycle 0 took: 0.004615 s

  ---------------------------------- Cycle 1 -----------------------------------


  ==> Diagonalizing the Hamiltonian in the P space <==

  Initial P space dimension: 68
  Spin-complete dimension of the P space: 68 determinants

  ==> Computing Coupling Lists <==
  --------------------------------
        α          0.000064 s
        β          0.000062 s
        αα         0.000106 s
        ββ         0.000102 s
        αβ         0.000254 s
  --------------------------------

  Davidson-Liu solver algorithm using SigmaVectorSparseList sigma algorithm

  Performing diagonalization of the H matrix
  Time spent diagonalizing H:   0.001698 s

    P-space  CI Energy Root   0        = -56.310288980943 Eh =   0.0000 eV, S^2 = 2.000000


  ==> Finding the Q space <==

  Using SR screening algorithm
  Time spent forming F space:             0.000281
  Time spent merging thread F spaces:             0.000010
  size of hash: 0
  Time spent building sorting list: 0.000011
  Size of F space: 0
  Time spent building the model space: 0.000365
  Spin-complete dimension of the PQ space: 68

  ==> Diagonalizing the Hamiltonian in the P + Q space <==

  Number of reference roots: 1

  ==> Computing Coupling Lists <==
  --------------------------------
        α          0.000063 s
        β          0.000063 s
        αα         0.000107 s
        ββ         0.000101 s
        αβ         0.000254 s
  --------------------------------

  Davidson-Liu solver algorithm using SigmaVectorSparseList sigma algorithm

  Performing diagonalization of the H matrix
  Total time spent diagonalizing H:   0.001727 s

    PQ-space CI Energy Root   0        = -56.310288980943 Eh =   0.0000 eV, S^2 = 2.000000
    PQ-space CI Energy + EPT2 Root   0 = -56.310288980943 Eh =   0.0000 eV

  
  GAS Contribution Analysis  
  GAS contributions root 0: 
  GAS1_A    GASI_B    GAS2_A    GAS2_B        Cont  
     1         0         4         5        0.499999550  
     0         1         5         4        0.499999550  
     0         0         5         5        0.000000900  

           0                  10            0.000000900  
           1                  9            0.999999100  

  ***** Calculation Converged *****

  ==> ACI Natural Orbitals <==


  ==> Computing Coupling Lists <==
  --------------------------------
        α          0.000064 s
        β          0.000077 s
        1B1     1.999904      1A1     1.999414      2A1     1.994085  
        1B2     1.977685      3A1     1.000679      4A1     0.999997  
        2B2     0.028235  

  ==> Excited state solver summary <==

  Iterations required:                         1
  Dimension of optimized determinant space:    68

  * Selected-CI Energy Root   0        = -56.310288980943 Eh =   0.0000 eV
  * Selected-CI Energy Root   0 + EPT2 = -56.310288980943 Eh =   0.0000 eV

  ==> Wavefunction Information <==

  Most important contributions to root   0:
    0  -0.675314 0.456049457          66 |+22-220>
    1   0.675314 0.456049457          67 |-22+220>
    2  -0.156339 0.024442028          64 |+22-2-+>
    3   0.156339 0.024442028          65 |-22+2+->
    4  -0.084841 0.007197967          62 |+22-2+->
    5   0.084841 0.007197967          63 |-22+2-+>
    6   0.077496 0.006005559          60 |+2-2220>
    7  -0.077496 0.006005559          61 |-2+2220>
    8   0.049385 0.002438878          58 |+-22220>
    9  -0.049385 0.002438878          59 |-+22220>

  Saving information for root: 0

  ==> Energy Summary <==

    Multi.(2ms)  Irrep.  No.               Energy
    ---------------------------------------------
       1  (  0)    A1     0      -56.310288980943
    ---------------------------------------------
 Weight 1.000000 

  ==> Computing Coupling Lists <==
  --------------------------------
        α          0.000001 s
        β          0.000001 s
        αα         0.000001 s
        ββ         0.000001 s
        αβ         0.000001 s
  --------------------------------

  ==> Computing Coupling Lists <==
  --------------------------------
        α          0.000064 s
        β          0.000062 s
  1-RDM  took 0.000261 s (determinant)
        αα         0.000110 s
        ββ         0.000108 s
        αβ         0.000260 s
  --------------------------------
  2-RDMS took 0.000671 s (determinant)

 CAS took 0.012195 seconds.

 FormFockIntermediates took 0.00089490 s.
  Active Orbitals Frozen:


 FormOrbitalGradient took 0.00018660 s.

 FormDiagHessian took 0.00022730 s.

 Update function takes 0.00141000 s
    5 0.006125778746    -0.001418892078   -56.310288980943    0.0 s       ~

  Transform Integrals takes 0.00763680 s.

  Performing a CAS with ACI

  ==> Summary of Active Space Solver Input <==

    Irrep.  Multi.(2ms)      N
    --------------------------
       A1      1  (  0)      1
    --------------------------
    N: number of roots
    ms: spin z component
    Total number of roots:   1
    --------------------------


-------------------------------------------------------------------------------
               Selected Configuration Interaction Excited States
  written by Jeffrey B. Schriber, Tianyuan Zhang and Francesco A. Evangelista
-------------------------------------------------------------------------------

  ==> Reference Information <==

  ==> Calculation Information <==

  -----------------------------------------------------------------
    Multiplicity                             1    
    Symmetry                                 0    
    Number of roots                          1    
    Ms                                       0
    Excited Algorithm                        NONE
  -----------------------------------------------------------------
  Using 1 threads
  Computing wavefunction for root 0

        ---------------------------------------------------------------
                      Adaptive Configuration Interaction
          written by Jeffrey B. Schriber and Francesco A. Evangelista
        ---------------------------------------------------------------

  ==> Reference Information <==

  There are 0 frozen orbitals.
  There are 7 active orbitals.

  ==> Calculation Information <==

  -----------------------------------------------------------------
    Multiplicity                             1    
    Symmetry                                 0    
    Number of roots                          1    
    Root used for properties                 0    
    Sigma (Eh)                               0.00e+00
    Gamma (Eh^(-1))                          1.00e+00
    Convergence threshold                    1.00e-09
    Ms                                       0
    Diagonalization algorithm                SPARSE
    Excited Algorithm                        NONE
    Project out spin contaminants            True
    Enforce spin completeness of basis       True
    Enforce complete aimed selection         True
  -----------------------------------------------------------------
  Number of active alpha electrons: 5
  Number of active beta electrons: 5
  Maximum reference space size: 1000
  The maximum number of electrons in GAS1 is 1
  The minimum number of electrons in GAS1 is 0
  The maximum number of electrons in GAS2 is 10 
  The minimum number of electrons in GAS2 is 0
  
  Possible electron occupations in the GAS 
  GAS1_A  GAS1_B  GAS2_A  GAS2_B  
     1       0       4       5    
     0       1       5       4    
     0       0       5       5    

  GAS Orbital Energies
  GAS   Energies    Orb 
  1  -20.568999574  0 
  2  -1.320609273  1 
  2  -0.563930450  2 
  2   0.202465902  3 
  2  -0.495003944  4 
  2  -0.678724187  5 
  2   0.292719335  6 

  ---------------------------------- Cycle 0 -----------------------------------


  ==> Diagonalizing the Hamiltonian in the P space <==

  Initial P space dimension: 68
  Spin-complete dimension of the P space: 68 determinants

  ==> Computing Coupling Lists <==
  --------------------------------
        α          0.000062 s
        β          0.000061 s
        αα         0.000102 s
        ββ         0.000166 s
        αβ         0.000304 s
  --------------------------------

  Davidson-Liu solver algorithm using SigmaVectorSparseList sigma algorithm

  Performing diagonalization of the H matrix
  Time spent diagonalizing H:   0.001887 s

    P-space  CI Energy Root   0        = -56.311190432115 Eh =   0.0000 eV, S^2 = 2.000000


  ==> Finding the Q space <==

  Using SR screening algorithm
  Time spent forming F space:             0.000293
  Time spent merging thread F spaces:             0.000009
  size of hash: 0
  Time spent building sorting list: 0.000012
  Size of F space: 0
  Time spent building the model space: 0.000375
  Spin-complete dimension of the PQ space: 68

  ==> Diagonalizing the Hamiltonian in the P + Q space <==

  Number of reference roots: 1

  ==> Computing Coupling Lists <==
  --------------------------------
        α          0.000061 s
        β          0.000060 s
        αα         0.000147 s
        ββ         0.000115 s
        αβ         0.000251 s
  --------------------------------

  Davidson-Liu solver algorithm using SigmaVectorSparseList sigma algorithm

  Performing diagonalization of the H matrix
  Total time spent diagonalizing H:   0.001829 s

    PQ-space CI Energy Root   0        = -56.311190432115 Eh =   0.0000 eV, S^2 = 2.000000
    PQ-space CI Energy + EPT2 Root   0 = -56.311190432115 Eh =   0.0000 eV

  
  GAS Contribution Analysis  
  GAS contributions root 0: 
  GAS1_A    GASI_B    GAS2_A    GAS2_B        Cont  
     1         0         4         5        0.499999525  
     0         1         5         4        0.499999525  
     0         0         5         5        0.000000951  

           0                  10            0.000000951  
           1                  9            0.999999049  


  ==> Pruning the Q space <==

  Cycle 0 took: 0.004872 s

  ---------------------------------- Cycle 1 -----------------------------------


  ==> Diagonalizing the Hamiltonian in the P space <==

  Initial P space dimension: 68
  Spin-complete dimension of the P space: 68 determinants

  ==> Computing Coupling Lists <==
  --------------------------------
        α          0.000063 s
        β          0.000061 s
        αα         0.000105 s
        ββ         0.000100 s
        αβ         0.000300 s
  --------------------------------

  Davidson-Liu solver algorithm using SigmaVectorSparseList sigma algorithm

  Performing diagonalization of the H matrix
  Time spent diagonalizing H:   0.002035 s

    P-space  CI Energy Root   0        = -56.311190432115 Eh =   0.0000 eV, S^2 = 2.000000


  ==> Finding the Q space <==

  Using SR screening algorithm
  Time spent forming F space:             0.000270
  Time spent merging thread F spaces:             0.000009
  size of hash: 0
  Time spent building sorting list: 0.000010
  Size of F space: 0
  Time spent building the model space: 0.000366
  Spin-complete dimension of the PQ space: 68

  ==> Diagonalizing the Hamiltonian in the P + Q space <==

  Number of reference roots: 1

  ==> Computing Coupling Lists <==
  --------------------------------
        α          0.000062 s
        β          0.000060 s
        αα         0.000105 s
        ββ         0.000098 s
        αβ         0.000241 s
  --------------------------------

  Davidson-Liu solver algorithm using SigmaVectorSparseList sigma algorithm

  Performing diagonalization of the H matrix
  Total time spent diagonalizing H:   0.002054 s

    PQ-space CI Energy Root   0        = -56.311190432115 Eh =   0.0000 eV, S^2 = 2.000000
    PQ-space CI Energy + EPT2 Root   0 = -56.311190432115 Eh =   0.0000 eV

  
  GAS Contribution Analysis  
  GAS contributions root 0: 
  GAS1_A    GASI_B    GAS2_A    GAS2_B        Cont  
     1         0         4         5        0.499999525  
     0         1         5         4        0.499999525  
     0         0         5         5        0.000000951  

           0                  10            0.000000951  
           1                  9            0.999999049  

  ***** Calculation Converged *****

  ==> ACI Natural Orbitals <==


  ==> Computing Coupling Lists <==
  --------------------------------
        α          0.000099 s
        β          0.000098 s
        1B1     1.999900      1A1     1.999398      2A1     1.994107  
        1B2     1.977121      3A1     1.000850      4A1     0.999997  
        2B2     0.028627  

  ==> Excited state solver summary <==

  Iterations required:                         1
  Dimension of optimized determinant space:    68

  * Selected-CI Energy Root   0        = -56.311190432115 Eh =   0.0000 eV
  * Selected-CI Energy Root   0 + EPT2 = -56.311190432115 Eh =   0.0000 eV

  ==> Wavefunction Information <==

  Most important contributions to root   0:
    0   0.674724 0.455252641          67 |-22+220>
    1  -0.674724 0.455252641          66 |+22-220>
    2   0.157914 0.024936747          65 |-22+2+->
    3  -0.157914 0.024936747          64 |+22-2-+>
    4   0.086755 0.007526345          63 |-22+2-+>
    5  -0.086755 0.007526345          62 |+22-2+->
    6  -0.077358 0.005984215          61 |-2+2220>
    7   0.077358 0.005984215          60 |+2-2220>
    8  -0.049195 0.002420111          59 |-+22220>
    9   0.049195 0.002420111          58 |+-22220>

  Saving information for root: 0

  ==> Energy Summary <==

    Multi.(2ms)  Irrep.  No.               Energy
    ---------------------------------------------
       1  (  0)    A1     0      -56.311190432115
    ---------------------------------------------
 Weight 1.000000 

  ==> Computing Coupling Lists <==
  --------------------------------
        α          0.000001 s
        β          0.000001 s
        αα         0.000001 s
        ββ         0.000001 s
        αβ         0.000001 s
  --------------------------------

  ==> Computing Coupling Lists <==
  --------------------------------
        α          0.000075 s
        β          0.000059 s
  1-RDM  took 0.000307 s (determinant)
        αα         0.000107 s
        ββ         0.000104 s
        αβ         0.000307 s
  --------------------------------
  2-RDMS took 0.000772 s (determinant)

 CAS took 0.013953 seconds.

 FormFockIntermediates took 0.00111040 s.
  Active Orbitals Frozen:


 FormOrbitalGradient took 0.00018520 s.

 FormDiagHessian took 0.00027090 s.

 Update function takes 0.00166600 s
    6 0.004750220527    -0.000901451171   -56.311190432115    0.0 s       ~

  Transform Integrals takes 0.00829690 s.

  Performing a CAS with ACI

  ==> Summary of Active Space Solver Input <==

    Irrep.  Multi.(2ms)      N
    --------------------------
       A1      1  (  0)      1
    --------------------------
    N: number of roots
    ms: spin z component
    Total number of roots:   1
    --------------------------


-------------------------------------------------------------------------------
               Selected Configuration Interaction Excited States
  written by Jeffrey B. Schriber, Tianyuan Zhang and Francesco A. Evangelista
-------------------------------------------------------------------------------

  ==> Reference Information <==

  ==> Calculation Information <==

  -----------------------------------------------------------------
    Multiplicity                             1    
    Symmetry                                 0    
    Number of roots                          1    
    Ms                                       0
    Excited Algorithm                        NONE
  -----------------------------------------------------------------
  Using 1 threads
  Computing wavefunction for root 0

        ---------------------------------------------------------------
                      Adaptive Configuration Interaction
          written by Jeffrey B. Schriber and Francesco A. Evangelista
        ---------------------------------------------------------------

  ==> Reference Information <==

  There are 0 frozen orbitals.
  There are 7 active orbitals.

  ==> Calculation Information <==

  -----------------------------------------------------------------
    Multiplicity                             1    
    Symmetry                                 0    
    Number of roots                          1    
    Root used for properties                 0    
    Sigma (Eh)                               0.00e+00
    Gamma (Eh^(-1))                          1.00e+00
    Convergence threshold                    1.00e-09
    Ms                                       0
    Diagonalization algorithm                SPARSE
    Excited Algorithm                        NONE
    Project out spin contaminants            True
    Enforce spin completeness of basis       True
    Enforce complete aimed selection         True
  -----------------------------------------------------------------
  Number of active alpha electrons: 5
  Number of active beta electrons: 5
  Maximum reference space size: 1000
  The maximum number of electrons in GAS1 is 1
  The minimum number of electrons in GAS1 is 0
  The maximum number of electrons in GAS2 is 10 
  The minimum number of electrons in GAS2 is 0
  
  Possible electron occupations in the GAS 
  GAS1_A  GAS1_B  GAS2_A  GAS2_B  
     1       0       4       5    
     0       1       5       4    
     0       0       5       5    

  GAS Orbital Energies
  GAS   Energies    Orb 
  1  -20.568999574  0 
  2  -1.320609273  1 
  2  -0.563930450  2 
  2   0.202465902  3 
  2  -0.495003944  4 
  2  -0.678724187  5 
  2   0.292719335  6 

  ---------------------------------- Cycle 0 -----------------------------------


  ==> Diagonalizing the Hamiltonian in the P space <==

  Initial P space dimension: 68
  Spin-complete dimension of the P space: 68 determinants

  ==> Computing Coupling Lists <==
  --------------------------------
        α          0.000090 s
        β          0.000062 s
        αα         0.000103 s
        ββ         0.000132 s
        αβ         0.000252 s
  --------------------------------

  Davidson-Liu solver algorithm using SigmaVectorSparseList sigma algorithm

  Performing diagonalization of the H matrix
  Time spent diagonalizing H:   0.001776 s

    P-space  CI Energy Root   0        = -56.311807890832 Eh =   0.0000 eV, S^2 = 2.000000


  ==> Finding the Q space <==

  Using SR screening algorithm
  Time spent forming F space:             0.000289
  Time spent merging thread F spaces:             0.000016
  size of hash: 0
  Time spent building sorting list: 0.000017
  Size of F space: 0
  Time spent building the model space: 0.000431
  Spin-complete dimension of the PQ space: 68

  ==> Diagonalizing the Hamiltonian in the P + Q space <==

  Number of reference roots: 1

  ==> Computing Coupling Lists <==
  --------------------------------
        α          0.000060 s
        β          0.000061 s
        αα         0.000104 s
        ββ         0.000101 s
        αβ         0.000252 s
  --------------------------------

  Davidson-Liu solver algorithm using SigmaVectorSparseList sigma algorithm

  Performing diagonalization of the H matrix
  Total time spent diagonalizing H:   0.001637 s

    PQ-space CI Energy Root   0        = -56.311807890832 Eh =   0.0000 eV, S^2 = 2.000000
    PQ-space CI Energy + EPT2 Root   0 = -56.311807890832 Eh =   0.0000 eV

  
  GAS Contribution Analysis  
  GAS contributions root 0: 
  GAS1_A    GASI_B    GAS2_A    GAS2_B        Cont  
     1         0         4         5        0.499999508  
     0         1         5         4        0.499999508  
     0         0         5         5        0.000000984  

           0                  10            0.000000984  
           1                  9            0.999999016  


  ==> Pruning the Q space <==

  Cycle 0 took: 0.004495 s

  ---------------------------------- Cycle 1 -----------------------------------


  ==> Diagonalizing the Hamiltonian in the P space <==

  Initial P space dimension: 68
  Spin-complete dimension of the P space: 68 determinants

[...]
    PQ-space CI Energy + EPT2 Root   0 = -56.313528162276 Eh =   0.0000 eV

  
  GAS Contribution Analysis  
  GAS contributions root 0: 
  GAS1_A    GASI_B    GAS2_A    GAS2_B        Cont  
     1         0         4         5        0.499999405  
     0         1         5         4        0.499999405  
     0         0         5         5        0.000001190  

           0                  10            0.000001190  
           1                  9            0.999998810  


  ==> Pruning the Q space <==

  Cycle 0 took: 0.005082 s

  ---------------------------------- Cycle 1 -----------------------------------


  ==> Diagonalizing the Hamiltonian in the P space <==

  Initial P space dimension: 68
  Spin-complete dimension of the P space: 68 determinants

  ==> Computing Coupling Lists <==
  --------------------------------
        α          0.000064 s
        β          0.000063 s
        αα         0.000107 s
        ββ         0.000116 s
        αβ         0.000250 s
  --------------------------------

  Davidson-Liu solver algorithm using SigmaVectorSparseList sigma algorithm

  Performing diagonalization of the H matrix
  Time spent diagonalizing H:   0.001697 s

    P-space  CI Energy Root   0        = -56.313528162276 Eh =   0.0000 eV, S^2 = 2.000000


  ==> Finding the Q space <==

  Using SR screening algorithm
  Time spent forming F space:             0.000302
  Time spent merging thread F spaces:             0.000009
  size of hash: 0
  Time spent building sorting list: 0.000011
  Size of F space: 0
  Time spent building the model space: 0.000391
  Spin-complete dimension of the PQ space: 68

  ==> Diagonalizing the Hamiltonian in the P + Q space <==

  Number of reference roots: 1

  ==> Computing Coupling Lists <==
  --------------------------------
        α          0.000061 s
        β          0.000059 s
        αα         0.000104 s
        ββ         0.000098 s
        αβ         0.000241 s
  --------------------------------

  Davidson-Liu solver algorithm using SigmaVectorSparseList sigma algorithm

  Performing diagonalization of the H matrix
  Total time spent diagonalizing H:   0.001566 s

    PQ-space CI Energy Root   0        = -56.313528162276 Eh =   0.0000 eV, S^2 = 2.000000
    PQ-space CI Energy + EPT2 Root   0 = -56.313528162276 Eh =   0.0000 eV

  
  GAS Contribution Analysis  
  GAS contributions root 0: 
  GAS1_A    GASI_B    GAS2_A    GAS2_B        Cont  
     1         0         4         5        0.499999405  
     0         1         5         4        0.499999405  
     0         0         5         5        0.000001190  

           0                  10            0.000001190  
           1                  9            0.999998810  

  ***** Calculation Converged *****

  ==> ACI Natural Orbitals <==


  ==> Computing Coupling Lists <==
  --------------------------------
        α          0.000061 s
        β          0.000060 s
        1B1     1.999886      1A1     1.999394      2A1     1.995295  
        1B2     1.978505      3A1     1.001567      4A1     0.999999  
        2B2     0.025354  

  ==> Excited state solver summary <==

  Iterations required:                         1
  Dimension of optimized determinant space:    68

  * Selected-CI Energy Root   0        = -56.313528162276 Eh =   0.0000 eV
  * Selected-CI Energy Root   0 + EPT2 = -56.313528162276 Eh =   0.0000 eV

  ==> Wavefunction Information <==

  Most important contributions to root   0:
    0   0.668915 0.447446962          66 |-22+220>
    1  -0.668915 0.447446962          67 |+22-220>
    2   0.170718 0.029144692          64 |-22+2+->
    3  -0.170718 0.029144692          65 |+22-2-+>
    4   0.109286 0.011943364          62 |-22+2-+>
    5  -0.109286 0.011943364          63 |+22-2+->
    6  -0.078956 0.006234077          60 |-2+2220>
    7   0.078956 0.006234077          61 |+2-2220>
    8  -0.049148 0.002415506          58 |-+22220>
    9   0.049148 0.002415506          59 |+-22220>

  Saving information for root: 0

  ==> Energy Summary <==

    Multi.(2ms)  Irrep.  No.               Energy
    ---------------------------------------------
       1  (  0)    A1     0      -56.313528162276
    ---------------------------------------------

  ==> Computing Coupling Lists <==
  --------------------------------
        α          0.000001 s
        β          0.000001 s
        αα         0.000001 s
        ββ         0.000001 s
        αβ         0.000001 s
  --------------------------------
  Computing 3-list...     done (0.00055 s)

  ==> Computing Coupling Lists <==
  --------------------------------
        α          0.000061 s
        β          0.000058 s
  1-RDM  took 0.000269 s (determinant)
        αα         0.000103 s
        ββ         0.000098 s
        αβ         0.000282 s
  --------------------------------
  2-RDMS took 0.000673 s (determinant)
  3-RDMs took 0.006756 s (determinant)

       -----------------------------------------------------------------
                            Semi-Canonical Orbitals
         Chenyang Li, Jeffrey B. Schriber and Francesco A. Evangelista
       -----------------------------------------------------------------

  Took 0.000267 s to build Fock matrix

  ==> Checking Fock Matrix Diagonal Blocks <==

    Off-Diag. Elements       Max           2-Norm
    ------------------------------------------------
    Fa GAS1              0.0000000000   0.0000000000
    Fb GAS1              0.0000000000   0.0000000000
    ------------------------------------------------
    Fa GAS2              0.2667609419   0.4498315680
    Fb GAS2              0.2667609419   0.4498315680
    ------------------------------------------------
    Fa GAS3              0.0000000000   0.0000000000
    Fb GAS3              0.0000000000   0.0000000000
    ------------------------------------------------
    Fa GAS4              0.0000000000   0.0000000000
    Fb GAS4              0.0000000000   0.0000000000
    ------------------------------------------------
    Fa GAS5              0.0000000000   0.0000000000
    Fb GAS5              0.0000000000   0.0000000000
    ------------------------------------------------
    Fa GAS6              0.0000000000   0.0000000000
    Fb GAS6              0.0000000000   0.0000000000
    ------------------------------------------------
    Fa RESTRICTED_DOCC   0.0000000000   0.0000000000
    Fb RESTRICTED_DOCC   0.0000000000   0.0000000000
    ------------------------------------------------
    Fa RESTRICTED_UOCC   0.2241086053   0.5492547851
    Fb RESTRICTED_UOCC   0.2241086053   0.5492547851
    ------------------------------------------------
  Integrals are about to be computed.
  Computing Conventional Integrals	Presorting SO-basis two-electron integrals.
	Sorting File: SO Ints (nn|nn) nbuckets = 1
	Transforming the one-electron integrals and constructing Fock matrices
	Starting first half-transformation.
	Sorting half-transformed integrals.
	First half integral transformation complete.
	Starting second half-transformation.
	Two-electron integral transformation complete.

  Integral transformation done. 0.03549050 s
  Reading the two-electron integrals from disk
  Size of two-electron integrals:   0.008731 GB
  Timing for conventional integral transformation:            0.073 s.
  Integrals are about to be updated.
  Timing for freezing core and virtual orbitals:              0.000 s.

  ==> RDMs Transformation to Semicanonical Basis <==

    Transformed 1 RDMs.
    Transformed 2 RDMs.
    Transformed 3 RDMs.
  Timing for semi-canonicalization:                           0.258 s.

  ==> Multireference Driven Similarity Renormalization Group <==

    Reading DSRG options ............................ Done
    Setting ambit MO space .......................... Done
    Preparing tensors for density cumulants ......... Done
    Building Fock matrix ............................ Done

              ----------------------------------------------------
                    MR-DSRG Second-Order Perturbation Theory
                Chenyang Li, Kevin Hannon, Francesco Evangelista
              ----------------------------------------------------

    References:
      u-DSRG-MRPT2:    J. Chem. Theory Comput. 2015, 11, 2097.
      (pr-)DSRG-MRPT2: J. Chem. Phys. 2017, 146, 124132.

  ==> Calculation Information <==

    ntamp                                                 15
    flow parameter                                 1.000e+00
    taylor expansion threshold                     1.000e-03
    intruder_tamp                                  1.000e-01
    int_type                                    CONVENTIONAL
    source operator                                 STANDARD
    reference relaxation                                NONE
    state_type                                STATE-SPECIFIC
    form Hbar3                                         FALSE

  ==> Checking Semicanonical Orbitals <==

    Abs. max of Fock core, active, virtual blocks (Fij, i != j)
                  core          active         virtual
    --------------------------------------------------
    Fα    0.0000000000    0.1698397793    0.0000000000
    Fβ    0.0000000000    0.1698397793    0.0000000000
    --------------------------------------------------

    1-Norm of Fock core, active, virtual blocks (Fij, i != j)
                  core          active         virtual
    --------------------------------------------------
    Fα    0.0000000000    0.5304778940    0.0000000000
    Fβ    0.0000000000    0.5304778940    0.0000000000
    --------------------------------------------------

    Warning! Orbitals are not semi-canonicalized!
    Orbital invariant formalism will be employed for DSRG-MRPT2.

  ==> Computing DSRG-MRPT2 ... <==

    Computing T2 amplitudes                  ...  Done. Timing        0.044334 s
    Computing T1 amplitudes                  ...  Done. Timing        0.002870 s
    Renormalizing two-electron integrals     ...  Done. Timing        0.042362 s
    Renormalizing Fock matrix elements       ...  Done. Timing        0.002923 s
    Computing <[F, T1]>                      ...  Done. Timing        0.000355 s
    Computing <[F, T2]>                      ...  Done. Timing        0.000872 s
    Computing <[V, T1]>                      ...  Done. Timing        0.000960 s
    Computing <[V, T2]> (C_2)^4              ...  Done. Timing        0.005299 s
    Computing <[V, T2]> C_4 (C_2)^2 HH       ...  Done. Timing        0.001052 s
    Computing <[V, T2]> C_4 (C_2)^2 PP       ...  Done. Timing        0.001657 s
    Computing <[V, T2]> C_4 (C_2)^2 PH       ...  Done. Timing        0.005890 s
    Computing <[V, T2]> C_6 C_2              ...  Done. Timing        0.062813 s

  ==> Excitation Amplitudes Summary <==

    Active Indices:    0    1    2    3   14   18   19 
    Largest T1 amplitudes for spin case A:
       i       a                  i       a                  i       a               
    --------------------------------------------------------------------------------
    [ 19      24    ] 0.096931 [ 19      20    ] 0.066957 [ 19      23    ] 0.065510 
    [ 19      21    ]-0.053301 [  3       4    ] 0.026349 [  3       5    ]-0.020112 
    [ 19      22    ]-0.016394 [  3       6    ] 0.010269 [  0      11    ] 0.006681 
    [  0      10    ] 0.006646 [  3      10    ]-0.005423 [ 18      21    ]-0.003954 
    [ 18      20    ] 0.003749 [  3      11    ]-0.003343 [  0       5    ] 0.003036 
    --------------------------------------------------------------------------------
    Norm of T1A vector: (nonzero elements: 45)                    0.150574216656600.
    --------------------------------------------------------------------------------
    Largest T1 amplitudes for spin case B:
       _       _                  _       _                  _       _               
       i       a                  i       a                  i       a               
    --------------------------------------------------------------------------------
    [ 19      24    ] 0.096931 [ 19      20    ] 0.066957 [ 19      23    ] 0.065510 
    [ 19      21    ]-0.053301 [  3       4    ] 0.026349 [  3       5    ]-0.020112 
    [ 19      22    ]-0.016394 [  3       6    ] 0.010269 [  0      11    ] 0.006681 
    [  0      10    ] 0.006646 [  3      10    ]-0.005423 [ 18      21    ]-0.003954 
    [ 18      20    ] 0.003749 [  3      11    ]-0.003343 [  0       5    ] 0.003036 
    --------------------------------------------------------------------------------
    Norm of T1B vector: (nonzero elements: 45)                    0.150574216656599.
    --------------------------------------------------------------------------------
    Largest T2 amplitudes for spin case AA:
       i   j   a   b              i   j   a   b              i   j   a   b           
    --------------------------------------------------------------------------------
    [  0  14   0  15]-0.242148 [  0   2   0   4]-0.207879 [  0   3   0   4] 0.101286 
    [  2  14   2  15]-0.095009 [  2  14   4  14]-0.088033 [ 14  18  15  18]-0.085142 
    [  1  14   1  15]-0.083614 [  0  18   0  21]-0.082624 [  0   3   0   5]-0.080169 
    [  0   3   0   6] 0.077388 [  2  18   4  18]-0.073131 [  0   1   0   5] 0.072069 
    [  1   2   1   4]-0.070567 [  0  19   0  23] 0.063756 [ 14  19  15  19]-0.062822 
    --------------------------------------------------------------------------------
    Norm of T2AA vector: (nonzero elements: 7628)                 1.069796799246020.
    --------------------------------------------------------------------------------
    Largest T2 amplitudes for spin case AB:
           _       _                  _       _                  _       _           
       i   j   a   b              i   j   a   b              i   j   a   b           
    --------------------------------------------------------------------------------
    [  0  14   0  15]-0.263193 [  0   2   0   4]-0.225440 [ 14  14  14  15]-0.124312 
    [  0   3   0   4] 0.107802 [  2   2   2   4]-0.104394 [  1  14   1  15]-0.104206 
    [  2  14   2  15]-0.102932 [  2  14   4  14]-0.094140 [  0  18   0  21]-0.090826 
    [ 14  18  15  18]-0.090117 [  1   2   1   4]-0.087696 [  0   3   0   5]-0.085296 
    [  0   3   0   6] 0.083849 [  0   1   0   5] 0.082479 [  2  18   4  18]-0.074655 
    --------------------------------------------------------------------------------
    Norm of T2AB vector: (nonzero elements: 8048)                 0.980541131211272.
    --------------------------------------------------------------------------------
    Largest T2 amplitudes for spin case BB:
       _   _   _   _              _   _   _   _              _   _   _   _           
       i   j   a   b              i   j   a   b              i   j   a   b           
    --------------------------------------------------------------------------------
    [  0  14   0  15]-0.242148 [  0   2   0   4]-0.207879 [  0   3   0   4] 0.101286 
    [  2  14   2  15]-0.095009 [  2  14   4  14]-0.088033 [ 14  18  15  18]-0.085142 
    [  1  14   1  15]-0.083614 [  0  18   0  21]-0.082624 [  0   3   0   5]-0.080169 
    [  0   3   0   6] 0.077388 [  2  18   4  18]-0.073131 [  0   1   0   5] 0.072069 
    [  1   2   1   4]-0.070567 [  0  19   0  23] 0.063756 [ 14  19  15  19]-0.062822 
    --------------------------------------------------------------------------------
    Norm of T2BB vector: (nonzero elements: 7622)                 1.069796799246020.
    --------------------------------------------------------------------------------

  ==> Possible Intruders <==

    T1 amplitudes larger than 0.1000 for spin case A: NULL
    T1 amplitudes larger than 0.1000 for spin case B: NULL
    T2 amplitudes larger than 0.1000 for spin case AA:
        Amplitude         Value                               Denominator                           
    ------------------------------------------------------------------------------------------------
    [  0  14   0  15]   -0.24214822 (-21.255575 +  -0.777023 - -21.255575 -   0.917375 =  -1.694398)
    [  0   2   0   4]   -0.20787866 (-21.255575 +  -0.835748 - -21.255575 -   0.864220 =  -1.699969)
    [  0   3   0   4]    0.10128603 (-21.255575 +   0.002154 - -21.255575 -   0.864220 =  -0.862066)
    ------------------------------------------------------------------------------------------------
    T2 amplitudes larger than 0.1000 for spin case AB:
        Amplitude         Value                               Denominator                           
    ------------------------------------------------------------------------------------------------
    [  0  14   0  15]   -0.26319315 (-21.255575 +  -0.777023 - -21.255575 -   0.917375 =  -1.694398)
    [  0   2   0   4]   -0.22544047 (-21.255575 +  -0.835748 - -21.255575 -   0.864220 =  -1.699969)
    [ 14  14  14  15]   -0.12431229 ( -0.777023 +  -0.777023 -  -0.777023 -   0.917375 =  -1.694398)
    [  0   3   0   4]    0.10780245 (-21.255575 +   0.002154 - -21.255575 -   0.864220 =  -0.862066)
    [  2   2   2   4]   -0.10439440 ( -0.835748 +  -0.835748 -  -0.835748 -   0.864220 =  -1.699969)
    [  1  14   1  15]   -0.10420649 ( -1.575223 +  -0.777023 -  -1.575223 -   0.917375 =  -1.694398)
    [  2  14   2  15]   -0.10293211 ( -0.835748 +  -0.777023 -  -0.835748 -   0.917375 =  -1.694398)
    ------------------------------------------------------------------------------------------------
    T2 amplitudes larger than 0.1000 for spin case BB:
        Amplitude         Value                               Denominator                           
    ------------------------------------------------------------------------------------------------
    [  0  14   0  15]   -0.24214822 (-21.255575 +  -0.777023 - -21.255575 -   0.917375 =  -1.694398)
    [  0   2   0   4]   -0.20787866 (-21.255575 +  -0.835748 - -21.255575 -   0.864220 =  -1.699969)
    [  0   3   0   4]    0.10128603 (-21.255575 +   0.002154 - -21.255575 -   0.864220 =  -0.862066)
    ------------------------------------------------------------------------------------------------

  ==> DSRG-MRPT2 Energy Summary <==

    E0 (reference)                 =    -56.313528162216009
    <[F, T1]>                      =     -0.007975252136049
    <[F, T2]>                      =      0.002354919798624
    <[V, T1]>                      =      0.001791868823846
    <[V, T2]> (C_2)^4              =     -0.512279759952797
    <[V, T2]> C_4 (C_2)^2 HH       =      0.000000000000000
    <[V, T2]> C_4 (C_2)^2 PP       =      0.015210621980580
    <[V, T2]> C_4 (C_2)^2 PH       =      0.325023077415775
    <[V, T2]> C_6 C_2              =      0.000696444657944
    <[V, T2]>                      =     -0.171349615898497
    DSRG-MRPT2 correlation energy  =     -0.175178079412076
    DSRG-MRPT2 total energy        =    -56.488706241628087
    max(T1)                        =      0.096930693063073
    max(T2)                        =      0.263193150269240
    ||T1||                         =      0.212944099339468
    ||T2||                         =      2.476847597924099

  Energy took      0.184 s


  ==> Total Timings (s) for Computing Commutators <==

             [H1, T1]    [H1, T2]    [H2, T1]    [H2, T2]
    -----------------------------------------------------
    -> C0       0.000       0.001       0.001       0.077
    -> C1       0.000       0.000       0.000       0.000
    -> C2                   0.000       0.000       0.000
    -----------------------------------------------------


  Time to prepare integrals:        0.079 seconds
  Time to run job          :        0.480 seconds
  Total                    :        0.480 seconds	GASSCF-MRPT2 energy...............................................PASSED

    Psi4 stopped on: Monday, 10 August 2020 07:04PM
    Psi4 wall time for execution: 0:00:01.82

*** Psi4 exiting successfully. Buy a developer a beer!
