    -----------------------------------------------------------------------
          Psi4: An Open-Source Ab Initio Electronic Structure Package
                              Psi4 0.3.1237 Driver

                          Git: Rev {master} faae0ba 

    J. M. Turney, A. C. Simmonett, R. M. Parrish, E. G. Hohenstein,
    F. A. Evangelista, J. T. Fermann, B. J. Mintz, L. A. Burns, J. J. Wilke,
    M. L. Abrams, N. J. Russ, M. L. Leininger, C. L. Janssen, E. T. Seidl,
    W. D. Allen, H. F. Schaefer, R. A. King, E. F. Valeev, C. D. Sherrill,
    and T. D. Crawford, WIREs Comput. Mol. Sci. 2, 556-565 (2012)
    (doi: 10.1002/wcms.93)

                         Additional Contributions by
    A. E. DePrince, U. Bozkaya, A. Yu. Sokolov, D. G. A. Smith, R. Di Remigio,
    R. M. Richard, J. F. Gonthier, H. R. McAlexander, M. Saitow, and
    B. P. Pritchard
    -----------------------------------------------------------------------


    Psi4 started on: Tue Jun 14 14:02:15 2016

    Process ID:  75622
    PSI4DATADIR: /Users/ChenyangLi/src/psi4public/share
    Memory level set to 256.000 MB

  ==> Input File <==

--------------------------------------------------------------------------
import forte

refscf  = -108.95414169056576
refdsrg = -108.69919525235822

molecule N2{
0 1
N  0.0000  0.0000  0.5488
N  0.0000  0.0000 -0.5488
}

set {
  basis          cc-pvdz
  reference      rhf
  scf_type       out_of_core
  e_convergence  14
  d_convergence  12
  maxiter        100
}
Escf, wfn = energy('scf', return_wfn=True)
compare_values(refscf,get_variable("CURRENT ENERGY"),8,"SCF energy") #TEST

set forte{
  job_type           active-dsrgpt2
  cas_type           cas
  active_space_type  cis
  multiplicity       1
  ipea               ip
  print_ci_vector    0.0000000000001
  frozen_docc        [1,0,0,0,0,1,0,0]                                            
  restricted_docc    [1,0,0,0,0,1,1,1]         
  active             [3,0,0,0,0,0,0,0]
  nrootpi            [2,0,0,0,0,0,0,0]
  dsrg_s             0.5
}
energy('forte', ref_wfn=wfn)
compare_values(refdsrg,get_variable("CURRENT ENERGY"),8,"DSRG energy fo Ag state") #TEST
--------------------------------------------------------------------------
/Users/ChenyangLi/src/v2rdm_casscf/v2rdm_casscf.so loaded.
/Users/ChenyangLi/src/forte/forte.so loaded.

*** tstart() called on dhcp189-113.emerson.emory.edu
*** at Tue Jun 14 14:02:15 2016


         ---------------------------------------------------------
                                   SCF
            by Justin Turney, Rob Parrish, and Andy Simmonett
                              RHF Reference
                        1 Threads,    256 MiB Core
         ---------------------------------------------------------

  ==> Geometry <==

    Molecular point group: d2h
    Full point group: D_inf_h

    Geometry (in Angstrom), charge = 0, multiplicity = 1:

       Center              X                  Y                   Z               Mass       
    ------------   -----------------  -----------------  -----------------  -----------------
           N          0.000000000000     0.000000000000     0.548800000000    14.003074004780
           N          0.000000000000     0.000000000000    -0.548800000000    14.003074004780

  Running in d2h symmetry.

  Rotational constants: A = ************  B =      1.99855  C =      1.99855 [cm^-1]
  Rotational constants: A = ************  B =  59915.00652  C =  59915.00652 [MHz]
  Nuclear repulsion =   23.623982526339287

  Charge       = 0
  Multiplicity = 1
  Electrons    = 14
  Nalpha       = 7
  Nbeta        = 7

  ==> Algorithm <==

  SCF Algorithm Type is OUT_OF_CORE.
  DIIS enabled.
  MOM disabled.
  Fractional occupation disabled.
  Guess Type is CORE.
  Energy threshold   = 1.00e-14
  Density threshold  = 1.00e-12
  Integral threshold = 0.00e+00

  ==> Primary Basis <==

  Basis Set: CC-PVDZ
    Number of shells: 14
    Number of basis function: 30
    Number of Cartesian functions: 32
    Spherical Harmonics?: true
    Max angular momentum: 2

  ==> Pre-Iterations <==

   -------------------------------------------------------
    Irrep   Nso     Nmo     Nalpha   Nbeta   Ndocc  Nsocc
   -------------------------------------------------------
     Ag         8       8       0       0       0       0
     B1g        1       1       0       0       0       0
     B2g        3       3       0       0       0       0
     B3g        3       3       0       0       0       0
     Au         1       1       0       0       0       0
     B1u        8       8       0       0       0       0
     B2u        3       3       0       0       0       0
     B3u        3       3       0       0       0       0
   -------------------------------------------------------
    Total      30      30       7       7       7       0
   -------------------------------------------------------

  ==> Integral Setup <==

  ==> DiskJK: Disk-Based J/K Matrices <==

    J tasked:                  Yes
    K tasked:                  Yes
    wK tasked:                  No
    Memory (MB):               183
    Schwarz Cutoff:          1E-12

  Minimum eigenvalue in the overlap matrix is 2.1510768964E-08.
  Using Canonical Orthogonalization with cutoff of 1.0000000000E-07.
  Overall, 1 of 30 possible MOs eliminated.

  SCF Guess: Core (One-Electron) Hamiltonian.

  ==> Iterations <==

                        Total Energy        Delta E     RMS |[F,P]|

    Occupation by irrep:
             Ag   B1g   B2g   B3g    Au   B1u   B2u   B3u 
    DOCC [     3,    0,    0,    0,    0,    2,    1,    1 ]

   @RHF iter   1:   -99.89934529787217   -9.98993e+01   2.41758e-01 
   @RHF iter   2:  -104.14463820506347   -4.24529e+00   2.00694e-01 DIIS
   @RHF iter   3:  -108.90359234666829   -4.75895e+00   2.60101e-02 DIIS
   @RHF iter   4:  -108.95051350728383   -4.69212e-02   5.72487e-03 DIIS
   @RHF iter   5:  -108.95402935230982   -3.51585e-03   9.44351e-04 DIIS
   @RHF iter   6:  -108.95413995198291   -1.10600e-04   1.39542e-04 DIIS
   @RHF iter   7:  -108.95414162460676   -1.67262e-06   2.79368e-05 DIIS
   @RHF iter   8:  -108.95414169050537   -6.58986e-08   8.12575e-07 DIIS
   @RHF iter   9:  -108.95414169056502   -5.96572e-11   7.51250e-08 DIIS
   @RHF iter  10:  -108.95414169056579   -7.67386e-13   7.04024e-09 DIIS
   @RHF iter  11:  -108.95414169056573    5.68434e-14   6.62208e-10 DIIS
   @RHF iter  12:  -108.95414169056571    2.84217e-14   1.46381e-10 DIIS
   @RHF iter  13:  -108.95414169056568    2.84217e-14   1.04004e-11 DIIS
   @RHF iter  14:  -108.95414169056576   -8.52651e-14   7.58151e-13 DIIS
   @RHF iter  15:  -108.95414169056571    5.68434e-14   1.14650e-13 DIIS
   @RHF iter  16:  -108.95414169056576   -5.68434e-14   2.63411e-14 DIIS
   @RHF iter  17:  -108.95414169056573    2.84217e-14   1.13598e-14 DIIS
   @RHF iter  18:  -108.95414169056573    0.00000e+00   5.58033e-15 DIIS

  ==> Post-Iterations <==

    Orbital Energies (a.u.)
    -----------------------

    Doubly Occupied:                                                      

       1Ag   -15.686408     1B1u  -15.683003     2Ag    -1.471268  
       2B1u   -0.774071     3Ag    -0.626234     1B2u   -0.608193  
       1B3u   -0.608193  

    Virtual:                                                              

       4Ag     0.000000     1B3g    0.175701     1B2g    0.175701  
       3B1u    0.594661     5Ag     0.820054     2B3u    0.872191  
       2B2u    0.872191     6Ag     0.992253     2B3g    1.051061  
       2B2g    1.051061     4B1u    1.144533     5B1u    1.643312  
       1B1g    1.757365     7Ag     1.757365     3B2u    1.882137  
       3B3u    1.882137     1Au     2.299043     6B1u    2.299043  
       8Ag     2.874585     3B2g    2.996567     3B3g    2.996567  
       7B1u    3.284022  

    Final Occupation by Irrep:
             Ag   B1g   B2g   B3g    Au   B1u   B2u   B3u 
    DOCC [     3,    0,    0,    0,    0,    2,    1,    1 ]

  Energy converged.

  @RHF Final Energy:  -108.95414169056573

   => Energetics <=

    Nuclear Repulsion Energy =             23.6239825263392866
    One-Electron Energy =                -194.2415069693607848
    Two-Electron Energy =                  61.6633827524557319
    DFT Exchange-Correlation Energy =       0.0000000000000000
    Empirical Dispersion Energy =           0.0000000000000000
    PCM Polarization Energy =               0.0000000000000000
    EFP Energy =                            0.0000000000000000
    Total Energy =                       -108.9541416905657627


  Saving occupied orbitals to File 180.

*** tstop() called on dhcp189-113.emerson.emory.edu at Tue Jun 14 14:02:15 2016
Module time:
	user time   =       0.08 seconds =       0.00 minutes
	system time =       0.02 seconds =       0.00 minutes
	total time  =          0 seconds =       0.00 minutes
Total time:
	user time   =       0.08 seconds =       0.00 minutes
	system time =       0.02 seconds =       0.00 minutes
	total time  =          0 seconds =       0.00 minutes


Properties will be evaluated at   0.000000,   0.000000,   0.000000 Bohr

Properties computed using the SCF density matrix

  Nuclear Dipole Moment: (a.u.)
     X:     0.0000      Y:     0.0000      Z:     0.0000

  Electronic Dipole Moment: (a.u.)
     X:     0.0000      Y:     0.0000      Z:     0.0000

  Dipole Moment: (a.u.)
     X:     0.0000      Y:     0.0000      Z:     0.0000     Total:     0.0000

  Dipole Moment: (Debye)
     X:     0.0000      Y:     0.0000      Z:     0.0000     Total:     0.0000

	SCF energy........................................................PASSED

Reading options from the FORTE block
Calling plugin /Users/ChenyangLi/src/forte/forte.so.




  ==> MO Space Information <==

  Read options for space FROZEN_DOCC
  Read options for space RESTRICTED_DOCC
  Read options for space ACTIVE
 Removing orbital 0
 Removing orbital 16
  -------------------------------------------------------------------------
                       Ag   B1g   B2g   B3g    Au   B1u   B2u   B3u   Sum
  -------------------------------------------------------------------------
    FROZEN_DOCC         1     0     0     0     0     1     0     0     2
    RESTRICTED_DOCC     1     0     0     0     0     1     1     1     4
    ACTIVE              3     0     0     0     0     0     0     0     3
    RESTRICTED_UOCC     3     1     3     3     1     5     2     2    20
    FROZEN_UOCC         0     0     0     0     0     0     0     0     0
    Total               8     1     3     3     1     7     3     3    29
  -------------------------------------------------------------------------

  ==> Integral Transformation <==

  Number of molecular orbitals:               29
  Number of correlated molecular orbitals:    27
  Number of frozen occupied orbitals:          2
  Number of frozen unoccupied orbitals:        0


  Overall Conventional Integrals timings

	Presorting SO-basis two-electron integrals.
	Sorting File: SO Ints (nn|nn) nbuckets = 1
	Transforming the one-electron integrals and constructing Fock matrices
	Starting first half-transformation.
	Sorting half-transformed integrals.
	First half integral transformation complete.
	Starting second half-transformation.
	Two-electron integral transformation complete.

  Integral transformation done. 0.01898200 s
  Reading the two-electron integrals from disk
  Size of two-electron integrals:   0.015809 GB
  Frozen-core energy           -101.037014771347 a.u.

 FrozenOneBody Operator takes  0.07810400 s
  Resorting integrals after freezing core.
  Conventional integrals take 0.19694600 s

                               ------------------
                                 ACTIVE-DSRGPT2
                                  Chenyang Li
                               ------------------

    The orbitals are fixed throughout the process.
    If different orbitals (or reference) are desired for different roots,
    you need to run those separately using the regular DSRG-MRPT2 / MRPT3 (or DF/CD) code.

                Ag   B1g   B2g   B3g    Au   B1u   B2u   B3u
    ----------------------------------------------------------
      NROOTS     2     0     0     0     0     0     0     0
    ----------------------------------------------------------

  ==> Input Summary <==

    number of atoms                =     2
    number of electrons            =    14
    molecular charge               =     0
    number of alpha electrons      =     7
    number of beta electrons       =     7
    multiplicity                   =     1
    ms (2 * Sz)                    =     0
    number of molecular orbitals   =    29

  ==> Orbital Spaces <==

    TOTAL MO                      [    8     1     3     3     1     7     3     3 ]
    FROZEN CORE                   [    1     0     0     0     0     1     0     0 ]
    FROZEN VIRTUAL                [    0     0     0     0     0     0     0     0 ]
    CORRELATED MO                 [    7     1     3     3     1     6     3     3 ]
    CORE                          [    1     0     0     0     0     1     1     1 ]
    ACTIVE                        [    3     0     0     0     0     0     0     0 ]
    VIRTUAL                       [    3     1     3     3     1     5     2     2 ]

  ==> Correlated Subspace Indices <==

    CORE                             0   15   21   24 
    ACTIVE                           1    2    3 
    HOLE                             1    2    3    0   15   21   24 
    VIRTUAL                          4    5    6    7    8    9   10   11   12   13   14   16   17   18   19 
                                    20   22   23   25   26 
    PARTICLE                         1    2    3    4    5    6    7    8    9   10   11   12   13   14   16 
                                    17   18   19   20   22   23   25   26 


  ===================================
    Current Job:  Ag state, root  0
  ===================================

  Forming determinants                ...  Done. Timing        0.000008 s

  ==> Determinants Summary <==

    number of alpha active electrons    =     1
    number of beta active electrons     =     1
    root symmetry (zero based)          =     0
    number of determinants              =     3

  ==> Determinants |alpha|beta> <==
  
  |200>  
  |-+0>  
  |+-0>


  Diagonalizing Hamiltonian           ...

  Davidson-liu solver algorithm
  Generating determinants with N-1 electrons.

  Time spen building single lists: 0.000025 s
  Memory for single-hole lists: 0.000038 MB
  Memory for single-hole maps:  0.000153 MB
  Generating determinants with N-2 electrons.

  Memory for double-hole lists: 0.000011 MB
  Memory for double-hole maps:  0.000038 MB
  number of guess vectors: 3
  Error: 3 guess vectors with 2S+1 = 1 but only 2 were found!
  Initial guess found 2 solutions with 2S+1 = 1 *
  Initial guess found 1 solutions with 2S+1 = 3  
  Adding guess 0 (multiplicity = 1.000000)
  Adding guess 1 (multiplicity = 1.000000)

  ==> Diagonalizing Hamiltonian <==

  ----------------------------------------
    Iter.      Avg. Energy       Delta_E
  ----------------------------------------
      1      -68.359349563143  -6.836e+01
      2      -68.359349563143  +0.000e+00
  ----------------------------------------
  The Davidson-Liu algorithm converged in 3 iterations.

  Reference type: RHF
  Threshold for spin check: 0.10

  Spin State: S^2 = 0.000, S = 0.000, singlet (from 3 determinants)  Done. Timing        0.000801 s

  * * * * * * * * * * * * * * * * *
  *  CI Vectors & Configurations  *
  * * * * * * * * * * * * * * * * *

  ==> Root No. 0 <==

    200          1.0000000000

    Total Energy:   -108.954141690565677


  Forming one-particle density        ...  Done. Timing        0.000373 s
  Checking Fock matrices (Fa, Fb)     ...
  Nonzero criteria: > 1.00E-12
  Fa_CORE    block is diagonal.
  Fb_CORE    block is diagonal.
  Fa_ACT_O   block is diagonal.
  Fb_ACT_O   block is diagonal.
  Fa_ACT_V   block is diagonal.
  Fb_ACT_V   block is diagonal.
  Fa_VIRTUAL block is diagonal.
  Fb_VIRTUAL block is diagonal.
  Done checking Fock matrices.                   Timing        0.000050 s

  Use semi-canonical orbitals.

  Diagonalizing Hamiltonian           ...

  Davidson-liu solver algorithm
  Generating determinants with N-1 electrons.

  Time spen building single lists: 0.000009 s
  Memory for single-hole lists: 0.000038 MB
  Memory for single-hole maps:  0.000153 MB
  Generating determinants with N-2 electrons.

  Memory for double-hole lists: 0.000011 MB
  Memory for double-hole maps:  0.000038 MB
  number of guess vectors: 3
  Error: 3 guess vectors with 2S+1 = 1 but only 2 were found!
  Initial guess found 2 solutions with 2S+1 = 1 *
  Initial guess found 1 solutions with 2S+1 = 3  
  Adding guess 0 (multiplicity = 1.000000)
  Adding guess 1 (multiplicity = 1.000000)

  ==> Diagonalizing Hamiltonian <==

  ----------------------------------------
    Iter.      Avg. Energy       Delta_E
  ----------------------------------------
      1      -68.359349563143  -6.836e+01
      2      -68.359349563143  +0.000e+00
  ----------------------------------------
  The Davidson-Liu algorithm converged in 3 iterations.

  Reference type: RHF
  Threshold for spin check: 0.10

  Spin State: S^2 = 0.000, S = 0.000, singlet (from 3 determinants)  Done. Timing        0.000176 s

  * * * * * * * * * * * * * * * * *
  *  CI Vectors & Configurations  *
  * * * * * * * * * * * * * * * * *

  ==> Root No. 0 <==

    200          1.0000000000

    Total Energy:   -108.954141690565677


  Forming one-particle density        ...  Done. Timing        0.000011 s
  Checking Fock matrices (Fa, Fb)     ...
  Nonzero criteria: > 1.00E-12
  Fa_CORE    block is diagonal.
  Fb_CORE    block is diagonal.
  Fa_ACT_O   block is diagonal.
  Fb_ACT_O   block is diagonal.
  Fa_ACT_V   block is diagonal.
  Fb_ACT_V   block is diagonal.
  Fa_VIRTUAL block is diagonal.
  Fb_VIRTUAL block is diagonal.
  Done checking Fock matrices.                   Timing        0.000042 s

  Forming Lambda2                     ...  Done. Timing        0.000032 s
  Forming Lambda3                     ...  Done. Timing        0.000680 s

              ----------------------------------------------------
                 Driven Similarity Renormalization Group MBPT2
                Chenyang Li, Kevin Hannon, Francesco Evangelista
              ----------------------------------------------------

    Reference:
      J. Chem. Theory Comput. 2015, 11, 2097-2108.

  ==> Calculation Information <==

    ntamp                                           15
    flow parameter                           5.000e-01
    taylor expansion threshold               1.000e-03
    intruder_tamp                            1.000e-01
    int_type                                CONVENTIONAL
    source operator                           STANDARD
    reference relaxation                          NONE

  ==> Checking Orbitals <==

    Checking if orbitals are semi-canonicalized ...     OK.
    Orbitals are semi-canonicalized.

  ==> Computing DSRG-MRPT2 ... <==

    Computing T2 amplitudes                  ...  Done. Timing        0.010154 s
    Computing T1 amplitudes                  ...  Done. Timing        0.001140 s
    Renormalizing two-electron integrals     ...  Done. Timing        0.006072 s
    Renormalizing Fock matrix elements       ...  Done. Timing        0.001882 s
    Computing <[F, T1]>                      ...  Done. Timing        0.000650 s
    Computing <[F, T2]>                      ...  Done. Timing        0.001991 s
    Computing <[V, T1]>                      ...  Done. Timing        0.001809 s
    Computing <[V, T2]> (C_2)^4              ...  Done. Timing        0.012129 s
    Computing <[V, T2]> C_4 (C_2)^2 HH       ...  Done. Timing        0.002708 s
    Computing <[V, T2]> C_4 (C_2)^2 PP       ...  Done. Timing        0.002519 s
    Computing <[V, T2]> C_4 (C_2)^2 PH       ...  Done. Timing        0.009892 s
    Computing <[V, T2]> C_6 C_2              ...  Done. Timing        0.004809 s

  ==> Excitation Amplitudes Summary <==

    Active Indices:    1    2    3 


    Largest T2 amplitudes for spin case AA:
       i   j   a   b              i   j   a   b              i   j   a   b           
    --------------------------------------------------------------------------------
    [  1  21   1  22]-0.045011 [  1  24   1  25]-0.045011 [ 21  24   8  11] 0.043390 
    [ 15  21   1  11] 0.037926 [ 15  24   1   8] 0.037926 [  1  15   1  16] 0.033353 
    [  1  21  11  17]-0.031327 [  1  24   8  17]-0.031327 [  3  21   3  22]-0.029132 
    [  3  24   3  25]-0.029132 [  1  15   1  18]-0.024844 [ 15  21   1  12] 0.024518 
    [ 15  24   1   9] 0.024518 [  0  15   1  16]-0.022873 [  3  15   3  16] 0.022776 
    --------------------------------------------------------------------------------
    Norm of T2AA vector: (nonzero elements: 2400)                 0.353238360275557.
    --------------------------------------------------------------------------------
    Largest T2 amplitudes for spin case AB:
           _       _                  _       _                  _       _           
       i   j   a   b              i   j   a   b              i   j   a   b           
    --------------------------------------------------------------------------------
    [ 21  21  11  11]-0.061887 [ 24  24   8   8]-0.061887 [ 15  21   1  11] 0.050361 
    [ 15  24   1   8] 0.050361 [  1  21   1  22]-0.046018 [  1  24   1  25]-0.046018 
    [  1   1   1   4] 0.042462 [  1  15   1  17]-0.037691 [ 15  15   1   4] 0.036827 
    [  1   1  17  17]-0.032407 [ 15  15  11  11]-0.031582 [ 15  15   8   8]-0.031582 
    [ 15  15   1   1]-0.030176 [  0   0   1   1]-0.029961 [ 21  21  11  12]-0.028287 
    --------------------------------------------------------------------------------
    Norm of T2AB vector: (nonzero elements: 3155)                 0.363497556942392.
    --------------------------------------------------------------------------------
    Largest T2 amplitudes for spin case BB:
       _   _   _   _              _   _   _   _              _   _   _   _           
       i   j   a   b              i   j   a   b              i   j   a   b           
    --------------------------------------------------------------------------------
    [  1  21   1  22]-0.045011 [  1  24   1  25]-0.045011 [ 21  24   8  11] 0.043390 
    [ 15  21   1  11] 0.037926 [ 15  24   1   8] 0.037926 [  1  15   1  16] 0.033353 
    [  1  21  11  17]-0.031327 [  1  24   8  17]-0.031327 [  3  21   3  22]-0.029132 
    [  3  24   3  25]-0.029132 [  1  15   1  18]-0.024844 [ 15  21   1  12] 0.024518 
    [ 15  24   1   9] 0.024518 [  0  15   1  16]-0.022873 [  3  15   3  16] 0.022776 
    --------------------------------------------------------------------------------
    Norm of T2BB vector: (nonzero elements: 2400)                 0.353238360275557.
    --------------------------------------------------------------------------------

  ==> Possible Intruders <==

    T1 amplitudes larger than 0.1000 for spin case A: NULL
    T1 amplitudes larger than 0.1000 for spin case B: NULL
    T2 amplitudes larger than 0.1000 for spin case AA: NULL
    T2 amplitudes larger than 0.1000 for spin case AB: NULL
    T2 amplitudes larger than 0.1000 for spin case BB: NULL

  ==> DSRG-MRPT2 Energy Summary <==

    E0 (reference)                 =   -108.954141690565677
    <[F, T1]>                      =      0.000000000000000
    <[F, T2]>                      =      0.000000000000000
    <[V, T1]>                      =      0.000000000000000
    <[V, T2]> (C_2)^4              =     -0.300689986097003
    <[V, T2]> C_4 (C_2)^2 HH       =      0.000000000000000
    <[V, T2]> C_4 (C_2)^2 PP       =      0.000000000000000
    <[V, T2]> C_4 (C_2)^2 PH       =      0.000000000000000
    <[V, T2]> C_6 C_2              =      0.000000000000000
    <[V, T2]>                      =     -0.300689986097003
    DSRG-MRPT2 correlation energy  =     -0.300689986097003
    DSRG-MRPT2 total energy        =   -109.254831676662675
    max(T1)                        =      0.000000000000000
    max(T2)                        =      0.061886836248755
    ||T1||                         =      0.000000000000000
    ||T2||                         =      0.882086488929900

  Energy took 0.06625100 s

  ==> Total Timings (s) for Computing Commutators <==

             [H1, T1]    [H1, T2]    [H2, T1]    [H2, T2]
    -----------------------------------------------------
    -> C0       0.001       0.002       0.002       0.032
    -> C1       0.000       0.000       0.000       0.000
    -> C2                   0.000       0.000       0.000
    -----------------------------------------------------


  ==> Compute Singles Percentage <==
    Will compute 4 roots for CISD in Irrep Ag.


  Davidson-liu solver algorithm
  Generating determinants with N-1 electrons.

  Time spen building single lists: 0.000017 s
  Memory for single-hole lists: 0.000057 MB
  Memory for single-hole maps:  0.000229 MB
  Generating determinants with N-2 electrons.

  Memory for double-hole lists: 0.000011 MB
  Memory for double-hole maps:  0.000038 MB
  number of guess vectors: 6
  Error: 6 guess vectors with 2S+1 = 1 but only 4 were found!
  Initial guess found 4 solutions with 2S+1 = 1 *
  Initial guess found 2 solutions with 2S+1 = 3  
  Adding guess 0 (multiplicity = 1.000000)
  Adding guess 1 (multiplicity = 1.000000)
  Adding guess 2 (multiplicity = 1.000000)
  Adding guess 3 (multiplicity = 1.000000)

  ==> Diagonalizing Hamiltonian <==

  ----------------------------------------
    Iter.      Avg. Energy       Delta_E
  ----------------------------------------
      1      -67.775363362737  -6.778e+01
      2      -67.775363362737  +1.421e-14
  ----------------------------------------
  The Davidson-Liu algorithm converged in 3 iterations.

  Davidson-liu solver algorithm
  Generating determinants with N-1 electrons.

  Time spen building single lists: 0.000013 s
  Memory for single-hole lists: 0.000057 MB
  Memory for single-hole maps:  0.000229 MB
  Generating determinants with N-2 electrons.

  Memory for double-hole lists: 0.000011 MB
  Memory for double-hole maps:  0.000038 MB
  number of guess vectors: 6
  Error: 6 guess vectors with 2S+1 = 1 but only 4 were found!
  Initial guess found 4 solutions with 2S+1 = 1 *
  Initial guess found 2 solutions with 2S+1 = 3  
  Adding guess 0 (multiplicity = 1.000000)
  Adding guess 1 (multiplicity = 1.000000)
  Adding guess 2 (multiplicity = 1.000000)
  Adding guess 3 (multiplicity = 1.000000)

  ==> Diagonalizing Hamiltonian <==

  ----------------------------------------
    Iter.      Avg. Energy       Delta_E
  ----------------------------------------
      1      -67.775363362737  -6.778e+01
      2      -67.775363362737  +1.421e-14
  ----------------------------------------
  The Davidson-Liu algorithm converged in 3 iterations.

  Davidson-liu solver algorithm
  Generating determinants with N-1 electrons.

  Time spen building single lists: 0.000017 s
  Memory for single-hole lists: 0.000057 MB
  Memory for single-hole maps:  0.000229 MB
  Generating determinants with N-2 electrons.

  Memory for double-hole lists: 0.000011 MB
  Memory for double-hole maps:  0.000038 MB
  number of guess vectors: 6
  Error: 6 guess vectors with 2S+1 = 1 but only 4 were found!
  Initial guess found 4 solutions with 2S+1 = 1 *
  Initial guess found 2 solutions with 2S+1 = 3  
  Adding guess 0 (multiplicity = 1.000000)
  Adding guess 1 (multiplicity = 1.000000)
  Adding guess 2 (multiplicity = 1.000000)
  Adding guess 3 (multiplicity = 1.000000)

  ==> Diagonalizing Hamiltonian <==

  ----------------------------------------
    Iter.      Avg. Energy       Delta_E
  ----------------------------------------
      1      -67.775363362737  -6.778e+01
      2      -67.775363362737  +1.421e-14
  ----------------------------------------
  The Davidson-Liu algorithm converged in 3 iterations.

  Davidson-liu solver algorithm
  Generating determinants with N-1 electrons.

  Time spen building single lists: 0.000015 s
  Memory for single-hole lists: 0.000057 MB
  Memory for single-hole maps:  0.000229 MB
  Generating determinants with N-2 electrons.

  Memory for double-hole lists: 0.000011 MB
  Memory for double-hole maps:  0.000038 MB
  number of guess vectors: 6
  Error: 6 guess vectors with 2S+1 = 1 but only 4 were found!
  Initial guess found 4 solutions with 2S+1 = 1 *
  Initial guess found 2 solutions with 2S+1 = 3  
  Adding guess 0 (multiplicity = 1.000000)
  Adding guess 1 (multiplicity = 1.000000)
  Adding guess 2 (multiplicity = 1.000000)
  Adding guess 3 (multiplicity = 1.000000)

  ==> Diagonalizing Hamiltonian <==

  ----------------------------------------
    Iter.      Avg. Energy       Delta_E
  ----------------------------------------
      1      -67.775363362737  -6.778e+01
      2      -67.775363362737  +1.421e-14
  ----------------------------------------
  The Davidson-Liu algorithm converged in 3 iterations.

  ===================================
    Current Job:  Ag state, root  1
  ===================================

  Forming determinants                ...  Done. Timing        0.000004 s

  ==> Determinants Summary <==

    number of alpha active electrons    =     1
    number of beta active electrons     =     1
    root symmetry (zero based)          =     0
    number of determinants              =     3

  ==> Determinants |alpha|beta> <==
  
  |200>  
  |-+0>  
  |+-0>


  Diagonalizing Hamiltonian           ...

  Davidson-liu solver algorithm
  Generating determinants with N-1 electrons.

  Time spen building single lists: 0.000009 s
  Memory for single-hole lists: 0.000038 MB
  Memory for single-hole maps:  0.000153 MB
  Generating determinants with N-2 electrons.

  Memory for double-hole lists: 0.000011 MB
  Memory for double-hole maps:  0.000038 MB
  number of guess vectors: 3
  Error: 3 guess vectors with 2S+1 = 1 but only 2 were found!
  Initial guess found 2 solutions with 2S+1 = 1 *
  Initial guess found 1 solutions with 2S+1 = 3  
  Adding guess 0 (multiplicity = 1.000000)
  Adding guess 1 (multiplicity = 1.000000)

  ==> Diagonalizing Hamiltonian <==

  ----------------------------------------
    Iter.      Avg. Energy       Delta_E
  ----------------------------------------
      1      -68.359349563143  -6.836e+01
      2      -68.359349563143  +0.000e+00
  ----------------------------------------
  The Davidson-Liu algorithm converged in 3 iterations.

  Reference type: RHF
  Threshold for spin check: 0.10

  Spin State: S^2 = 0.000, S = 0.000, singlet (from 3 determinants)

  Spin State: S^2 = 0.000, S = 0.000, singlet (from 3 determinants)  Done. Timing        0.000178 s

  * * * * * * * * * * * * * * * * *
  *  CI Vectors & Configurations  *
  * * * * * * * * * * * * * * * * *

  ==> Root No. 0 <==

    200          1.0000000000

    Total Energy:   -108.954141690565677


  ==> Root No. 1 <==

    ba0         -0.7071067812
    ab0         -0.7071067812

    Total Energy:   -108.328066865948728


  Forming one-particle density        ...  Done. Timing        0.000010 s
  Checking Fock matrices (Fa, Fb)     ...
  Nonzero criteria: > 1.00E-12
  Fa_CORE    block is diagonal.
  Fb_CORE    block is diagonal.
  Fa_ACT_O   block is diagonal.
  Fb_ACT_O   block is diagonal.
  Fa_ACT_V   block is diagonal.
  Fb_ACT_V   block is diagonal.
  Warning: Fa_VIRTUAL NOT diagonal!
  Nonzero off-diagonal:    30. Largest value:  0.114434981950013
  Warning: Fb_VIRTUAL NOT diagonal!
  Nonzero off-diagonal:    30. Largest value:  0.114434981950013
  Done checking Fock matrices.                   Timing        0.000052 s

  Use semi-canonical orbitals.

  Diagonalizing Fock                  ...  Done. Timing        0.000096 s


	Presorting SO-basis two-electron integrals.
	Sorting File: SO Ints (nn|nn) nbuckets = 1
	Transforming the one-electron integrals and constructing Fock matrices
	Starting first half-transformation.
	Sorting half-transformed integrals.
	First half integral transformation complete.
	Starting second half-transformation.
	Two-electron integral transformation complete.

  Integral transformation done. 0.02500000 s
  Reading the two-electron integrals from disk
  Size of two-electron integrals:   0.015809 GB
  Frozen-core energy           -101.037014771347 a.u.

 FrozenOneBody Operator takes  0.07916300 s
  Resorting integrals after freezing core.
  Frozen Orbitals takes     0.082 s.
  Diagonalizing Hamiltonian           ...

  Davidson-liu solver algorithm
  Generating determinants with N-1 electrons.

  Time spen building single lists: 0.000010 s
  Memory for single-hole lists: 0.000038 MB
  Memory for single-hole maps:  0.000153 MB
  Generating determinants with N-2 electrons.

  Memory for double-hole lists: 0.000011 MB
  Memory for double-hole maps:  0.000038 MB
  number of guess vectors: 3
  Error: 3 guess vectors with 2S+1 = 1 but only 2 were found!
  Initial guess found 2 solutions with 2S+1 = 1 *
  Initial guess found 1 solutions with 2S+1 = 3  
  Adding guess 0 (multiplicity = 1.000000)
  Adding guess 1 (multiplicity = 1.000000)

  ==> Diagonalizing Hamiltonian <==

  ----------------------------------------
    Iter.      Avg. Energy       Delta_E
  ----------------------------------------
      1      -68.359349563143  -6.836e+01
      2      -68.359349563143  -1.421e-14
  ----------------------------------------
  The Davidson-Liu algorithm converged in 3 iterations.

  Reference type: RHF
  Threshold for spin check: 0.10

  Spin State: S^2 = 0.000, S = 0.000, singlet (from 3 determinants)

  Spin State: S^2 = 0.000, S = 0.000, singlet (from 3 determinants)  Done. Timing        0.000218 s

  * * * * * * * * * * * * * * * * *
  *  CI Vectors & Configurations  *
  * * * * * * * * * * * * * * * * *

  ==> Root No. 0 <==

    200          1.0000000000

    Total Energy:   -108.954141690565677


  ==> Root No. 1 <==

    ba0         -0.7071067812
    ab0         -0.7071067812

    Total Energy:   -108.328066865948529


  Forming one-particle density        ...  Done. Timing        0.000012 s
  Checking Fock matrices (Fa, Fb)     ...
  Nonzero criteria: > 1.00E-12
  Fa_CORE    block is diagonal.
  Fb_CORE    block is diagonal.
  Fa_ACT_O   block is diagonal.
  Fb_ACT_O   block is diagonal.
  Fa_ACT_V   block is diagonal.
  Fb_ACT_V   block is diagonal.
  Fa_VIRTUAL block is diagonal.
  Fb_VIRTUAL block is diagonal.
  Done checking Fock matrices.                   Timing        0.000044 s

  Forming Lambda2                     ...  Done. Timing        0.000026 s
  Forming Lambda3                     ...  Done. Timing        0.000303 s

              ----------------------------------------------------
                 Driven Similarity Renormalization Group MBPT2
                Chenyang Li, Kevin Hannon, Francesco Evangelista
              ----------------------------------------------------

    Reference:
      J. Chem. Theory Comput. 2015, 11, 2097-2108.

  ==> Calculation Information <==

    ntamp                                           15
    flow parameter                           5.000e-01
    taylor expansion threshold               1.000e-03
    intruder_tamp                            1.000e-01
    int_type                                CONVENTIONAL
    source operator                           STANDARD
    reference relaxation                          NONE

  ==> Checking Orbitals <==

    Checking if orbitals are semi-canonicalized ...
    Warning! Orbitals are not semi-canonicalized!
    Off-Diagonal norms of the core, active, virtual blocks of Fock matrix
                  core          active         virtual
    ---------------------------------------------------
    Fa    0.0000000000    0.0443136248    0.0000000000
    Fb    0.0000000000    0.0443136248    0.0000000000
    ---------------------------------------------------

    Warning: ignore testing of semi-canonical orbitals. DSRG-MRPT2 energy may be meaningless.

  ==> Computing DSRG-MRPT2 ... <==

    Computing T2 amplitudes                  ...  Done. Timing        0.006474 s
    Computing T1 amplitudes                  ...  Done. Timing        0.000995 s
    Renormalizing two-electron integrals     ...  Done. Timing        0.005706 s
    Renormalizing Fock matrix elements       ...  Done. Timing        0.001260 s
    Computing <[F, T1]>                      ...  Done. Timing        0.000973 s
    Computing <[F, T2]>                      ...  Done. Timing        0.002153 s
    Computing <[V, T1]>                      ...  Done. Timing        0.001662 s
    Computing <[V, T2]> (C_2)^4              ...  Done. Timing        0.008872 s
    Computing <[V, T2]> C_4 (C_2)^2 HH       ...  Done. Timing        0.001735 s
    Computing <[V, T2]> C_4 (C_2)^2 PP       ...  Done. Timing        0.001803 s
    Computing <[V, T2]> C_4 (C_2)^2 PH       ...  Done. Timing        0.007195 s
    Computing <[V, T2]> C_6 C_2              ...  Done. Timing        0.004547 s

  ==> Excitation Amplitudes Summary <==

    Active Indices:    1    2    3 
    Largest T1 amplitudes for spin case A:
       i       a                  i       a                  i       a               
    --------------------------------------------------------------------------------
    [ 24      25    ]-0.045680 [ 21      22    ]-0.045680 [ 15      16    ] 0.029285 
    [ 15      18    ] 0.021194 [  1       4    ] 0.021189 [  0       4    ] 0.020678 
    [  3       6    ]-0.015383 [ 15      17    ]-0.011489 [  0       3    ]-0.010074 
    [  0       1    ]-0.006804 [  1       6    ] 0.003004 [ 24      26    ] 0.002577 
    [ 21      23    ] 0.002577 [ 15      20    ] 0.001841 [  0       6    ]-0.001824 
    --------------------------------------------------------------------------------
    Norm of T1A vector: (nonzero elements: 19)                    0.083081031093034.
    --------------------------------------------------------------------------------
    Largest T1 amplitudes for spin case B:
       _       _                  _       _                  _       _               
       i       a                  i       a                  i       a               
    --------------------------------------------------------------------------------
    [ 24      25    ]-0.045680 [ 21      22    ]-0.045680 [ 15      16    ] 0.029285 
    [ 15      18    ] 0.021194 [  1       4    ] 0.021189 [  0       4    ] 0.020678 
    [  3       6    ]-0.015383 [ 15      17    ]-0.011489 [  0       3    ]-0.010074 
    [  0       1    ]-0.006804 [  1       6    ] 0.003004 [ 24      26    ] 0.002577 
    [ 21      23    ] 0.002577 [ 15      20    ] 0.001841 [  0       6    ]-0.001824 
    --------------------------------------------------------------------------------
    Norm of T1B vector: (nonzero elements: 19)                    0.083081031093034.
    --------------------------------------------------------------------------------
    Largest T2 amplitudes for spin case AA:
       i   j   a   b              i   j   a   b              i   j   a   b           
    --------------------------------------------------------------------------------
    [ 21  24   8  11] 0.049094 [  1  21   1  22] 0.045132 [  1  24   1  25] 0.045132 
    [ 15  21   1  11] 0.043949 [ 15  24   1   8] 0.043949 [  1  15   1  16]-0.037421 
    [  1  21  11  17] 0.035063 [  1  24   8  17] 0.035063 [  3  21   3  22] 0.029193 
    [  3  24   3  25] 0.029193 [  0  15   1  16] 0.024535 [ 15  21   4  11] 0.022720 
    [ 15  24   4   8] 0.022720 [  3  15   3  16]-0.022690 [  1  15   1  18]-0.021506 
    --------------------------------------------------------------------------------
    Norm of T2AA vector: (nonzero elements: 2396)                 0.361966477658898.
    --------------------------------------------------------------------------------
    Largest T2 amplitudes for spin case AB:
           _       _                  _       _                  _       _           
       i   j   a   b              i   j   a   b              i   j   a   b           
    --------------------------------------------------------------------------------
    [ 21  21  11  11]-0.069519 [ 24  24   8   8]-0.069519 [ 15  21   1  11] 0.057857 
    [ 15  24   1   8] 0.057857 [ 15  15   1   1]-0.057681 [  1  24   1  25] 0.046228 
    [  1  21   1  22] 0.046228 [  1   1   1   4]-0.042377 [  1  15   1  17] 0.038756 
    [  1   1  17  17]-0.036396 [ 15  15   1   4]-0.035860 [ 15  15  11  11]-0.033915 
    [ 15  15   8   8]-0.033915 [  0   0   1   1]-0.027607 [ 24  24  25  25]-0.024390 
    --------------------------------------------------------------------------------
    Norm of T2AB vector: (nonzero elements: 3146)                 0.375130695290934.
    --------------------------------------------------------------------------------
    Largest T2 amplitudes for spin case BB:
       _   _   _   _              _   _   _   _              _   _   _   _           
       i   j   a   b              i   j   a   b              i   j   a   b           
    --------------------------------------------------------------------------------
    [ 21  24   8  11] 0.049094 [  1  21   1  22] 0.045132 [  1  24   1  25] 0.045132 
    [ 15  21   1  11] 0.043949 [ 15  24   1   8] 0.043949 [  1  15   1  16]-0.037421 
    [  1  21  11  17] 0.035063 [  1  24   8  17] 0.035063 [  3  21   3  22] 0.029193 
    [  3  24   3  25] 0.029193 [  0  15   1  16] 0.024535 [ 15  21   4  11] 0.022720 
    [ 15  24   4   8] 0.022720 [  3  15   3  16]-0.022690 [  1  15   1  18]-0.021506 
    --------------------------------------------------------------------------------
    Norm of T2BB vector: (nonzero elements: 2396)                 0.361966477658898.
    --------------------------------------------------------------------------------

  ==> Possible Intruders <==

    T1 amplitudes larger than 0.1000 for spin case A: NULL
    T1 amplitudes larger than 0.1000 for spin case B: NULL
    T2 amplitudes larger than 0.1000 for spin case AA: NULL
    T2 amplitudes larger than 0.1000 for spin case AB: NULL
    T2 amplitudes larger than 0.1000 for spin case BB: NULL

  ==> DSRG-MRPT2 Energy Summary <==

    E0 (reference)                 =   -108.328066865948529
    <[F, T1]>                      =     -0.036974709033860
    <[F, T2]>                      =     -0.001195122583161
    <[V, T1]>                      =     -0.001195122583161
    <[V, T2]> (C_2)^4              =     -0.351118530521685
    <[V, T2]> C_4 (C_2)^2 HH       =      0.006287234995486
    <[V, T2]> C_4 (C_2)^2 PP       =      0.004615065803323
    <[V, T2]> C_4 (C_2)^2 PH       =      0.008452797513415
    <[V, T2]> C_6 C_2              =     -0.000000000000000
    <[V, T2]>                      =     -0.331763432209462
    DSRG-MRPT2 correlation energy  =     -0.371128386409644
    DSRG-MRPT2 total energy        =   -108.699195252358166
    max(T1)                        =      0.045680327395907
    max(T2)                        =      0.069519180518111
    ||T1||                         =      0.117494320947710
    ||T2||                         =      0.908257461348607

  Energy took 0.05024700 s

  ==> Total Timings (s) for Computing Commutators <==

             [H1, T1]    [H1, T2]    [H2, T1]    [H2, T2]
    -----------------------------------------------------
    -> C0       0.001       0.002       0.002       0.024
    -> C1       0.000       0.000       0.000       0.000
    -> C2                   0.000       0.000       0.000
    -----------------------------------------------------


  ==> Compute Singles Percentage <==
    Will compute 4 roots for CISD in Irrep Ag.


  Davidson-liu solver algorithm
  Generating determinants with N-1 electrons.

  Time spen building single lists: 0.000014 s
  Memory for single-hole lists: 0.000057 MB
  Memory for single-hole maps:  0.000229 MB
  Generating determinants with N-2 electrons.

  Memory for double-hole lists: 0.000011 MB
  Memory for double-hole maps:  0.000038 MB
  number of guess vectors: 6
  Error: 6 guess vectors with 2S+1 = 1 but only 4 were found!
  Initial guess found 4 solutions with 2S+1 = 1 *
  Initial guess found 2 solutions with 2S+1 = 3  
  Adding guess 0 (multiplicity = 1.000000)
  Adding guess 1 (multiplicity = 1.000000)
  Adding guess 2 (multiplicity = 1.000000)
  Adding guess 3 (multiplicity = 1.000000)

  ==> Diagonalizing Hamiltonian <==

  ----------------------------------------
    Iter.      Avg. Energy       Delta_E
  ----------------------------------------
      1      -67.775363362736  -6.778e+01
      2      -67.775363362736  -1.421e-14
  ----------------------------------------
  The Davidson-Liu algorithm converged in 3 iterations.

  Davidson-liu solver algorithm
  Generating determinants with N-1 electrons.

  Time spen building single lists: 0.000013 s
  Memory for single-hole lists: 0.000057 MB
  Memory for single-hole maps:  0.000229 MB
  Generating determinants with N-2 electrons.

  Memory for double-hole lists: 0.000011 MB
  Memory for double-hole maps:  0.000038 MB
  number of guess vectors: 6
  Error: 6 guess vectors with 2S+1 = 1 but only 4 were found!
  Initial guess found 4 solutions with 2S+1 = 1 *
  Initial guess found 2 solutions with 2S+1 = 3  
  Adding guess 0 (multiplicity = 1.000000)
  Adding guess 1 (multiplicity = 1.000000)
  Adding guess 2 (multiplicity = 1.000000)
  Adding guess 3 (multiplicity = 1.000000)

  ==> Diagonalizing Hamiltonian <==

  ----------------------------------------
    Iter.      Avg. Energy       Delta_E
  ----------------------------------------
      1      -67.775363362736  -6.778e+01
      2      -67.775363362736  -1.421e-14
  ----------------------------------------
  The Davidson-Liu algorithm converged in 3 iterations.

  Davidson-liu solver algorithm
  Generating determinants with N-1 electrons.

  Time spen building single lists: 0.000014 s
  Memory for single-hole lists: 0.000057 MB
  Memory for single-hole maps:  0.000229 MB
  Generating determinants with N-2 electrons.

  Memory for double-hole lists: 0.000011 MB
  Memory for double-hole maps:  0.000038 MB
  number of guess vectors: 6
  Error: 6 guess vectors with 2S+1 = 1 but only 4 were found!
  Initial guess found 4 solutions with 2S+1 = 1 *
  Initial guess found 2 solutions with 2S+1 = 3  
  Adding guess 0 (multiplicity = 1.000000)
  Adding guess 1 (multiplicity = 1.000000)
  Adding guess 2 (multiplicity = 1.000000)
  Adding guess 3 (multiplicity = 1.000000)

  ==> Diagonalizing Hamiltonian <==

  ----------------------------------------
    Iter.      Avg. Energy       Delta_E
  ----------------------------------------
      1      -67.775363362736  -6.778e+01
      2      -67.775363362736  -1.421e-14
  ----------------------------------------
  The Davidson-Liu algorithm converged in 3 iterations.

  Davidson-liu solver algorithm
  Generating determinants with N-1 electrons.

  Time spen building single lists: 0.000012 s
  Memory for single-hole lists: 0.000057 MB
  Memory for single-hole maps:  0.000229 MB
  Generating determinants with N-2 electrons.

  Memory for double-hole lists: 0.000011 MB
  Memory for double-hole maps:  0.000038 MB
  number of guess vectors: 6
  Error: 6 guess vectors with 2S+1 = 1 but only 4 were found!
  Initial guess found 4 solutions with 2S+1 = 1 *
  Initial guess found 2 solutions with 2S+1 = 3  
  Adding guess 0 (multiplicity = 1.000000)
  Adding guess 1 (multiplicity = 1.000000)
  Adding guess 2 (multiplicity = 1.000000)
  Adding guess 3 (multiplicity = 1.000000)

  ==> Diagonalizing Hamiltonian <==

  ----------------------------------------
    Iter.      Avg. Energy       Delta_E
  ----------------------------------------
      1      -67.775363362736  -6.778e+01
      2      -67.775363362736  -1.421e-14
  ----------------------------------------
  The Davidson-Liu algorithm converged in 3 iterations.
  ==> Overlap Metric of <CISD|CIS> for Irrep Ag <==

  ## <CISD|CIS> in Irrep Ag (Symmetry 0) ##
  Irrep: 1 Size: 4 x 2

                 1                   2

    1     0.99978868989006    -0.00000001686114
    2     0.00000002394219     0.99871474910777
    3     0.00000018347581     0.05068382300705
    4     0.02055664291385     0.00000002916269





  ==> ACTIVE-DSRGPT2 Summary <==

    Sym.    ROOT          CIS                 PT2          % in CISD 
    -----------------------------------------------------------------
               1     -108.3280668659     -108.6991952524   99.9 (  1)
      Ag       0     -108.9541416906     -109.2548316767  100.0 (  0)
    -----------------------------------------------------------------

  ==> Relative Energy WRT Totally Symmetric Ground State (eV) <==

    Sym.    ROOT     CIS       PT2              Excitation Type
    -----------------------------------------------------------
      Ag       1    17.036    15.120             0Ag -> 1Ag (S)
    -----------------------------------------------------------
    Excitation type: orbitals are zero-based (active only).
    (S) for singles; (D) for doubles.

  Your calculation took 0.57259900 seconds
	DSRG energy fo Ag state...........................................PASSED

*** Psi4 exiting successfully. Buy a developer a beer!
