
    -----------------------------------------------------------------------
          Psi4: An Open-Source Ab Initio Electronic Structure Package
                               Psi4 1.1a2.dev169 

                         Git: Rev {master} b2d0904 


    J. M. Turney, A. C. Simmonett, R. M. Parrish, E. G. Hohenstein,
    F. A. Evangelista, J. T. Fermann, B. J. Mintz, L. A. Burns, J. J. Wilke,
    M. L. Abrams, N. J. Russ, M. L. Leininger, C. L. Janssen, E. T. Seidl,
    W. D. Allen, H. F. Schaefer, R. A. King, E. F. Valeev, C. D. Sherrill,
    and T. D. Crawford, WIREs Comput. Mol. Sci. 2, 556-565 (2012)
    (doi: 10.1002/wcms.93)


                         Additional Contributions by
    A. E. DePrince, U. Bozkaya, A. Yu. Sokolov, D. G. A. Smith, R. Di Remigio,
    R. M. Richard, J. F. Gonthier, H. R. McAlexander, M. Saitow, and
    B. P. Pritchard
    -----------------------------------------------------------------------


    Psi4 started on: Thursday, 09 February 2017 03:04PM

    Process ID:  24577
    PSIDATADIR: /Users/jeffschriber/src/psi4_debug_install/share/psi4
    Memory:     500.0 MiB
    Threads:    1
    
  ==> Input File <==

--------------------------------------------------------------------------
#! This tests the Adaptive-CI procedure using energy selection
#! Generated using commit GITCOMMIT
#

import forte

refscf = -2.03108138291133 #TEST
refaci = -2.115356497830 #TEST
refacipt2 = -2.116356354872 #TEST

molecule li2{
0 1
H -0.4  0.0 0.0
H  0.4  0.0 0.0
H  0.1 -0.3 1.0
H -0.1  0.5 1.0
}

set {
  basis cc-pVDZ
  e_convergence 10
  d_convergence 10
  r_convergence 10
  scf_type pk
  guess gwh
}

set forte {
  job_type aci
  SELECT_TYPE aimed_energy
  sigma 0.001000
  nroot 1
  charge 0
  aci_add_aimed_degenerate false
  project_out_spin_contaminants false
  enforce_spin_complete false
  diag_algorithm full
}

energy('scf')

compare_values(refscf, get_variable("CURRENT ENERGY"),9, "SCF energy") #TEST

energy('forte')
compare_values(refaci, get_variable("ACI ENERGY"),9, "ACI energy") #TEST
compare_values(refacipt2, get_variable("ACI+PT2 ENERGY"),8, "ACI+PT2 energy") #TEST
--------------------------------------------------------------------------
/Users/jeffschriber/src/forte/forte.so loaded.

*** tstart() called on Jeffs-MacBook-Pro-2.local
*** at Thu Feb  9 15:04:05 2017


         ---------------------------------------------------------
                                   SCF
            by Justin Turney, Rob Parrish, and Andy Simmonett
                              RHF Reference
                        1 Threads,    524 MiB Core
         ---------------------------------------------------------

  ==> Geometry <==

    Molecular point group: c1
    Full point group: C1

    Geometry (in Angstrom), charge = 0, multiplicity = 1:

       Center              X                  Y                   Z               Mass       
    ------------   -----------------  -----------------  -----------------  -----------------
           H         -0.400000000000    -0.050000000000    -0.500000000000     1.007825032070
           H          0.400000000000    -0.050000000000    -0.500000000000     1.007825032070
           H          0.100000000000    -0.350000000000     0.500000000000     1.007825032070
           H         -0.100000000000     0.450000000000     0.500000000000     1.007825032070

  Running in c1 symmetry.

  Rotational constants: A =     25.52952  B =     13.25079  C =     11.75880 [cm^-1]
  Rotational constants: A = 765355.63070  B = 397248.78268  C = 352519.82412 [MHz]
  Nuclear repulsion =    3.136690588132506

  Charge       = 0
  Multiplicity = 1
  Electrons    = 4
  Nalpha       = 2
  Nbeta        = 2

  ==> Algorithm <==

  SCF Algorithm Type is PK.
  DIIS enabled.
  MOM disabled.
  Fractional occupation disabled.
  Guess Type is GWH.
  Energy threshold   = 1.00e-10
  Density threshold  = 1.00e-10
  Integral threshold = 0.00e+00

  ==> Primary Basis <==

  Basis Set: file /Users/jeffschriber/src/psi4_debug_install/share/psi4/basis/cc-pvdz.gbs
    Number of shells: 12
    Number of basis function: 20
    Number of Cartesian functions: 20
    Spherical Harmonics?: true
    Max angular momentum: 1

  ==> Pre-Iterations <==

   -------------------------------------------------------
    Irrep   Nso     Nmo     Nalpha   Nbeta   Ndocc  Nsocc
   -------------------------------------------------------
     A         20      20       0       0       0       0
   -------------------------------------------------------
    Total      20      20       2       2       2       0
   -------------------------------------------------------

  ==> Integral Setup <==

  Using in-core PK algorithm.
   Calculation information:
      Number of atoms:                   4
      Number of AO shells:              12
      Number of primitives:             20
      Number of atomic orbitals:        20
      Number of basis functions:        20

      Integral cutoff                 1.00e-12
      Number of threads:                 1

  Performing in-core PK
  Using 44310 doubles for integral storage.
  We computed 3081 shell quartets total.
  Whereas there are 3081 unique shell quartets.
  ==> DiskJK: Disk-Based J/K Matrices <==

    J tasked:                  Yes
    K tasked:                  Yes
    wK tasked:                  No
    Memory (MB):               375
    Schwarz Cutoff:          1E-12

    OpenMP threads:              1
  Minimum eigenvalue in the overlap matrix is 5.7536001511E-02.
  Using Symmetric Orthogonalization.

  SCF Guess: Generalized Wolfsberg-Helmholtz.

  ==> Iterations <==

                        Total Energy        Delta E     RMS |[F,P]|

   @RHF iter   1:    -1.84014935812622   -1.84015e+00   2.47849e-02 
   @RHF iter   2:    -2.01742297769517   -1.77274e-01   5.46427e-03 DIIS
   @RHF iter   3:    -2.03075676867326   -1.33338e-02   8.10172e-04 DIIS
   @RHF iter   4:    -2.03108069576760   -3.23927e-04   4.83230e-05 DIIS
   @RHF iter   5:    -2.03108137217734   -6.76410e-07   3.21514e-06 DIIS
   @RHF iter   6:    -2.03108138109902   -8.92168e-09   1.12166e-06 DIIS
   @RHF iter   7:    -2.03108138276120   -1.66218e-09   3.00676e-07 DIIS
   @RHF iter   8:    -2.03108138290437   -1.43176e-10   7.08609e-08 DIIS
   @RHF iter   9:    -2.03108138291130   -6.93134e-12   6.48722e-09 DIIS
   @RHF iter  10:    -2.03108138291133   -2.26485e-14   1.18712e-09 DIIS
   @RHF iter  11:    -2.03108138291133    0.00000e+00   3.01061e-10 DIIS
   @RHF iter  12:    -2.03108138291133   -1.77636e-15   5.60274e-11 DIIS

  ==> Post-Iterations <==

    Orbital Energies (a.u.)
    -----------------------

    Doubly Occupied:                                                      

       1A     -0.831246     2A     -0.342592  

    Virtual:                                                              

       3A      0.129478     4A      0.165148     5A      0.393168  
       6A      0.538096     7A      0.774720     8A      0.856941  
       9A      1.266282    10A      1.334161    11A      1.395911  
      12A      1.711764    13A      1.730215    14A      1.976391  
      15A      2.251536    16A      2.286274    17A      2.404790  
      18A      2.533391    19A      3.214030    20A      3.326443  

    Final Occupation by Irrep:
              A 
    DOCC [     2 ]

  Energy converged.

  @RHF Final Energy:    -2.03108138291133

   => Energetics <=

    Nuclear Repulsion Energy =              3.1366905881325060
    One-Electron Energy =                  -7.9878690268690562
    Two-Electron Energy =                   2.8200970558252223
    DFT Exchange-Correlation Energy =       0.0000000000000000
    Empirical Dispersion Energy =           0.0000000000000000
    PCM Polarization Energy =               0.0000000000000000
    EFP Energy =                            0.0000000000000000
    Total Energy =                         -2.0310813829113279



Properties will be evaluated at   0.000000,   0.000000,   0.000000 Bohr

Properties computed using the SCF density matrix

  Nuclear Dipole Moment: (a.u.)
     X:     0.0000      Y:     0.0000      Z:     0.0000

  Electronic Dipole Moment: (a.u.)
     X:     0.0029      Y:    -0.0417      Z:    -0.0248

  Dipole Moment: (a.u.)
     X:     0.0029      Y:    -0.0417      Z:    -0.0248     Total:     0.0486

  Dipole Moment: (Debye)
     X:     0.0074      Y:    -0.1060      Z:    -0.0631     Total:     0.1235


*** tstop() called on Jeffs-MacBook-Pro-2.local at Thu Feb  9 15:04:05 2017
Module time:
	user time   =       0.13 seconds =       0.00 minutes
	system time =       0.02 seconds =       0.00 minutes
	total time  =          0 seconds =       0.00 minutes
Total time:
	user time   =       0.13 seconds =       0.00 minutes
	system time =       0.02 seconds =       0.00 minutes
	total time  =          0 seconds =       0.00 minutes
	SCF energy........................................................PASSED

         ---------------------------------------------------------
                                   SCF
            by Justin Turney, Rob Parrish, and Andy Simmonett
                              RHF Reference
                        1 Threads,    524 MiB Core
         ---------------------------------------------------------

  ==> Geometry <==

    Molecular point group: c1
    Full point group: C1

    Geometry (in Angstrom), charge = 0, multiplicity = 1:

       Center              X                  Y                   Z               Mass       
    ------------   -----------------  -----------------  -----------------  -----------------
           H         -0.400000000000    -0.050000000000    -0.500000000000     1.007825032070
           H          0.400000000000    -0.050000000000    -0.500000000000     1.007825032070
           H          0.100000000000    -0.350000000000     0.500000000000     1.007825032070
           H         -0.100000000000     0.450000000000     0.500000000000     1.007825032070

  Running in c1 symmetry.

  Rotational constants: A =     25.52952  B =     13.25079  C =     11.75880 [cm^-1]
  Rotational constants: A = 765355.63070  B = 397248.78268  C = 352519.82412 [MHz]
  Nuclear repulsion =    3.136690588132506

  Charge       = 0
  Multiplicity = 1
  Electrons    = 4
  Nalpha       = 2
  Nbeta        = 2

  ==> Algorithm <==

  SCF Algorithm Type is PK.
  DIIS enabled.
  MOM disabled.
  Fractional occupation disabled.
  Guess Type is GWH.
  Energy threshold   = 1.00e-10
  Density threshold  = 1.00e-10
  Integral threshold = 0.00e+00

  ==> Primary Basis <==

  Basis Set: file /Users/jeffschriber/src/psi4_debug_install/share/psi4/basis/cc-pvdz.gbs
    Number of shells: 12
    Number of basis function: 20
    Number of Cartesian functions: 20
    Spherical Harmonics?: true
    Max angular momentum: 1

  ==> Pre-Iterations <==

   -------------------------------------------------------
    Irrep   Nso     Nmo     Nalpha   Nbeta   Ndocc  Nsocc
   -------------------------------------------------------
     A         20      20       0       0       0       0
   -------------------------------------------------------
    Total      20      20       2       2       2       0
   -------------------------------------------------------

  ==> Integral Setup <==

  Using in-core PK algorithm.
   Calculation information:
      Number of atoms:                   4
      Number of AO shells:              12
      Number of primitives:             20
      Number of atomic orbitals:        20
      Number of basis functions:        20

      Integral cutoff                 1.00e-12
      Number of threads:                 1

  Performing in-core PK
  Using 44310 doubles for integral storage.
  We computed 3081 shell quartets total.
  Whereas there are 3081 unique shell quartets.
  ==> DiskJK: Disk-Based J/K Matrices <==

    J tasked:                  Yes
    K tasked:                  Yes
    wK tasked:                  No
    Memory (MB):               375
    Schwarz Cutoff:          1E-12

    OpenMP threads:              1
  Minimum eigenvalue in the overlap matrix is 5.7536001511E-02.
  Using Symmetric Orthogonalization.

  SCF Guess: Generalized Wolfsberg-Helmholtz.

  ==> Iterations <==

                        Total Energy        Delta E     RMS |[F,P]|

   @RHF iter   1:    -1.84014935812621   -1.84015e+00   2.47849e-02 
   @RHF iter   2:    -2.01742297769517   -1.77274e-01   5.46427e-03 DIIS
   @RHF iter   3:    -2.03075676867327   -1.33338e-02   8.10172e-04 DIIS
   @RHF iter   4:    -2.03108069576760   -3.23927e-04   4.83230e-05 DIIS
   @RHF iter   5:    -2.03108137217735   -6.76410e-07   3.21514e-06 DIIS
   @RHF iter   6:    -2.03108138109902   -8.92168e-09   1.12166e-06 DIIS
   @RHF iter   7:    -2.03108138276120   -1.66218e-09   3.00676e-07 DIIS
   @RHF iter   8:    -2.03108138290437   -1.43176e-10   7.08609e-08 DIIS
   @RHF iter   9:    -2.03108138291130   -6.92779e-12   6.48722e-09 DIIS
   @RHF iter  10:    -2.03108138291133   -2.84217e-14   1.18712e-09 DIIS
   @RHF iter  11:    -2.03108138291133    0.00000e+00   3.01061e-10 DIIS
   @RHF iter  12:    -2.03108138291133    4.44089e-15   5.60272e-11 DIIS

  ==> Post-Iterations <==

    Orbital Energies (a.u.)
    -----------------------

    Doubly Occupied:                                                      

       1A     -0.831246     2A     -0.342592  

    Virtual:                                                              

       3A      0.129478     4A      0.165148     5A      0.393168  
       6A      0.538096     7A      0.774720     8A      0.856941  
       9A      1.266282    10A      1.334161    11A      1.395911  
      12A      1.711764    13A      1.730215    14A      1.976391  
      15A      2.251536    16A      2.286274    17A      2.404790  
      18A      2.533391    19A      3.214030    20A      3.326443  

    Final Occupation by Irrep:
              A 
    DOCC [     2 ]

  Energy converged.

  @RHF Final Energy:    -2.03108138291133

   => Energetics <=

    Nuclear Repulsion Energy =              3.1366905881325060
    One-Electron Energy =                  -7.9878690268690464
    Two-Electron Energy =                   2.8200970558252143
    DFT Exchange-Correlation Energy =       0.0000000000000000
    Empirical Dispersion Energy =           0.0000000000000000
    PCM Polarization Energy =               0.0000000000000000
    EFP Energy =                            0.0000000000000000
    Total Energy =                         -2.0310813829113261



Properties will be evaluated at   0.000000,   0.000000,   0.000000 Bohr

Properties computed using the SCF density matrix

  Nuclear Dipole Moment: (a.u.)
     X:     0.0000      Y:     0.0000      Z:     0.0000

  Electronic Dipole Moment: (a.u.)
     X:     0.0029      Y:    -0.0417      Z:    -0.0248

  Dipole Moment: (a.u.)
     X:     0.0029      Y:    -0.0417      Z:    -0.0248     Total:     0.0486

  Dipole Moment: (Debye)
     X:     0.0074      Y:    -0.1060      Z:    -0.0631     Total:     0.1235

 MINTS: Wrapper to libmints.
   by Justin Turney

   Calculation information:
      Number of atoms:                   4
      Number of AO shells:              12
      Number of SO shells:              12
      Number of primitives:             20
      Number of atomic orbitals:        20
      Number of basis functions:        20

      Number of irreps:                  1
      Integral cutoff                 0.00e+00
      Number of functions per irrep: [  20 ]

 OEINTS: Overlap, kinetic, potential, dipole, and quadrupole integrals
         stored in file 35.

      Computing two-electron integrals...done
      Computed 21706 non-zero two-electron integrals.
        Stored in file 33.


Reading options from the FORTE block
Calling plugin forte.so.




  ==> MO Space Information <==

  -------------------------------
                        A   Sum
  -------------------------------
    FROZEN_DOCC         0     0
    RESTRICTED_DOCC     0     0
    ACTIVE             20    20
    RESTRICTED_UOCC     0     0
    FROZEN_UOCC         0     0
    Total              20    20
  -------------------------------

  ==> Integral Transformation <==

  Number of molecular orbitals:               20
  Number of correlated molecular orbitals:    20
  Number of frozen occupied orbitals:          0
  Number of frozen unoccupied orbitals:        0

    Molecular point group: c1
    Full point group: C1

    Geometry (in Angstrom), charge = 0, multiplicity = 1:

       Center              X                  Y                   Z               Mass       
    ------------   -----------------  -----------------  -----------------  -----------------
           H         -0.400000000000    -0.050000000000    -0.500000000000     1.007825032070
           H          0.400000000000    -0.050000000000    -0.500000000000     1.007825032070
           H          0.100000000000    -0.350000000000     0.500000000000     1.007825032070
           H         -0.100000000000     0.450000000000     0.500000000000     1.007825032070

  -AO BASIS SET INFORMATION:
    Name                   = file /Users/jeffschriber/src/psi4_debug_install/share/psi4/basis/cc-pvdz.gbs
    Total number of shells = 12
    Number of primitives   = 20
    Number of AO           = 20
    Number of SO           = 20
    Maximum AM             = 1
    Spherical Harmonics    = TRUE

  -Contraction Scheme:
    Atom   Type   All Primitives // Shells:
   ------ ------ --------------------------
       1     H     4s 1p // 2s 1p 
       2     H     4s 1p // 2s 1p 
       3     H     4s 1p // 2s 1p 
       4     H     4s 1p // 2s 1p 

  ==> AO Basis Functions <==

    [ file /Users/jeffschriber/src/psi4_debug_install/share/psi4/basis/cc-pvdz.gbs ]
    spherical
    ****
    H   1
    S   3 1.00
                        13.01000000           0.01968500
                         1.96200000           0.13797700
                         0.44460000           0.47814800
    S   1 1.00
                         0.12200000           1.00000000
    P   1 1.00
                         0.72700000           1.00000000
    ****
    H   2
    S   3 1.00
                        13.01000000           0.01968500
                         1.96200000           0.13797700
                         0.44460000           0.47814800
    S   1 1.00
                         0.12200000           1.00000000
    P   1 1.00
                         0.72700000           1.00000000
    ****
    H   3
    S   3 1.00
                        13.01000000           0.01968500
                         1.96200000           0.13797700
                         0.44460000           0.47814800
    S   1 1.00
                         0.12200000           1.00000000
    P   1 1.00
                         0.72700000           1.00000000
    ****
    H   4
    S   3 1.00
                        13.01000000           0.01968500
                         1.96200000           0.13797700
                         0.44460000           0.47814800
    S   1 1.00
                         0.12200000           1.00000000
    P   1 1.00
                         0.72700000           1.00000000
    ****


  Overall Conventional Integrals timings

	Presorting SO-basis two-electron integrals.
	Sorting File: SO Ints (nn|nn) nbuckets = 1
	Transforming the one-electron integrals and constructing Fock matrices
	Starting first half-transformation.
	Sorting half-transformed integrals.
	First half integral transformation complete.
	Starting second half-transformation.
	Two-electron integral transformation complete.

  Integral transformation done. 0.02469300 s
  Reading the two-electron integrals from disk
  Size of two-electron integrals:   0.003576 GB
  Conventional integrals take 0.07559000 s

                    ---------------------------------------
                      Adaptive Configuration Interaction
                      written by Francesco A. Evangelista
                    ---------------------------------------

  ==> Reference Information <==

  There are 0 frozen orbitals.
  There are 20 active orbitals.

  |22000000000000000000>
  REFERENCE ENERGY:         -2.031081382911
  ==> Calculation Information <==

  -----------------------------------------------------------------
    Multiplicity                             1    
    Symmetry                                 0    
    Number of roots                          1    
    Root used for properties                 0    
    Sigma                                    1.00e-03
    Gamma                                    1.00e+00
    Convergence threshold                    1.00e-10
    Determinant selection criterion          Second-order Energy
    Selection criterion                      Aimed selection
    Excited Algorithm                        AVERAGE
    Project out spin contaminants            False
    Enforce spin completeness of basis       False
    Enforce complete aimed selection         False
  -----------------------------------------------------------------
  Computing wavefunction for root 0
  Using streamlined Q-space builder.

  ==> Cycle 0 <==

  Initial P space dimension: 1
 Not checking for spin-completeness.
  Time spent diagonalizing H:   0.000071 s

    P-space  CI Energy Root   0        = -2.031081382911 Eh =   0.0000 eV

  Using 1 threads.
  Dimension of the SD space: 1602 determinants
  Time spent building the model space: 0.004679 s

  Dimension of the P + Q space: 439 determinants
  Time spent screening the model space: 0.004372 s
  Time spent diagonalizing H:   0.269191 s

    PQ-space CI Energy Root   0        = -2.112550522879 Eh =   0.0000 eV
    PQ-space CI Energy + EPT2 Root   0 = -2.113544106779 Eh =   0.0000 eV


  Most important contributions to root   0:
    0  -0.977978 0.956441180           0 |22000000000000000000>
    1   0.065543 0.004295858         436 |20200000000000000000>
    2   0.048567 0.002358719         432 |20020000000000000000>
    3   0.044755 0.002003007         438 |20000200000000000000>
    4   0.031775 0.001009623         398 |20-000+0000000000000>
    5   0.031775 0.001009623         397 |20+000-0000000000000>
    6   0.031446 0.000988821         433 |02200000000000000000>
    7  -0.028062 0.000787454         403 |+--+0000000000000000>
    8  -0.028062 0.000787454         402 |-++-0000000000000000>
    9   0.028006 0.000784329         435 |02000020000000000000>

  Spin state for root 0: S^2 = 0.000162, S = 0.000, singlet
 Cycle 0 took: 0.293953 s

  ==> Cycle 1 <==

  Initial P space dimension: 232
 Not checking for spin-completeness.
  Time spent diagonalizing H:   0.061029 s

    P-space  CI Energy Root   0        = -2.109168732070 Eh =   0.0000 eV

  Using 1 threads.
  Dimension of the SD space: 32650 determinants
  Time spent building the model space: 4.134788 s

  Dimension of the P + Q space: 982 determinants
  Time spent screening the model space: 0.061218 s
  Time spent diagonalizing H:   2.212819 s

    PQ-space CI Energy Root   0        = -2.115287571488 Eh =   0.0000 eV
    PQ-space CI Energy + EPT2 Root   0 = -2.116286837176 Eh =   0.0000 eV


  Most important contributions to root   0:
    0  -0.975606 0.951807043          37 |22000000000000000000>
    1   0.071503 0.005112711         229 |20200000000000000000>
    2   0.052279 0.002733071         231 |20020000000000000000>
    3   0.044582 0.001987585          18 |20000200000000000000>
    4   0.034301 0.001176572         155 |20-000+0000000000000>
    5   0.034301 0.001176572         137 |20+000-0000000000000>
    6   0.032460 0.001053633         230 |02200000000000000000>
    7   0.029912 0.000894712         224 |200+000-000000000000>
    8   0.029912 0.000894712          27 |200-000+000000000000>
    9  -0.029793 0.000887644         130 |+--+0000000000000000>

  Spin state for root 0: S^2 = 0.000082, S = 0.000, singlet
 Cycle 1 took: 6.515164 s

  ==> Cycle 2 <==

  Initial P space dimension: 326
 Not checking for spin-completeness.
  Time spent diagonalizing H:   0.135064 s

    P-space  CI Energy Root   0        = -2.111973424884 Eh =   0.0000 eV

  Using 1 threads.
  Dimension of the SD space: 33628 determinants
  Time spent building the model space: 7.240036 s

  Dimension of the P + Q space: 1024 determinants
  Time spent screening the model space: 0.094559 s
  Time spent diagonalizing H:   4.120233 s

    PQ-space CI Energy Root   0        = -2.115354212129 Eh =   0.0000 eV
    PQ-space CI Energy + EPT2 Root   0 = -2.116353909251 Eh =   0.0000 eV


  Most important contributions to root   0:
    0   0.975510 0.951619998         291 |22000000000000000000>
    1  -0.071824 0.005158669         102 |20200000000000000000>
    2  -0.052741 0.002781639         325 |20020000000000000000>
    3  -0.044511 0.001981251         186 |20000200000000000000>
    4  -0.034351 0.001180011         250 |20+000-0000000000000>
    5  -0.034351 0.001179977         310 |20-000+0000000000000>
    6  -0.032399 0.001049684         324 |02200000000000000000>
    7  -0.029960 0.000897624         323 |200+000-000000000000>
    8  -0.029960 0.000897615         125 |200-000+000000000000>
    9   0.029841 0.000890480         271 |+--+0000000000000000>

  Spin state for root 0: S^2 = 0.000072, S = 0.000, singlet
 Cycle 2 took: 11.648293 s

  ==> Cycle 3 <==

  Initial P space dimension: 330
 Not checking for spin-completeness.
  Time spent diagonalizing H:   0.149242 s

    P-space  CI Energy Root   0        = -2.112053110770 Eh =   0.0000 eV

  Using 1 threads.
  Dimension of the SD space: 33706 determinants
  Time spent building the model space: 7.947758 s

  Dimension of the P + Q space: 1026 determinants
  Time spent screening the model space: 0.080504 s
  Time spent diagonalizing H:   3.194970 s

    PQ-space CI Energy Root   0        = -2.115356497831 Eh =   0.0000 eV
    PQ-space CI Energy + EPT2 Root   0 = -2.116356355301 Eh =   0.0000 eV


  Most important contributions to root   0:
    0   0.975509 0.951617742         296 |22000000000000000000>
    1  -0.071825 0.005158896          97 |20200000000000000000>
    2  -0.052727 0.002780096         329 |20020000000000000000>
    3  -0.044511 0.001981232         192 |20000200000000000000>
    4  -0.034352 0.001180038         252 |20+000-0000000000000>
    5  -0.034351 0.001179981         314 |20-000+0000000000000>
    6  -0.032399 0.001049664         328 |02200000000000000000>
    7  -0.029960 0.000897607         327 |200+000-000000000000>
    8  -0.029960 0.000897605         126 |200-000+000000000000>
    9   0.029841 0.000890459          96 |-++-0000000000000000>

  Spin state for root 0: S^2 = 0.000072, S = 0.000, singlet
 Cycle 3 took: 11.433218 s

  ==> Cycle 4 <==

  Initial P space dimension: 330
 Not checking for spin-completeness.
  Time spent diagonalizing H:   0.147079 s

    P-space  CI Energy Root   0        = -2.112053110770 Eh =   0.0000 eV

  Using 1 threads.
  Dimension of the SD space: 33706 determinants
  Time spent building the model space: 7.666867 s

  Dimension of the P + Q space: 1026 determinants
  Time spent screening the model space: 0.066993 s
  Time spent diagonalizing H:   2.805770 s

    PQ-space CI Energy Root   0        = -2.115356497831 Eh =   0.0000 eV
    PQ-space CI Energy + EPT2 Root   0 = -2.116356355301 Eh =   0.0000 eV

  ***** Calculation Converged *****
  Not performing spin projection.
  1-RDM  took 0.000973 s (determinant)

  ==> ACI Summary <==

  Iterations required:                         4
  Dimension of optimized determinant space:    1026

  ACI(0.001) Correlation energy: 0.084275114920 Eh
  * Adaptive-CI Energy Root   0        = -2.115356497831 Eh =   0.0000 eV
  * Adaptive-CI Energy Root   0 + EPT2 = -2.116356355301 Eh =   0.0000 eV

  ==> Wavefunction Information <==

  Most important contributions to root   0:
    0   0.975509 0.951617742         295 |22000000000000000000>
    1  -0.071825 0.005158896          97 |20200000000000000000>
    2  -0.052727 0.002780096         329 |20020000000000000000>
    3  -0.044511 0.001981232         192 |20000200000000000000>
    4  -0.034352 0.001180038         314 |20-000+0000000000000>
    5  -0.034351 0.001179981         252 |20+000-0000000000000>
    6  -0.032399 0.001049664         328 |02200000000000000000>
    7  -0.029960 0.000897607         126 |200-000+000000000000>
    8  -0.029960 0.000897605         327 |200+000-000000000000>
    9   0.029841 0.000890459         275 |+--+0000000000000000>

  Spin state for root 0: S^2 = 0.000072, S = 0.000, singlet

  Adaptive-CI (bitset) ran in : 40.626692 s

  Saving information for root: 0

  Your calculation took 40.75422300 seconds
	ACI energy........................................................PASSED
	ACI+PT2 energy....................................................PASSED

*** Psi4 exiting successfully. Buy a developer a beer!
