
    -----------------------------------------------------------------------
          Psi4: An Open-Source Ab Initio Electronic Structure Package
                               Psi4 1.2rc2.dev6 

                         Git: Rev {master} ce9c78d dirty


    R. M. Parrish, L. A. Burns, D. G. A. Smith, A. C. Simmonett,
    A. E. DePrince III, E. G. Hohenstein, U. Bozkaya, A. Yu. Sokolov,
    R. Di Remigio, R. M. Richard, J. F. Gonthier, A. M. James,
    H. R. McAlexander, A. Kumar, M. Saitow, X. Wang, B. P. Pritchard,
    P. Verma, H. F. Schaefer III, K. Patkowski, R. A. King, E. F. Valeev,
    F. A. Evangelista, J. M. Turney, T. D. Crawford, and C. D. Sherrill,
    J. Chem. Theory Comput. 13(7) pp 3185--3197 (2017).
    (doi: 10.1021/acs.jctc.7b00174)

    -----------------------------------------------------------------------


    Psi4 started on: Monday, 10 September 2018 11:10AM

    Process ID: 47566
    Host:       jeffs-mbp-2.wireless.emory.edu
    PSIDATADIR: /Users/jeffschriber/src/psi4-debug-install/share/psi4
    Memory:     500.0 MiB
    Threads:    1
    
  ==> Input File <==

--------------------------------------------------------------------------
#! This tests the Adaptive-CI procedure using energy selection
#! Generated using commit GITCOMMIT
#

import forte

refscf = -2.03108138291133 #TEST
refaci = -2.115455550510 #TEST
refacipt2 = -2.116454736581 #TEST

molecule li2{
0 1
H -0.4  0.0 0.0
H  0.4  0.0 0.0
H  0.1 -0.3 1.0
H -0.1  0.5 1.0
}

set {
  basis cc-pVDZ
  e_convergence 10
  d_convergence 10
  r_convergence 10
  scf_type pk
  guess gwh
}

set forte {
  multiplicity 1
  ms 0.0
  job_type aci
  sigma 0.001000
  aci_nroot 1
  charge 0
  diag_algorithm sparse
  active_guess_size 300
#  aci_screen_alg average
}

energy('scf')

compare_values(refscf, get_variable("CURRENT ENERGY"),9, "SCF energy") #TEST

energy('forte')
compare_values(refaci, get_variable("ACI ENERGY"),9, "ACI energy") #TEST
compare_values(refacipt2, get_variable("ACI+PT2 ENERGY"),8, "ACI+PT2 energy") #TEST
--------------------------------------------------------------------------

*** tstart() called on jeffs-mbp-2.wireless.emory.edu
*** at Mon Sep 10 11:10:59 2018

   => Loading Basis Set <=

    Name: CC-PVDZ
    Role: ORBITAL
    Keyword: BASIS
    atoms 1-4 entry H          line    22 file /Users/jeffschriber/src/psi4-debug-install/share/psi4/basis/cc-pvdz.gbs 


         ---------------------------------------------------------
                                   SCF
            by Justin Turney, Rob Parrish, Andy Simmonett
                             and Daniel Smith
                              RHF Reference
                        1 Threads,    500 MiB Core
         ---------------------------------------------------------

  ==> Geometry <==

    Molecular point group: c1
    Full point group: C1

    Geometry (in Angstrom), charge = 0, multiplicity = 1:

       Center              X                  Y                   Z               Mass       
    ------------   -----------------  -----------------  -----------------  -----------------
           H         -0.400000000000    -0.050000000000    -0.500000000000     1.007825032070
           H          0.400000000000    -0.050000000000    -0.500000000000     1.007825032070
           H          0.100000000000    -0.350000000000     0.500000000000     1.007825032070
           H         -0.100000000000     0.450000000000     0.500000000000     1.007825032070

  Running in c1 symmetry.

  Rotational constants: A =     25.52952  B =     13.25079  C =     11.75880 [cm^-1]
  Rotational constants: A = 765355.63070  B = 397248.78268  C = 352519.82412 [MHz]
  Nuclear repulsion =    3.136690588132506

  Charge       = 0
  Multiplicity = 1
  Electrons    = 4
  Nalpha       = 2
  Nbeta        = 2

  ==> Algorithm <==

  SCF Algorithm Type is PK.
  DIIS enabled.
  MOM disabled.
  Fractional occupation disabled.
  Guess Type is GWH.
  Energy threshold   = 1.00e-10
  Density threshold  = 1.00e-10
  Integral threshold = 0.00e+00

  ==> Primary Basis <==

  Basis Set: CC-PVDZ
    Blend: CC-PVDZ
    Number of shells: 12
    Number of basis function: 20
    Number of Cartesian functions: 20
    Spherical Harmonics?: true
    Max angular momentum: 1

  ==> Pre-Iterations <==

   -------------------------------------------------------
    Irrep   Nso     Nmo     Nalpha   Nbeta   Ndocc  Nsocc
   -------------------------------------------------------
     A         20      20       0       0       0       0
   -------------------------------------------------------
    Total      20      20       2       2       2       0
   -------------------------------------------------------

  ==> Integral Setup <==

  Using in-core PK algorithm.
   Calculation information:
      Number of atoms:                   4
      Number of AO shells:              12
      Number of primitives:             20
      Number of atomic orbitals:        20
      Number of basis functions:        20

      Integral cutoff                 1.00e-12
      Number of threads:                 1

  Performing in-core PK
  Using 44310 doubles for integral storage.
  We computed 3081 shell quartets total.
  Whereas there are 3081 unique shell quartets.

  ==> DiskJK: Disk-Based J/K Matrices <==

    J tasked:                  Yes
    K tasked:                  Yes
    wK tasked:                  No
    Memory (MB):               375
    Schwarz Cutoff:          1E-12

    OpenMP threads:              1

  Minimum eigenvalue in the overlap matrix is 5.7536001511E-02.
  Using Symmetric Orthogonalization.

  SCF Guess: Generalized Wolfsberg-Helmholtz.

  ==> Iterations <==

                        Total Energy        Delta E     RMS |[F,P]|

   @RHF iter   1:    -1.84014935812622   -1.84015e+00   2.47849e-02 
   @RHF iter   2:    -2.01742297769517   -1.77274e-01   5.46427e-03 DIIS
   @RHF iter   3:    -2.03075676867326   -1.33338e-02   8.10172e-04 DIIS
   @RHF iter   4:    -2.03108069576760   -3.23927e-04   4.83230e-05 DIIS
   @RHF iter   5:    -2.03108137217734   -6.76410e-07   3.21514e-06 DIIS
   @RHF iter   6:    -2.03108138109902   -8.92168e-09   1.12166e-06 DIIS
   @RHF iter   7:    -2.03108138276120   -1.66218e-09   3.00676e-07 DIIS
   @RHF iter   8:    -2.03108138290438   -1.43177e-10   7.08609e-08 DIIS
   @RHF iter   9:    -2.03108138291130   -6.92602e-12   6.48722e-09 DIIS
   @RHF iter  10:    -2.03108138291133   -2.35367e-14   1.18712e-09 DIIS
   @RHF iter  11:    -2.03108138291133   -2.66454e-15   3.01061e-10 DIIS
   @RHF iter  12:    -2.03108138291133    8.88178e-16   5.60273e-11 DIIS

  ==> Post-Iterations <==

    Orbital Energies [Eh]
    ---------------------

    Doubly Occupied:                                                      

       1A     -0.831246     2A     -0.342592  

    Virtual:                                                              

       3A      0.129478     4A      0.165148     5A      0.393168  
       6A      0.538096     7A      0.774720     8A      0.856941  
       9A      1.266282    10A      1.334161    11A      1.395911  
      12A      1.711764    13A      1.730215    14A      1.976391  
      15A      2.251536    16A      2.286274    17A      2.404790  
      18A      2.533391    19A      3.214030    20A      3.326443  

    Final Occupation by Irrep:
              A 
    DOCC [     2 ]

  Energy converged.

  @RHF Final Energy:    -2.03108138291133

   => Energetics <=

    Nuclear Repulsion Energy =              3.1366905881325060
    One-Electron Energy =                  -7.9878690268690553
    Two-Electron Energy =                   2.8200970558252223
    Total Energy =                         -2.0310813829113270



Properties will be evaluated at   0.000000,   0.000000,   0.000000 [a0]

Properties computed using the SCF density matrix

  Nuclear Dipole Moment: [e a0]
     X:     0.0000      Y:     0.0000      Z:     0.0000

  Electronic Dipole Moment: [e a0]
     X:     0.0029      Y:    -0.0417      Z:    -0.0248

  Dipole Moment: [e a0]
     X:     0.0029      Y:    -0.0417      Z:    -0.0248     Total:     0.0486

  Dipole Moment: [D]
     X:     0.0074      Y:    -0.1060      Z:    -0.0631     Total:     0.1235


*** tstop() called on jeffs-mbp-2.wireless.emory.edu at Mon Sep 10 11:10:59 2018
Module time:
	user time   =       0.17 seconds =       0.00 minutes
	system time =       0.02 seconds =       0.00 minutes
	total time  =          0 seconds =       0.00 minutes
Total time:
	user time   =       0.17 seconds =       0.00 minutes
	system time =       0.02 seconds =       0.00 minutes
	total time  =          0 seconds =       0.00 minutes
	SCF energy........................................................PASSED

*** tstart() called on jeffs-mbp-2.wireless.emory.edu
*** at Mon Sep 10 11:10:59 2018

   => Loading Basis Set <=

    Name: CC-PVDZ
    Role: ORBITAL
    Keyword: BASIS
    atoms 1-4 entry H          line    22 file /Users/jeffschriber/src/psi4-debug-install/share/psi4/basis/cc-pvdz.gbs 


         ---------------------------------------------------------
                                   SCF
            by Justin Turney, Rob Parrish, Andy Simmonett
                             and Daniel Smith
                              RHF Reference
                        1 Threads,    500 MiB Core
         ---------------------------------------------------------

  ==> Geometry <==

    Molecular point group: c1
    Full point group: C1

    Geometry (in Angstrom), charge = 0, multiplicity = 1:

       Center              X                  Y                   Z               Mass       
    ------------   -----------------  -----------------  -----------------  -----------------
           H         -0.400000000000    -0.050000000000    -0.500000000000     1.007825032070
           H          0.400000000000    -0.050000000000    -0.500000000000     1.007825032070
           H          0.100000000000    -0.350000000000     0.500000000000     1.007825032070
           H         -0.100000000000     0.450000000000     0.500000000000     1.007825032070

  Running in c1 symmetry.

  Rotational constants: A =     25.52952  B =     13.25079  C =     11.75880 [cm^-1]
  Rotational constants: A = 765355.63070  B = 397248.78268  C = 352519.82412 [MHz]
  Nuclear repulsion =    3.136690588132506

  Charge       = 0
  Multiplicity = 1
  Electrons    = 4
  Nalpha       = 2
  Nbeta        = 2

  ==> Algorithm <==

  SCF Algorithm Type is PK.
  DIIS enabled.
  MOM disabled.
  Fractional occupation disabled.
  Guess Type is GWH.
  Energy threshold   = 1.00e-10
  Density threshold  = 1.00e-10
  Integral threshold = 0.00e+00

  ==> Primary Basis <==

  Basis Set: CC-PVDZ
    Blend: CC-PVDZ
    Number of shells: 12
    Number of basis function: 20
    Number of Cartesian functions: 20
    Spherical Harmonics?: true
    Max angular momentum: 1

  ==> Pre-Iterations <==

   -------------------------------------------------------
    Irrep   Nso     Nmo     Nalpha   Nbeta   Ndocc  Nsocc
   -------------------------------------------------------
     A         20      20       0       0       0       0
   -------------------------------------------------------
    Total      20      20       2       2       2       0
   -------------------------------------------------------

  ==> Integral Setup <==

  Using in-core PK algorithm.
   Calculation information:
      Number of atoms:                   4
      Number of AO shells:              12
      Number of primitives:             20
      Number of atomic orbitals:        20
      Number of basis functions:        20

      Integral cutoff                 1.00e-12
      Number of threads:                 1

  Performing in-core PK
  Using 44310 doubles for integral storage.
  We computed 3081 shell quartets total.
  Whereas there are 3081 unique shell quartets.

  ==> DiskJK: Disk-Based J/K Matrices <==

    J tasked:                  Yes
    K tasked:                  Yes
    wK tasked:                  No
    Memory (MB):               375
    Schwarz Cutoff:          1E-12

    OpenMP threads:              1

  Minimum eigenvalue in the overlap matrix is 5.7536001511E-02.
  Using Symmetric Orthogonalization.

  SCF Guess: Generalized Wolfsberg-Helmholtz.

  ==> Iterations <==

                        Total Energy        Delta E     RMS |[F,P]|

   @RHF iter   1:    -1.84014935812621   -1.84015e+00   2.47849e-02 
   @RHF iter   2:    -2.01742297769517   -1.77274e-01   5.46427e-03 DIIS
   @RHF iter   3:    -2.03075676867327   -1.33338e-02   8.10172e-04 DIIS
   @RHF iter   4:    -2.03108069576760   -3.23927e-04   4.83230e-05 DIIS
   @RHF iter   5:    -2.03108137217734   -6.76410e-07   3.21514e-06 DIIS
   @RHF iter   6:    -2.03108138109902   -8.92168e-09   1.12166e-06 DIIS
   @RHF iter   7:    -2.03108138276120   -1.66217e-09   3.00676e-07 DIIS
   @RHF iter   8:    -2.03108138290438   -1.43184e-10   7.08609e-08 DIIS
   @RHF iter   9:    -2.03108138291130   -6.92246e-12   6.48722e-09 DIIS
   @RHF iter  10:    -2.03108138291133   -2.22045e-14   1.18712e-09 DIIS
   @RHF iter  11:    -2.03108138291132    8.88178e-16   3.01060e-10 DIIS
   @RHF iter  12:    -2.03108138291133   -3.99680e-15   5.60274e-11 DIIS

  ==> Post-Iterations <==

    Orbital Energies [Eh]
    ---------------------

    Doubly Occupied:                                                      

       1A     -0.831246     2A     -0.342592  

    Virtual:                                                              

       3A      0.129478     4A      0.165148     5A      0.393168  
       6A      0.538096     7A      0.774720     8A      0.856941  
       9A      1.266282    10A      1.334161    11A      1.395911  
      12A      1.711764    13A      1.730215    14A      1.976391  
      15A      2.251536    16A      2.286274    17A      2.404790  
      18A      2.533391    19A      3.214030    20A      3.326443  

    Final Occupation by Irrep:
              A 
    DOCC [     2 ]

  Energy converged.

  @RHF Final Energy:    -2.03108138291133

   => Energetics <=

    Nuclear Repulsion Energy =              3.1366905881325060
    One-Electron Energy =                  -7.9878690268690518
    Two-Electron Energy =                   2.8200970558252170
    Total Energy =                         -2.0310813829113288



Properties will be evaluated at   0.000000,   0.000000,   0.000000 [a0]

Properties computed using the SCF density matrix

  Nuclear Dipole Moment: [e a0]
     X:     0.0000      Y:     0.0000      Z:     0.0000

  Electronic Dipole Moment: [e a0]
     X:     0.0029      Y:    -0.0417      Z:    -0.0248

  Dipole Moment: [e a0]
     X:     0.0029      Y:    -0.0417      Z:    -0.0248     Total:     0.0486

  Dipole Moment: [D]
     X:     0.0074      Y:    -0.1060      Z:    -0.0631     Total:     0.1235


*** tstop() called on jeffs-mbp-2.wireless.emory.edu at Mon Sep 10 11:10:59 2018
Module time:
	user time   =       0.16 seconds =       0.00 minutes
	system time =       0.02 seconds =       0.00 minutes
	total time  =          0 seconds =       0.00 minutes
Total time:
	user time   =       0.36 seconds =       0.01 minutes
	system time =       0.04 seconds =       0.00 minutes
	total time  =          0 seconds =       0.00 minutes
   => Loading Basis Set <=

    Name: STO-3G
    Role: ORBITAL
    Keyword: MINAO_BASIS
    atoms 1-4 entry H          line    19 file /Users/jeffschriber/src/psi4-debug-install/share/psi4/basis/sto-3g.gbs 


Reading options from the FORTE block
Calling plugin forte.so.



  Forte
  ----------------------------------------------------------------------------
  A suite of quantum chemistry methods for strongly correlated electrons

    git branch: aci_ex_refs - git commit: d048c1c6

  Developed by:
    Francesco A. Evangelista, Chenyang Li, Kevin P. Hannon,
    Jeffrey B. Schriber, Tianyuan Zhang, Chenxi Cai
  ----------------------------------------------------------------------------

  Size of Determinant class: 16

  ==> MO Space Information <==

  -------------------------------
                        A   Sum
  -------------------------------
    FROZEN_DOCC         0     0
    RESTRICTED_DOCC     0     0
    ACTIVE             20    20
    RESTRICTED_UOCC     0     0
    FROZEN_UOCC         0     0
    Total              20    20
  -------------------------------

  ==> Integral Transformation <==

  Number of molecular orbitals:                    20
  Number of correlated molecular orbitals:         20
  Number of frozen occupied orbitals:               0
  Number of frozen unoccupied orbitals:             0
  Two-electron integral type:              Conventional


  Overall Conventional Integrals timings

	Presorting SO-basis two-electron integrals.
	Sorting File: SO Ints (nn|nn) nbuckets = 1
	Transforming the one-electron integrals and constructing Fock matrices
	Starting first half-transformation.
	Sorting half-transformed integrals.
	First half integral transformation complete.
	Starting second half-transformation.
	Two-electron integral transformation complete.

  Integral transformation done. 0.02996400 s
  Reading the two-electron integrals from disk
  Size of two-electron integrals:   0.003576 GB
  Timing for freezing core and virtual orbitals:              0.000 s.
  Conventional integrals take 0.08974600 s
  Number of active alpha electrons: 2
  Number of active beta electrons: 2
  Maximum reference space size: 300
  Number of reference determinants: 225
  Reference generated from 8 MOs

        ---------------------------------------------------------------
                      Adaptive Configuration Interaction
          written by Jeffrey B. Schriber and Francesco A. Evangelista
        ---------------------------------------------------------------

  ==> Reference Information <==

  There are 0 frozen orbitals.
  There are 20 active orbitals.

  ==> Calculation Information <==

  -----------------------------------------------------------------
    Multiplicity                             1    
    Symmetry                                 0    
    Number of roots                          1    
    Root used for properties                 0    
    Sigma (Eh)                               1.00e-03
    Gamma (Eh^(-1))                          1.00e+00
    Convergence threshold                    1.00e-09
    Ms                                       0
    Diagonalization algorithm                SPARSE
    Determinant selection criterion          Second-order Energy
    Selection criterion                      Aimed selection
    Excited Algorithm                        ROOT_ORTHOGONALIZE
    Project out spin contaminants            True
    Enforce spin completeness of basis       True
    Enforce complete aimed selection         True
  -----------------------------------------------------------------
  Using 1 threads
  Computing wavefunction for root 0
  Using streamlined Q-space builder.

  ==> Cycle 0 <==

  Initial P space dimension: 225
  Spin-complete dimension of the P space: 225 determinants

  ==> Computing Coupling Lists <==
  --------------------------------
        α          0.000418 s
        β          0.000483 s
        αα         0.000341 s
        ββ         0.000238 s
        αβ         0.000579 s
  --------------------------------

  Davidson-liu sparse algorithm
  Time spent building H:   0.004053 s
  H contains 20925 nonzero elements (0.319 MB)
  Initial guess space is incomplete!
  Trying to add 1 determinant(s).  1 determinant(s) added.
  Initial guess found 46 solutions with 2S+1 = 1 *
  Initial guess found 47 solutions with 2S+1 = 3  
  Initial guess found 8 solutions with 2S+1 = 5  
  Adding guess 0 (multiplicity = 1.000000)
  Adding guess 1 (multiplicity = 1.000000)

  ==> Diagonalizing Hamiltonian <==

  ----------------------------------------
    Iter.      Avg. Energy       Delta_E
  ----------------------------------------
      1       -5.184321441436  -5.184e+00
      2       -5.186463465640  -2.142e-03
      3       -5.186494931859  -3.147e-05
      4       -5.186495845583  -9.137e-07
      5       -5.186495899040  -5.346e-08
      6       -5.186495900449  -1.409e-09
      7       -5.186495900648  -1.993e-10
      8       -5.186495900664  -1.571e-11
  ----------------------------------------
  The Davidson-Liu algorithm converged in 9 iterations.
  Davidson-Liu procedure took  0.014458 s
  Time spent diagonalizing H:   0.018960 s

    P-space  CI Energy Root   0        = -2.049805312532 Eh =   0.0000 eV

  Time spent forming F space:             0.076648
  Time spent merging thread F spaces:             0.004025
  size of hash: 12306
  Time spent building sorting list: 0.008601
  Size of F space: 12306
  Time spent sorting: 0.002571
  total f space: 0.06799345
  PQ space: 225
  Added 1 missing determinants in aimed selection.
  PQ space: 727
  Dimension of the P + Q space: 727 determinants
  Time spent screening the model space: 0.000212 s
  Time spent building the model space: 0.094393
  Spin-complete dimension of the PQ space: 841

  ==> Computing Coupling Lists <==
  --------------------------------
        α          0.001586 s
        β          0.001982 s
        αα         0.001031 s
        ββ         0.000907 s
        αβ         0.002193 s
  --------------------------------

  Davidson-liu sparse algorithm
  Time spent building H:   0.021126 s
  H contains 157569 nonzero elements (2.404 MB)
  Initial guess space is incomplete!
  Trying to add 9 determinant(s).  9 determinant(s) added.
  Initial guess found 48 solutions with 2S+1 = 1 *
  Initial guess found 52 solutions with 2S+1 = 3  
  Initial guess found 9 solutions with 2S+1 = 5  
  Adding guess 0 (multiplicity = 1.000000)
  Adding guess 1 (multiplicity = 1.000000)

  ==> Diagonalizing Hamiltonian <==

  ----------------------------------------
    Iter.      Avg. Energy       Delta_E
  ----------------------------------------
      1       -5.188964218690  -5.189e+00
      2       -5.249527549425  -6.056e-02
      3       -5.250662622559  -1.135e-03
      4       -5.250714376354  -5.175e-05
      5       -5.250719863545  -5.487e-06
      6       -5.250720583412  -7.199e-07
      7       -5.250720752229  -1.688e-07
      8       -5.250720774093  -2.186e-08
      9       -5.250720777433  -3.339e-09
     10       -5.250720778096  -6.635e-10
     11       -5.250720778259  -1.626e-10
     12       -5.250720778283  -2.479e-11
  ----------------------------------------
  The Davidson-Liu algorithm converged in 13 iterations.
  Davidson-Liu procedure took  0.041394 s
  Total time spent diagonalizing H:   0.064468 s

    PQ-space CI Energy Root   0        = -2.114030190151 Eh =   0.0000 eV
    PQ-space CI Energy + EPT2 Root   0 = -2.115027122435 Eh =   0.0000 eV

  Added 1 missing determinants in aimed selection.

  Most important contributions to root   0:
    0   0.976520 0.953591381         224 |22000000000000000000>
    1  -0.070423 0.004959374         208 |20200000000000000000>
    2  -0.051508 0.002653027         192 |20020000000000000000>
    3  -0.044552 0.001984903         160 |20000200000000000000>
    4  -0.033285 0.001107871         712 |20-000+0000000000000>
    5  -0.033285 0.001107871         711 |20+000-0000000000000>
    6  -0.031878 0.001016203         144 |02200000000000000000>
    7   0.028980 0.000839828         147 |-++-0000000000000000>
    8   0.028980 0.000839828         189 |+--+0000000000000000>
    9  -0.028831 0.000831215         707 |200+000-000000000000>

  Spin state for root 0: S^2 = 0.000000, S = 0.000, singlet
  Cycle 0 took: 0.194190 s

  ==> Cycle 1 <==

  Initial P space dimension: 281
  Spin-complete dimension of the P space: 367 determinants

  ==> Computing Coupling Lists <==
  --------------------------------
        α          0.000810 s
        β          0.000804 s
        αα         0.000439 s
        ββ         0.000412 s
        αβ         0.001099 s
  --------------------------------

  Davidson-liu sparse algorithm
  Time spent building H:   0.005310 s
  H contains 36233 nonzero elements (0.553 MB)
  Initial guess space is incomplete!
  Trying to add 5 determinant(s).  5 determinant(s) added.
  Initial guess found 47 solutions with 2S+1 = 1 *
  Initial guess found 47 solutions with 2S+1 = 3  
  Initial guess found 11 solutions with 2S+1 = 5  
  Adding guess 0 (multiplicity = 1.000000)
  Adding guess 1 (multiplicity = 1.000000)

  ==> Diagonalizing Hamiltonian <==

  ----------------------------------------
    Iter.      Avg. Energy       Delta_E
  ----------------------------------------
      1       -5.214737327085  -5.215e+00
      2       -5.248094136857  -3.336e-02
      3       -5.248401073194  -3.069e-04
      4       -5.248418316575  -1.724e-05
      5       -5.248420265964  -1.949e-06
      6       -5.248420391082  -1.251e-07
      7       -5.248420405789  -1.471e-08
      8       -5.248420407634  -1.845e-09
      9       -5.248420407972  -3.375e-10
     10       -5.248420408014  -4.274e-11
  ----------------------------------------
  The Davidson-Liu algorithm converged in 11 iterations.
  Davidson-Liu procedure took  0.018301 s
  Time spent diagonalizing H:   0.024330 s

    P-space  CI Energy Root   0        = -2.111729819882 Eh =   0.0000 eV

  Time spent forming F space:             0.149296
  Time spent merging thread F spaces:             0.012800
  size of hash: 34091
  Time spent building sorting list: 0.022931
  Size of F space: 34091
  Time spent sorting: 0.008018
  total f space: 0.00462961
  PQ space: 367
  Added 2 missing determinants in aimed selection.
  PQ space: 1043
  Dimension of the P + Q space: 1043 determinants
  Time spent screening the model space: 0.000571 s
  Time spent building the model space: 0.201849
  Spin-complete dimension of the PQ space: 1271

  ==> Computing Coupling Lists <==
  --------------------------------
        α          0.002587 s
        β          0.002583 s
        αα         0.001310 s
        ββ         0.001296 s
        αβ         0.003343 s
  --------------------------------

  Davidson-liu sparse algorithm
  Time spent building H:   0.033434 s
  H contains 245481 nonzero elements (3.746 MB)
  Initial guess found 46 solutions with 2S+1 = 1 *
  Initial guess found 46 solutions with 2S+1 = 3  
  Initial guess found 8 solutions with 2S+1 = 5  
  Adding guess 0 (multiplicity = 1.000000)
  Adding guess 1 (multiplicity = 1.000000)

  ==> Diagonalizing Hamiltonian <==

  ----------------------------------------
    Iter.      Avg. Energy       Delta_E
  ----------------------------------------
      1       -5.196590653552  -5.197e+00
      2       -5.250917482766  -5.433e-02
      3       -5.252053059946  -1.136e-03
      4       -5.252100221540  -4.716e-05
      5       -5.252105118768  -4.897e-06
      6       -5.252105639479  -5.207e-07
      7       -5.252105732605  -9.313e-08
      8       -5.252105746697  -1.409e-08
      9       -5.252105749765  -3.068e-09
     10       -5.252105750305  -5.394e-10
     11       -5.252105750412  -1.074e-10
     12       -5.252105750433  -2.083e-11
  ----------------------------------------
  The Davidson-Liu algorithm converged in 13 iterations.
  Davidson-Liu procedure took  0.055597 s
  Total time spent diagonalizing H:   0.091639 s

    PQ-space CI Energy Root   0        = -2.115415162300 Eh =   0.0000 eV
    PQ-space CI Energy + EPT2 Root   0 = -2.116414953473 Eh =   0.0000 eV


  Most important contributions to root   0:
    0   0.975481 0.951563060         279 |22000000000000000000>
    1  -0.071962 0.005178496         278 |20200000000000000000>
    2  -0.052694 0.002776639         277 |20020000000000000000>
    3  -0.044507 0.001980830         276 |20000200000000000000>
    4  -0.034380 0.001181973         275 |20+000-0000000000000>
    5  -0.034380 0.001181973         274 |20-000+0000000000000>
    6  -0.032436 0.001052110         273 |02200000000000000000>
    7  -0.029947 0.000896844         270 |200+000-000000000000>
    8  -0.029947 0.000896844         269 |200-000+000000000000>
    9   0.029799 0.000887978         272 |-++-0000000000000000>

  Spin state for root 0: S^2 = 0.000000, S = 0.000, singlet
  Cycle 1 took: 0.341376 s

  ==> Cycle 2 <==

  Initial P space dimension: 332
  Spin-complete dimension of the P space: 412 determinants

  ==> Computing Coupling Lists <==
  --------------------------------
        α          0.000964 s
        β          0.000889 s
        αα         0.000484 s
        ββ         0.000456 s
        αβ         0.001518 s
  --------------------------------

  Davidson-liu sparse algorithm
  Time spent building H:   0.006255 s
  H contains 43826 nonzero elements (0.669 MB)
  Initial guess found 45 solutions with 2S+1 = 1 *
  Initial guess found 45 solutions with 2S+1 = 3  
  Initial guess found 10 solutions with 2S+1 = 5  
  Adding guess 0 (multiplicity = 1.000000)
  Adding guess 1 (multiplicity = 1.000000)

  ==> Diagonalizing Hamiltonian <==

  ----------------------------------------
    Iter.      Avg. Energy       Delta_E
  ----------------------------------------
      1       -5.214237844805  -5.214e+00
      2       -5.248989222892  -3.475e-02
      3       -5.249304553382  -3.153e-04
      4       -5.249321709798  -1.716e-05
      5       -5.249323766319  -2.057e-06
      6       -5.249323871522  -1.052e-07
      7       -5.249323881894  -1.037e-08
      8       -5.249323883132  -1.238e-09
      9       -5.249323883371  -2.391e-10
     10       -5.249323883396  -2.498e-11
  ----------------------------------------
  The Davidson-Liu algorithm converged in 11 iterations.
  Davidson-Liu procedure took  0.017863 s
  Time spent diagonalizing H:   0.024816 s

    P-space  CI Energy Root   0        = -2.112633295263 Eh =   0.0000 eV

  Time spent forming F space:             0.159192
  Time spent merging thread F spaces:             0.013904
  size of hash: 34442
  Time spent building sorting list: 0.023376
  Size of F space: 34442
  Time spent sorting: 0.009089
  total f space: 0.00376202
  PQ space: 412
  Added 1 missing determinants in aimed selection.
  PQ space: 1065
  Dimension of the P + Q space: 1065 determinants
  Time spent screening the model space: 0.000414 s
  Time spent building the model space: 0.213581
  Spin-complete dimension of the PQ space: 1305

  ==> Computing Coupling Lists <==
  --------------------------------
        α          0.002908 s
        β          0.002691 s
        αα         0.001616 s
        ββ         0.001287 s
        αβ         0.003296 s
  --------------------------------

  Davidson-liu sparse algorithm
  Time spent building H:   0.032896 s
  H contains 253149 nonzero elements (3.863 MB)
  Initial guess found 46 solutions with 2S+1 = 1 *
  Initial guess found 46 solutions with 2S+1 = 3  
  Initial guess found 8 solutions with 2S+1 = 5  
  Adding guess 0 (multiplicity = 1.000000)
  Adding guess 1 (multiplicity = 1.000000)

  ==> Diagonalizing Hamiltonian <==

  ----------------------------------------
    Iter.      Avg. Energy       Delta_E
  ----------------------------------------
      1       -5.196650610588  -5.197e+00
      2       -5.250832644468  -5.418e-02
      3       -5.252084791749  -1.252e-03
      4       -5.252133144437  -4.835e-05
      5       -5.252137691321  -4.547e-06
      6       -5.252138197373  -5.061e-07
      7       -5.252138292166  -9.479e-08
      8       -5.252138305497  -1.333e-08
      9       -5.252138308178  -2.681e-09
     10       -5.252138308658  -4.800e-10
     11       -5.252138308758  -1.002e-10
     12       -5.252138308776  -1.839e-11
  ----------------------------------------
  The Davidson-Liu algorithm converged in 13 iterations.
  Davidson-Liu procedure took  0.055587 s
  Total time spent diagonalizing H:   0.091057 s

    PQ-space CI Energy Root   0        = -2.115447720644 Eh =   0.0000 eV
    PQ-space CI Energy + EPT2 Root   0 = -2.116446799678 Eh =   0.0000 eV


  Most important contributions to root   0:
    0   0.975456 0.951513734         331 |22000000000000000000>
    1  -0.071995 0.005183212         330 |20200000000000000000>
    2  -0.052711 0.002778472         329 |20020000000000000000>
    3  -0.044531 0.001983023         328 |20000200000000000000>
    4  -0.034406 0.001183751         327 |20+000-0000000000000>
    5  -0.034406 0.001183751         326 |20-000+0000000000000>
    6  -0.032384 0.001048736         325 |02200000000000000000>
    7  -0.029933 0.000896013         324 |200+000-000000000000>
    8  -0.029933 0.000896013         323 |200-000+000000000000>
    9   0.029801 0.000888110         322 |-++-0000000000000000>

  Spin state for root 0: S^2 = 0.000000, S = 0.000, singlet
  Cycle 2 took: 0.355426 s

  ==> Cycle 3 <==

  Initial P space dimension: 334
  Spin-complete dimension of the P space: 414 determinants

  ==> Computing Coupling Lists <==
  --------------------------------
        α          0.000899 s
        β          0.000890 s
        αα         0.000485 s
        ββ         0.000458 s
        αβ         0.001218 s
  --------------------------------

  Davidson-liu sparse algorithm
  Time spent building H:   0.006433 s
  H contains 43918 nonzero elements (0.670 MB)
  Initial guess found 45 solutions with 2S+1 = 1 *
  Initial guess found 45 solutions with 2S+1 = 3  
  Initial guess found 10 solutions with 2S+1 = 5  
  Adding guess 0 (multiplicity = 1.000000)
  Adding guess 1 (multiplicity = 1.000000)

  ==> Diagonalizing Hamiltonian <==

  ----------------------------------------
    Iter.      Avg. Energy       Delta_E
  ----------------------------------------
      1       -5.214237844805  -5.214e+00
      2       -5.249031674642  -3.479e-02
      3       -5.249346784242  -3.151e-04
      4       -5.249363925329  -1.714e-05
      5       -5.249365992134  -2.067e-06
      6       -5.249366093766  -1.016e-07
      7       -5.249366103268  -9.502e-09
      8       -5.249366104366  -1.098e-09
      9       -5.249366104572  -2.060e-10
     10       -5.249366104592  -2.048e-11
  ----------------------------------------
  The Davidson-Liu algorithm converged in 11 iterations.
  Davidson-Liu procedure took  0.017696 s
  Time spent diagonalizing H:   0.024793 s

    P-space  CI Energy Root   0        = -2.112675516460 Eh =   0.0000 eV

  Time spent forming F space:             0.164864
  Time spent merging thread F spaces:             0.013777
  size of hash: 34440
  Time spent building sorting list: 0.022675
  Size of F space: 34440
  Time spent sorting: 0.010221
  total f space: 0.00372146
  PQ space: 414
  Added 3 missing determinants in aimed selection.
  PQ space: 1067
  Dimension of the P + Q space: 1067 determinants
  Time spent screening the model space: 0.000547 s
  Time spent building the model space: 0.220428
  Spin-complete dimension of the PQ space: 1317

  ==> Computing Coupling Lists <==
  --------------------------------
        α          0.002810 s
        β          0.002635 s
        αα         0.001340 s
        ββ         0.001295 s
        αβ         0.004130 s
  --------------------------------

  Davidson-liu sparse algorithm
  Time spent building H:   0.037547 s
  H contains 255637 nonzero elements (3.901 MB)
  Initial guess found 46 solutions with 2S+1 = 1 *
  Initial guess found 46 solutions with 2S+1 = 3  
  Initial guess found 8 solutions with 2S+1 = 5  
  Adding guess 0 (multiplicity = 1.000000)
  Adding guess 1 (multiplicity = 1.000000)

  ==> Diagonalizing Hamiltonian <==

  ----------------------------------------
    Iter.      Avg. Energy       Delta_E
  ----------------------------------------
      1       -5.196650610588  -5.197e+00
      2       -5.250840471726  -5.419e-02
      3       -5.252092665224  -1.252e-03
      4       -5.252140975305  -4.831e-05
      5       -5.252145525561  -4.550e-06
      6       -5.252146029027  -5.035e-07
      7       -5.252146122367  -9.334e-08
      8       -5.252146135440  -1.307e-08
      9       -5.252146138074  -2.634e-09
     10       -5.252146138544  -4.701e-10
     11       -5.252146138643  -9.825e-11
  ----------------------------------------
  The Davidson-Liu algorithm converged in 12 iterations.
  Davidson-Liu procedure took  0.051293 s
  Total time spent diagonalizing H:   0.091564 s

    PQ-space CI Energy Root   0        = -2.115455550510 Eh =   0.0000 eV
    PQ-space CI Energy + EPT2 Root   0 = -2.116454736581 Eh =   0.0000 eV


  Most important contributions to root   0:
    0  -0.975442 0.951487027         333 |22000000000000000000>
    1   0.072106 0.005199300         332 |20200000000000000000>
    2   0.052706 0.002777975         331 |20020000000000000000>
    3   0.044528 0.001982721         330 |20000200000000000000>
    4   0.034456 0.001187223         329 |20+000-0000000000000>
    5   0.034456 0.001187223         328 |20-000+0000000000000>
    6   0.032375 0.001048114         327 |02200000000000000000>
    7   0.029944 0.000896668         326 |200+000-000000000000>
    8   0.029944 0.000896668         325 |200-000+000000000000>
    9  -0.029791 0.000887492         324 |-++-0000000000000000>

  Spin state for root 0: S^2 = 0.000000, S = 0.000, singlet
  Cycle 3 took: 0.362801 s

  ==> Cycle 4 <==

  Initial P space dimension: 334
  Spin-complete dimension of the P space: 414 determinants

  ==> Computing Coupling Lists <==
  --------------------------------
        α          0.000903 s
        β          0.000893 s
        αα         0.000482 s
        ββ         0.000457 s
        αβ         0.001221 s
  --------------------------------

  Davidson-liu sparse algorithm
  Time spent building H:   0.006489 s
  H contains 43918 nonzero elements (0.670 MB)
  Initial guess found 45 solutions with 2S+1 = 1 *
  Initial guess found 45 solutions with 2S+1 = 3  
  Initial guess found 10 solutions with 2S+1 = 5  
  Adding guess 0 (multiplicity = 1.000000)
  Adding guess 1 (multiplicity = 1.000000)

  ==> Diagonalizing Hamiltonian <==

  ----------------------------------------
    Iter.      Avg. Energy       Delta_E
  ----------------------------------------
      1       -5.214237844805  -5.214e+00
      2       -5.249031674642  -3.479e-02
      3       -5.249346784242  -3.151e-04
      4       -5.249363925329  -1.714e-05
      5       -5.249365992134  -2.067e-06
      6       -5.249366093766  -1.016e-07
      7       -5.249366103268  -9.502e-09
      8       -5.249366104366  -1.098e-09
      9       -5.249366104572  -2.060e-10
     10       -5.249366104592  -2.048e-11
  ----------------------------------------
  The Davidson-Liu algorithm converged in 11 iterations.
  Davidson-Liu procedure took  0.017944 s
  Time spent diagonalizing H:   0.025121 s

    P-space  CI Energy Root   0        = -2.112675516460 Eh =   0.0000 eV

  Time spent forming F space:             0.173039
  Time spent merging thread F spaces:             0.011983
  size of hash: 34440
  Time spent building sorting list: 0.022953
  Size of F space: 34440
  Time spent sorting: 0.008430
  total f space: 0.00372146
  PQ space: 414
  Added 3 missing determinants in aimed selection.
  PQ space: 1067
  Dimension of the P + Q space: 1067 determinants
  Time spent screening the model space: 0.000403 s
  Time spent building the model space: 0.224920
  Spin-complete dimension of the PQ space: 1317

  ==> Computing Coupling Lists <==
  --------------------------------
        α          0.002650 s
        β          0.002759 s
        αα         0.001340 s
        ββ         0.001295 s
        αβ         0.003393 s
  --------------------------------

  Davidson-liu sparse algorithm
  Time spent building H:   0.033820 s
  H contains 255637 nonzero elements (3.901 MB)
  Initial guess found 46 solutions with 2S+1 = 1 *
  Initial guess found 46 solutions with 2S+1 = 3  
  Initial guess found 8 solutions with 2S+1 = 5  
  Adding guess 0 (multiplicity = 1.000000)
  Adding guess 1 (multiplicity = 1.000000)

  ==> Diagonalizing Hamiltonian <==

  ----------------------------------------
    Iter.      Avg. Energy       Delta_E
  ----------------------------------------
      1       -5.196650610588  -5.197e+00
      2       -5.250840471726  -5.419e-02
      3       -5.252092665224  -1.252e-03
      4       -5.252140975305  -4.831e-05
      5       -5.252145525561  -4.550e-06
      6       -5.252146029027  -5.035e-07
      7       -5.252146122367  -9.334e-08
      8       -5.252146135440  -1.307e-08
      9       -5.252146138074  -2.634e-09
     10       -5.252146138544  -4.701e-10
     11       -5.252146138643  -9.825e-11
  ----------------------------------------
  The Davidson-Liu algorithm converged in 12 iterations.
  Davidson-Liu procedure took  0.053901 s
  Total time spent diagonalizing H:   0.090409 s

    PQ-space CI Energy Root   0        = -2.115455550510 Eh =   0.0000 eV
    PQ-space CI Energy + EPT2 Root   0 = -2.116454736581 Eh =   0.0000 eV

  ***** Calculation Converged *****
  Saving root 0, ref_root is 0
  Number of old roots: 1

  ==> ACI Summary <==

  Iterations required:                         4
  Dimension of optimized determinant space:    1317

  * Adaptive-CI Energy Root   0        = -2.115455550510 Eh =   0.0000 eV
  * Adaptive-CI Energy Root   0 + EPT2 = -2.116454736581 Eh =   0.0000 eV

  ==> Wavefunction Information <==

  Most important contributions to root   0:
    0  -0.975442 0.951487027         333 |22000000000000000000>
    1   0.072106 0.005199300         332 |20200000000000000000>
    2   0.052706 0.002777975         331 |20020000000000000000>
    3   0.044528 0.001982721         330 |20000200000000000000>
    4   0.034456 0.001187223         329 |20+000-0000000000000>
    5   0.034456 0.001187223         328 |20-000+0000000000000>
    6   0.032375 0.001048114         327 |02200000000000000000>
    7   0.029944 0.000896668         326 |200+000-000000000000>
    8   0.029944 0.000896668         325 |200-000+000000000000>
    9  -0.029791 0.000887492         324 |-++-0000000000000000>

  Spin state for root 0: S^2 = 0.000000, S = 0.000, singlet

  ==> Computing Coupling Lists <==
  --------------------------------
        α          0.003223 s
        β          0.003068 s
        αα         0.001343 s
        ββ         0.001297 s
        αβ         0.003318 s
  --------------------------------
  1-RDM  took 0.006891 s (determinant)

  ==> NATURAL ORBITALS <==

        1A      1.962157      2A      1.941103      3A      0.037691  
        4A      0.029153      5A      0.009443      6A      0.006211  
        7A      0.003752      8A      0.003522      9A      0.003299  
       10A      0.000924     11A      0.000678     12A      0.000629  
       13A      0.000296     14A      0.000281     15A      0.000237  
       16A      0.000201     17A      0.000178     18A      0.000153  
       19A      0.000049     20A      0.000044  


  RDMS took 0.020028

  Adaptive-CI ran in : 1.639234 s

  Saving information for root: 0	ACI energy........................................................PASSED
	ACI+PT2 energy....................................................PASSED

    Psi4 stopped on: Monday, 10 September 2018 11:11AM
    Psi4 wall time for execution: 0:00:02.26

*** Psi4 exiting successfully. Buy a developer a beer!
