
    -----------------------------------------------------------------------
          Psi4: An Open-Source Ab Initio Electronic Structure Package
                               Psi4 undefined 

                         Git: Rev {master} a5d3586 


    R. M. Parrish, L. A. Burns, D. G. A. Smith, A. C. Simmonett,
    A. E. DePrince III, E. G. Hohenstein, U. Bozkaya, A. Yu. Sokolov,
    R. Di Remigio, R. M. Richard, J. F. Gonthier, A. M. James,
    H. R. McAlexander, A. Kumar, M. Saitow, X. Wang, B. P. Pritchard,
    P. Verma, H. F. Schaefer III, K. Patkowski, R. A. King, E. F. Valeev,
    F. A. Evangelista, J. M. Turney, T. D. Crawford, and C. D. Sherrill,
    J. Chem. Theory Comput. 13(7) pp 3185--3197 (2017).
    (doi: 10.1021/acs.jctc.7b00174)


                         Additional Contributions by
    P. Kraus, H. Kruse, M. H. Lechner, M. C. Schieber, R. A. Shaw,
    A. Alenaizan, R. Galvelis, Z. L. Glick, S. Lehtola, and J. P. Misiewicz

    -----------------------------------------------------------------------


    Psi4 started on: Friday, 19 April 2019 10:58PM

    Process ID: 56875
    Host:       CHE-FEVANGE-01I (2)
    PSIDATADIR: /Users/fevange/Source/psi4/objdir-Debug/stage/share/psi4
    Memory:     500.0 MiB
    Threads:    1
    
  ==> Input File <==

--------------------------------------------------------------------------
#! Test AVAS algorithm with selection based on the cumulative threshold including all orbitals

import forte

refscf = -113.87663391962522
reffci = -113.911667467206257

molecule {
0 1
C           -0.000000000000    -0.000000000006    -0.599542970149
O           -0.000000000000     0.000000000001     0.599382404096
H           -0.000000000000    -0.938817812172    -1.186989139808
H            0.000000000000     0.938817812225    -1.186989139839
noreorient
symmetry c1
}

set {
  basis cc-pVDZ
  reference rhf
  scf_type pk
  e_convergence 12
}

set forte {
  subspace ["C(2px)","O(2px)"]
  avas True
  avas_diagonalize true
  avas_sigma 1.0
  active_space_solver fci
  print 1
  restricted_docc [7]
  active [3]
  root_sym 0
  multiplicity 1
  ms 0.0
}

energy('scf')
compare_values(refscf, variable("CURRENT ENERGY"),9, "SCF energy") #TEST

energy('forte')
compare_values(reffci, variable("CURRENT ENERGY"),9, "FCI energy") #TEST
--------------------------------------------------------------------------

*** tstart() called on CHE-FEVANGE-01I (2)
*** at Fri Apr 19 22:58:43 2019

   => Loading Basis Set <=

    Name: CC-PVDZ
    Role: ORBITAL
    Keyword: BASIS
    atoms 1   entry C          line   138 file /Users/fevange/Source/psi4/objdir-Debug/stage/share/psi4/basis/cc-pvdz.gbs 
    atoms 2   entry O          line   198 file /Users/fevange/Source/psi4/objdir-Debug/stage/share/psi4/basis/cc-pvdz.gbs 
    atoms 3-4 entry H          line    22 file /Users/fevange/Source/psi4/objdir-Debug/stage/share/psi4/basis/cc-pvdz.gbs 


         ---------------------------------------------------------
                                   SCF
               by Justin Turney, Rob Parrish, Andy Simmonett
                          and Daniel G. A. Smith
                              RHF Reference
                        1 Threads,    500 MiB Core
         ---------------------------------------------------------

  ==> Geometry <==

    Molecular point group: c1
    Full point group: C2v

    Geometry (in Angstrom), charge = 0, multiplicity = 1:

       Center              X                  Y                   Z               Mass       
    ------------   -----------------  -----------------  -----------------  -----------------
         C            0.000000000000    -0.000000000006    -0.599542970149    12.000000000000
         O            0.000000000000     0.000000000001     0.599382404096    15.994914619570
         H            0.000000000000    -0.938817812172    -1.186989139808     1.007825032230
         H            0.000000000000     0.938817812225    -1.186989139839     1.007825032230

  Running in c1 symmetry.

  Rotational constants: A =      9.48896  B =      1.30683  C =      1.14863 [cm^-1]
  Rotational constants: A = 284471.93102  B =  39177.64207  C =  34435.20529 [MHz]
  Nuclear repulsion =   31.397403427550312

  Charge       = 0
  Multiplicity = 1
  Electrons    = 16
  Nalpha       = 8
  Nbeta        = 8

  ==> Algorithm <==

  SCF Algorithm Type is PK.
  DIIS enabled.
  MOM disabled.
  Fractional occupation disabled.
  Guess Type is SAD.
  Energy threshold   = 1.00e-12
  Density threshold  = 1.00e-06
  Integral threshold = 0.00e+00

  ==> Primary Basis <==

  Basis Set: CC-PVDZ
    Blend: CC-PVDZ
    Number of shells: 18
    Number of basis function: 38
    Number of Cartesian functions: 40
    Spherical Harmonics?: true
    Max angular momentum: 2

  ==> Pre-Iterations <==

   -------------------------------------------------------
    Irrep   Nso     Nmo     Nalpha   Nbeta   Ndocc  Nsocc
   -------------------------------------------------------
     A         38      38       0       0       0       0
   -------------------------------------------------------
    Total      38      38       8       8       8       0
   -------------------------------------------------------

  ==> Integral Setup <==

  Using in-core PK algorithm.
   Calculation information:
      Number of atoms:                   4
      Number of AO shells:              18
      Number of primitives:             54
      Number of atomic orbitals:        40
      Number of basis functions:        38

      Integral cutoff                 1.00e-12
      Number of threads:                 1

  Performing in-core PK
  Using 549822 doubles for integral storage.
  We computed 14706 shell quartets total.
  Whereas there are 14706 unique shell quartets.

  ==> DiskJK: Disk-Based J/K Matrices <==

    J tasked:                  Yes
    K tasked:                  Yes
    wK tasked:                  No
    Memory [MiB]:              375
    Schwarz Cutoff:          1E-12

    OpenMP threads:              1

  Minimum eigenvalue in the overlap matrix is 1.8903118096E-02.
  Using Symmetric Orthogonalization.

  SCF Guess: Superposition of Atomic Densities via on-the-fly atomic UHF.

  ==> Iterations <==

                        Total Energy        Delta E     RMS |[F,P]|

   @RHF iter SAD:  -113.15417572488420   -1.13154e+02   0.00000e+00 
   @RHF iter   1:  -113.81783400946416   -6.63658e-01   9.54871e-03 DIIS
   @RHF iter   2:  -113.84529363840079   -2.74596e-02   7.73644e-03 DIIS
   @RHF iter   3:  -113.87608474830745   -3.07911e-02   5.77270e-04 DIIS
   @RHF iter   4:  -113.87657192006590   -4.87172e-04   1.60139e-04 DIIS
   @RHF iter   5:  -113.87662083913563   -4.89191e-05   7.36677e-05 DIIS
   @RHF iter   6:  -113.87663293531244   -1.20962e-05   2.56357e-05 DIIS
   @RHF iter   7:  -113.87663388488561   -9.49573e-07   5.24107e-06 DIIS
   @RHF iter   8:  -113.87663391906743   -3.41818e-08   6.10390e-07 DIIS
   @RHF iter   9:  -113.87663391960857   -5.41135e-10   1.07125e-07 DIIS
   @RHF iter  10:  -113.87663391962492   -1.63567e-11   1.54980e-08 DIIS
   @RHF iter  11:  -113.87663391962522   -2.98428e-13   1.85604e-09 DIIS
  Energy and wave function converged.


  ==> Post-Iterations <==

    Orbital Energies [Eh]
    ---------------------

    Doubly Occupied:                                                      

       1A    -20.575821     2A    -11.345213     3A     -1.408135  
       4A     -0.863441     5A     -0.688531     6A     -0.648049  
       7A     -0.532174     8A     -0.434347  

    Virtual:                                                              

       9A      0.137729    10A      0.189112    11A      0.258168  
      12A      0.360798    13A      0.667845    14A      0.668651  
      15A      0.738723    16A      0.815650    17A      0.903640  
      18A      0.973084    19A      1.107483    20A      1.156071  
      21A      1.291844    22A      1.325179    23A      1.414519  
      24A      1.673164    25A      1.689023    26A      1.847823  
      27A      1.946380    28A      1.958874    29A      1.980407  
      30A      2.000790    31A      2.567994    32A      2.670689  
      33A      2.743469    34A      3.045824    35A      3.174407  
      36A      3.430055    37A      3.726999    38A      3.844490  

    Final Occupation by Irrep:
              A 
    DOCC [     8 ]

  @RHF Final Energy:  -113.87663391962522

   => Energetics <=

    Nuclear Repulsion Energy =             31.3974034275503122
    One-Electron Energy =                -217.5566522593990726
    Two-Electron Energy =                  72.2826149122235506
    Total Energy =                       -113.8766339196252204

Computation Completed


Properties will be evaluated at   0.000000,   0.000000,   0.000000 [a0]

Properties computed using the SCF density matrix

  Nuclear Dipole Moment: [e a0]
     X:     0.0000      Y:     0.0000      Z:    -2.2227

  Electronic Dipole Moment: [e a0]
     X:     0.0000      Y:    -0.0000      Z:     1.1792

  Dipole Moment: [e a0]
     X:     0.0000      Y:     0.0000      Z:    -1.0435     Total:     1.0435

  Dipole Moment: [D]
     X:     0.0000      Y:     0.0000      Z:    -2.6523     Total:     2.6523


*** tstop() called on CHE-FEVANGE-01I (2) at Fri Apr 19 22:58:44 2019
Module time:
	user time   =       0.98 seconds =       0.02 minutes
	system time =       0.03 seconds =       0.00 minutes
	total time  =          1 seconds =       0.02 minutes
Total time:
	user time   =       0.98 seconds =       0.02 minutes
	system time =       0.03 seconds =       0.00 minutes
	total time  =          1 seconds =       0.02 minutes
	SCF energy........................................................PASSED

*** tstart() called on CHE-FEVANGE-01I (2)
*** at Fri Apr 19 22:58:44 2019

   => Loading Basis Set <=

    Name: CC-PVDZ
    Role: ORBITAL
    Keyword: BASIS
    atoms 1   entry C          line   138 file /Users/fevange/Source/psi4/objdir-Debug/stage/share/psi4/basis/cc-pvdz.gbs 
    atoms 2   entry O          line   198 file /Users/fevange/Source/psi4/objdir-Debug/stage/share/psi4/basis/cc-pvdz.gbs 
    atoms 3-4 entry H          line    22 file /Users/fevange/Source/psi4/objdir-Debug/stage/share/psi4/basis/cc-pvdz.gbs 


         ---------------------------------------------------------
                                   SCF
               by Justin Turney, Rob Parrish, Andy Simmonett
                          and Daniel G. A. Smith
                              RHF Reference
                        1 Threads,    500 MiB Core
         ---------------------------------------------------------

  ==> Geometry <==

    Molecular point group: c1
    Full point group: C2v

    Geometry (in Angstrom), charge = 0, multiplicity = 1:

       Center              X                  Y                   Z               Mass       
    ------------   -----------------  -----------------  -----------------  -----------------
         C            0.000000000000    -0.000000000006    -0.599542970149    12.000000000000
         O            0.000000000000     0.000000000001     0.599382404096    15.994914619570
         H            0.000000000000    -0.938817812172    -1.186989139808     1.007825032230
         H            0.000000000000     0.938817812225    -1.186989139839     1.007825032230

  Running in c1 symmetry.

  Rotational constants: A =      9.48896  B =      1.30683  C =      1.14863 [cm^-1]
  Rotational constants: A = 284471.93102  B =  39177.64207  C =  34435.20529 [MHz]
  Nuclear repulsion =   31.397403427550312

  Charge       = 0
  Multiplicity = 1
  Electrons    = 16
  Nalpha       = 8
  Nbeta        = 8

  ==> Algorithm <==

  SCF Algorithm Type is PK.
  DIIS enabled.
  MOM disabled.
  Fractional occupation disabled.
  Guess Type is SAD.
  Energy threshold   = 1.00e-12
  Density threshold  = 1.00e-08
  Integral threshold = 0.00e+00

  ==> Primary Basis <==

  Basis Set: CC-PVDZ
    Blend: CC-PVDZ
    Number of shells: 18
    Number of basis function: 38
    Number of Cartesian functions: 40
    Spherical Harmonics?: true
    Max angular momentum: 2

  ==> Pre-Iterations <==

   -------------------------------------------------------
    Irrep   Nso     Nmo     Nalpha   Nbeta   Ndocc  Nsocc
   -------------------------------------------------------
     A         38      38       0       0       0       0
   -------------------------------------------------------
    Total      38      38       8       8       8       0
   -------------------------------------------------------

  ==> Integral Setup <==

  Using in-core PK algorithm.
   Calculation information:
      Number of atoms:                   4
      Number of AO shells:              18
      Number of primitives:             54
      Number of atomic orbitals:        40
      Number of basis functions:        38

      Integral cutoff                 1.00e-12
      Number of threads:                 1

  Performing in-core PK
  Using 549822 doubles for integral storage.
  We computed 14706 shell quartets total.
  Whereas there are 14706 unique shell quartets.

  ==> DiskJK: Disk-Based J/K Matrices <==

    J tasked:                  Yes
    K tasked:                  Yes
    wK tasked:                  No
    Memory [MiB]:              375
    Schwarz Cutoff:          1E-12

    OpenMP threads:              1

  Minimum eigenvalue in the overlap matrix is 1.8903118096E-02.
  Using Symmetric Orthogonalization.

  SCF Guess: Superposition of Atomic Densities via on-the-fly atomic UHF.

  ==> Iterations <==

                        Total Energy        Delta E     RMS |[F,P]|

   @RHF iter SAD:  -113.15417572488420   -1.13154e+02   0.00000e+00 
   @RHF iter   1:  -113.81783400946416   -6.63658e-01   9.54871e-03 DIIS
   @RHF iter   2:  -113.84529363840079   -2.74596e-02   7.73644e-03 DIIS
   @RHF iter   3:  -113.87608474830745   -3.07911e-02   5.77270e-04 DIIS
   @RHF iter   4:  -113.87657192006590   -4.87172e-04   1.60139e-04 DIIS
   @RHF iter   5:  -113.87662083913563   -4.89191e-05   7.36677e-05 DIIS
   @RHF iter   6:  -113.87663293531244   -1.20962e-05   2.56357e-05 DIIS
   @RHF iter   7:  -113.87663388488561   -9.49573e-07   5.24107e-06 DIIS
   @RHF iter   8:  -113.87663391906743   -3.41818e-08   6.10390e-07 DIIS
   @RHF iter   9:  -113.87663391960857   -5.41135e-10   1.07125e-07 DIIS
   @RHF iter  10:  -113.87663391962492   -1.63567e-11   1.54980e-08 DIIS
   @RHF iter  11:  -113.87663391962522   -2.98428e-13   1.85604e-09 DIIS
  Energy and wave function converged.


  ==> Post-Iterations <==

    Orbital Energies [Eh]
    ---------------------

    Doubly Occupied:                                                      

       1A    -20.575821     2A    -11.345213     3A     -1.408135  
       4A     -0.863441     5A     -0.688531     6A     -0.648049  
       7A     -0.532174     8A     -0.434347  

    Virtual:                                                              

       9A      0.137729    10A      0.189112    11A      0.258168  
      12A      0.360798    13A      0.667845    14A      0.668651  
      15A      0.738723    16A      0.815650    17A      0.903640  
      18A      0.973084    19A      1.107483    20A      1.156071  
      21A      1.291844    22A      1.325179    23A      1.414519  
      24A      1.673164    25A      1.689023    26A      1.847823  
      27A      1.946380    28A      1.958874    29A      1.980407  
      30A      2.000790    31A      2.567994    32A      2.670689  
      33A      2.743469    34A      3.045824    35A      3.174407  
      36A      3.430055    37A      3.726999    38A      3.844490  

    Final Occupation by Irrep:
              A 
    DOCC [     8 ]

  @RHF Final Energy:  -113.87663391962522

   => Energetics <=

    Nuclear Repulsion Energy =             31.3974034275503122
    One-Electron Energy =                -217.5566522593990726
    Two-Electron Energy =                  72.2826149122235506
    Total Energy =                       -113.8766339196252204

Computation Completed


Properties will be evaluated at   0.000000,   0.000000,   0.000000 [a0]

Properties computed using the SCF density matrix

  Nuclear Dipole Moment: [e a0]
     X:     0.0000      Y:     0.0000      Z:    -2.2227

  Electronic Dipole Moment: [e a0]
     X:     0.0000      Y:    -0.0000      Z:     1.1792

  Dipole Moment: [e a0]
     X:     0.0000      Y:     0.0000      Z:    -1.0435     Total:     1.0435

  Dipole Moment: [D]
     X:     0.0000      Y:     0.0000      Z:    -2.6523     Total:     2.6523


*** tstop() called on CHE-FEVANGE-01I (2) at Fri Apr 19 22:58:45 2019
Module time:
	user time   =       1.01 seconds =       0.02 minutes
	system time =       0.02 seconds =       0.00 minutes
	total time  =          1 seconds =       0.02 minutes
Total time:
	user time   =       2.01 seconds =       0.03 minutes
	system time =       0.05 seconds =       0.00 minutes
	total time  =          2 seconds =       0.03 minutes
   => Loading Basis Set <=

    Name: STO-3G
    Role: ORBITAL
    Keyword: MINAO_BASIS
    atoms 1   entry C          line    61 file /Users/fevange/Source/psi4/objdir-Debug/stage/share/psi4/basis/sto-3g.gbs 
    atoms 2   entry O          line    81 file /Users/fevange/Source/psi4/objdir-Debug/stage/share/psi4/basis/sto-3g.gbs 
    atoms 3-4 entry H          line    19 file /Users/fevange/Source/psi4/objdir-Debug/stage/share/psi4/basis/sto-3g.gbs 


  Forte
  ----------------------------------------------------------------------------
  A suite of quantum chemistry methods for strongly correlated electrons

    git branch: mrpt - git commit: b54b1711

  Developed by:
    Francesco A. Evangelista, Chenyang Li, Kevin P. Hannon,
    Jeffrey B. Schriber, Tianyuan Zhang, Chenxi Cai,
    Nan He, Nicholas Stair, Shuhe Wang, Renke Huang
  ----------------------------------------------------------------------------

  Size of Determinant class: 32

  ==> MO Space Information <==

  Read options for space RESTRICTED_DOCC
  Read options for space ACTIVE
  -------------------------------
                        A   Sum
  -------------------------------
    FROZEN_DOCC         0     0
    RESTRICTED_DOCC     7     7
    ACTIVE              3     3
    RESTRICTED_UOCC    28    28
    FROZEN_UOCC         0     0
    Total              38    38
  -------------------------------

  List of subspaces: C(2PX) O(2PX)

  Subspace contains AOs:
       4       9

  Minimal basis:
    ================================
       AO    Atom  Label  AO type   
    --------------------------------
        1     1C      1     1S
        2     1C      1     2S
        3     1C      1     2PZ
        4     1C      1     2PX
        5     1C      1     2PY
        6     2O      1     1S
        7     2O      1     2S
        8     2O      1     2PZ
        9     2O      1     2PX
       10     2O      1     2PY
       11     3H      1     1S
       12     4H      2     1S
    ================================

  Orbital overlap with ao subspace (> 1.000000e-06):
    ========================
    Irrep   MO   <phi|P|phi>
    ------------------------
      0      7    0.970513
      0      9    0.851958
      0     14    0.112501
      0     21    0.041736
      0     23    0.006299
      0     27    0.001631
      0     36    0.000632
    ========================

  Generating AVAS orbitals

  ==> AVAS Options <==
    Number of AVAV MOs:                      0
    Number of active occupied AVAS MOs:      0
    Number of active virtual AVAS  MOs:      0
    AVAS sigma (cumulative threshold):       1.000000
    Number of occupied MOs:                  8
    Number of virtual MOs:                  30

  Diagonalizing the occupied/virtual blocks of the projector matrix
  Sum of eigenvalues: 1.985270

  AVAS selection based cumulative threshold (sigma)

  ==> AVAS MOs Information <==
    Number of inactive occupied MOs:      7
    Number of active occupied MOs:        1
    Number of active virtual MOs:         2
    Number of inactive virtual MOs:      28

    restricted_docc = [7]
    active          = [3]

  Atomic Valence MOs:
    ============================
    Occupation  MO   <phi|P|phi>
    ----------------------------
      2          1    0.970513
      0          9    0.992548
      0         10    0.022209
    ============================


  ==> Integral Transformation <==

  Number of molecular orbitals:                    38
  Number of correlated molecular orbitals:         38
  Number of frozen occupied orbitals:               0
  Number of frozen unoccupied orbitals:             0
  Two-electron integral type:              Conventional


  Overall Conventional Integrals timings

	Presorting SO-basis two-electron integrals.
	Sorting File: SO Ints (nn|nn) nbuckets = 1
	Transforming the one-electron integrals and constructing Fock matrices
	Starting first half-transformation.
	Sorting half-transformed integrals.
	First half integral transformation complete.
	Starting second half-transformation.
	Two-electron integral transformation complete.

  Integral transformation done. 0.22227011 s
  Reading the two-electron integrals from disk
  Size of two-electron integrals:   0.046606 GB
  Timing for freezing core and virtual orbitals:              0.000 s.
  Conventional integrals take 0.85332021 s

  ==> Summary of Active Space Solver Input <==

    Irrep.  Multi.  Nstates
    -------------------------
       A       1        1
    -------------------------
    Total number of states: 1
    -------------------------


  ==> String Lists <==

  Number of alpha electrons     = 1
  Number of beta electrons      = 1
  Number of alpha strings       = 3
  Number of beta strings        = 3
  Timing for strings        =      0.000 s
  Timing for NN strings     =      0.000 s
  Timing for VO strings     =      0.000 s
  Timing for OO strings     =      0.000 s
  Timing for VVOO strings   =      0.000 s
  Timing for VOVO strings   =      0.000 s
  Timing for 1-hole strings =      0.000 s
  Timing for 2-hole strings =      0.000 s
  Timing for 3-hole strings =      0.000 s
  Total timing              =      0.000 s

  ==> FCI Solver <==

    Number of determinants                           9
    Symmetry                                         0
    Multiplicity                                     1
    Number of roots                                  1
    Target root                                      0
    Trial vectors per root                          10

  Allocating memory for the Hamiltonian algorithm. Size: 2 x 3 x 3.   Memory: 0.000000 GB

  ==> FCI Initial Guess <==

  ---------------------------------------------
    Root            Energy     <S^2>   Spin
  ---------------------------------------------
      0     -113.911667467206  0.000  singlet
      1     -113.659281651900  2.000  triplet
      2     -113.384062451506  0.000  singlet
      3     -113.011859852671  0.000  singlet
      4     -112.736727576400  2.000  triplet
      5     -112.536048708733  0.000  singlet
      6     -112.305200749311  2.000  triplet
      7     -112.078972129725  0.000  singlet
      8     -111.355214845345  0.000  singlet
  ---------------------------------------------
  Timing for initial guess  =      0.007 s

  Projecting out root 1
  Projecting out root 4
  Projecting out root 6
  ==> Diagonalizing Hamiltonian <==

  ----------------------------------------
    Iter.      Avg. Energy       Delta_E
  ----------------------------------------
      1     -113.911667467206  -1.139e+02
      2     -113.911667467206  +5.684e-14
  ----------------------------------------
  The Davidson-Liu algorithm converged in 3 iterations.

  ==> Root No. 0 <==

    200      0.98014601
    020     -0.18910986

    Total Energy:      -113.911667467206257

  ==> Energy Summary <==

    Multi.  Irrep.  No.               Energy
    -----------------------------------------
       1       A     0      -113.911667467206
    -----------------------------------------	FCI energy........................................................PASSED

    Psi4 stopped on: Friday, 19 April 2019 10:58PM
    Psi4 wall time for execution: 0:00:03.08

*** Psi4 exiting successfully. Buy a developer a beer!
