
    -----------------------------------------------------------------------
          Psi4: An Open-Source Ab Initio Electronic Structure Package
                               Psi4 1.4a3.dev225 

                         Git: Rev {HEAD} 7105e37 


    D. G. A. Smith, L. A. Burns, A. C. Simmonett, R. M. Parrish,
    M. C. Schieber, R. Galvelis, P. Kraus, H. Kruse, R. Di Remigio,
    A. Alenaizan, A. M. James, S. Lehtola, J. P. Misiewicz, M. Scheurer,
    R. A. Shaw, J. B. Schriber, Y. Xie, Z. L. Glick, D. A. Sirianni,
    J. S. O'Brien, J. M. Waldrop, A. Kumar, E. G. Hohenstein,
    B. P. Pritchard, B. R. Brooks, H. F. Schaefer III, A. Yu. Sokolov,
    K. Patkowski, A. E. DePrince III, U. Bozkaya, R. A. King,
    F. A. Evangelista, J. M. Turney, T. D. Crawford, C. D. Sherrill,
    J. Chem. Phys. 152(18) 184108 (2020). https://doi.org/10.1063/5.0006002

                            Additional Code Authors
    E. T. Seidl, C. L. Janssen, E. F. Valeev, M. L. Leininger,
    J. F. Gonthier, R. M. Richard, H. R. McAlexander, M. Saitow, X. Wang,
    P. Verma, and M. H. Lechner

             Previous Authors, Complete List of Code Contributors,
                       and Citations for Specific Modules
    https://github.com/psi4/psi4/blob/master/codemeta.json
    https://github.com/psi4/psi4/graphs/contributors
    http://psicode.org/psi4manual/master/introduction.html#citing-psifour

    -----------------------------------------------------------------------


    Psi4 started on: Monday, 20 September 2021 04:18PM

    Process ID: 3766
    Host:       DESKTOP-SQPD2D3
    PSIDATADIR: /home/mhuang/psi4_install/share/psi4
    Memory:     500.0 MiB
    Threads:    1
    
  ==> Input File <==

--------------------------------------------------------------------------
# Test ACI transition dipole and oscillator strengths

import forte

r_scf = -154.809143227314
r_0ag = -154.845996422255
r_1ag = -154.590184917642
r_2ag = -154.453542434786
r_0bu = -154.545990730956
rosc_0ag_0bu = 1.103408141650
rosc_1ag_0bu = 0.013213520221
rosc_2ag_0bu = 0.040035110031

molecule butadiene{
0 1
H  1.080977 -2.558832  0.000000
H -1.080977  2.558832  0.000000
H  2.103773 -1.017723  0.000000
H -2.103773  1.017723  0.000000
H -0.973565 -1.219040  0.000000
H  0.973565  1.219040  0.000000
C  0.000000  0.728881  0.000000
C  0.000000 -0.728881  0.000000
C  1.117962 -1.474815  0.000000
C -1.117962  1.474815  0.000000
}

set {
  reference      rhf
  scf_type       df
  basis          def2-svp
  df_basis_scf   def2-universal-jkfit
  df_basis_mp2   def2-universal-jkfit
  e_convergence  10
  d_convergence  12
  maxiter        100
}
Escf, wfn = energy('scf', return_wfn=True)
compare_values(r_scf, Escf, 8, "SCF energy")

set forte{
  int_type            df
  active_space_solver aci
  sigma               0.001
  e_convergence       10
  frozen_docc         [2,0,0,2]
  restricted_docc     [5,0,0,4]
  active              [0,2,2,0]
  avg_state           [[0,1,3], [3,1,1]]
  transition_dipoles  true
  sci_excited_algorithm average
}
energy('forte', ref_wfn=wfn)

psi4.core.print_variables()
compare_values(r_0ag, variable("ENERGY ROOT 0 1AG"), 8, "CASCI(4,4) singlet Ag energy 0")
compare_values(r_1ag, variable("ENERGY ROOT 1 1AG"), 8, "CASCI(4,4) singlet Ag energy 1")
compare_values(r_2ag, variable("ENERGY ROOT 2 1AG"), 8, "CASCI(4,4) singlet Ag energy 2")
compare_values(r_0bu, variable("ENERGY ROOT 0 1BU"), 8, "CASCI(4,4) singlet Bu energy 0")
compare_values(rosc_0ag_0bu, variable("OSC. SINGLET 0AG -> 0BU"), 6, "Oscillator strength singlet 0Ag -> 0Bu")
compare_values(rosc_1ag_0bu, variable("OSC. SINGLET 1AG -> 0BU"), 6, "Oscillator strength singlet 1Ag -> 0Bu")
compare_values(rosc_2ag_0bu, variable("OSC. SINGLET 2AG -> 0BU"), 6, "Oscillator strength singlet 2Ag -> 0Bu")
--------------------------------------------------------------------------

Scratch directory: /tmp/

*** tstart() called on DESKTOP-SQPD2D3
*** at Mon Sep 20 16:18:58 2021

   => Loading Basis Set <=

    Name: DEF2-SVP
    Role: ORBITAL
    Keyword: BASIS
    atoms 1-6  entry H          line    15 file /home/mhuang/psi4_install/share/psi4/basis/def2-svp.gbs 
    atoms 7-10 entry C          line    90 file /home/mhuang/psi4_install/share/psi4/basis/def2-svp.gbs 


         ---------------------------------------------------------
                                   SCF
               by Justin Turney, Rob Parrish, Andy Simmonett
                          and Daniel G. A. Smith
                              RHF Reference
                        1 Threads,    500 MiB Core
         ---------------------------------------------------------

  ==> Geometry <==

    Molecular point group: c2h
    Full point group: C2h

    Geometry (in Angstrom), charge = 0, multiplicity = 1:

       Center              X                  Y                   Z               Mass       
    ------------   -----------------  -----------------  -----------------  -----------------
         H            1.080977000000    -2.558832000000     0.000000000000     1.007825032230
         H           -1.080977000000     2.558832000000     0.000000000000     1.007825032230
         H            2.103773000000    -1.017723000000     0.000000000000     1.007825032230
         H           -2.103773000000     1.017723000000     0.000000000000     1.007825032230
         H           -0.973565000000    -1.219040000000     0.000000000000     1.007825032230
         H            0.973565000000     1.219040000000     0.000000000000     1.007825032230
         C           -0.000000000000     0.728881000000     0.000000000000    12.000000000000
         C            0.000000000000    -0.728881000000     0.000000000000    12.000000000000
         C            1.117962000000    -1.474815000000     0.000000000000    12.000000000000
         C           -1.117962000000     1.474815000000     0.000000000000    12.000000000000

  Running in c2h symmetry.

  Rotational constants: A =      1.39831  B =      0.14741  C =      0.13335 [cm^-1]
  Rotational constants: A =  41920.28303  B =   4419.18036  C =   3997.74357 [MHz]
  Nuclear repulsion =  103.516094180281002

  Charge       = 0
  Multiplicity = 1
  Electrons    = 30
  Nalpha       = 15
  Nbeta        = 15

  ==> Algorithm <==

  SCF Algorithm Type is DF.
  DIIS enabled.
  MOM disabled.
  Fractional occupation disabled.
  Guess Type is SAD.
  Energy threshold   = 1.00e-10
  Density threshold  = 1.00e-12
  Integral threshold = 1.00e-12

  ==> Primary Basis <==

  Basis Set: DEF2-SVP
    Blend: DEF2-SVP
    Number of shells: 42
    Number of basis functions: 86
    Number of Cartesian functions: 90
    Spherical Harmonics?: true
    Max angular momentum: 2

   => Loading Basis Set <=

    Name: DEF2-UNIVERSAL-JKFIT
    Role: JKFIT
    Keyword: DF_BASIS_SCF
    atoms 1-6  entry H          line    18 file /home/mhuang/psi4_install/share/psi4/basis/def2-universal-jkfit.gbs 
    atoms 7-10 entry C          line   198 file /home/mhuang/psi4_install/share/psi4/basis/def2-universal-jkfit.gbs 

  ==> Integral Setup <==

  DFHelper Memory: AOs need 0.024 GiB; user supplied 0.366 GiB. Using in-core AOs.

  ==> MemDFJK: Density-Fitted J/K Matrices <==

    J tasked:                   Yes
    K tasked:                   Yes
    wK tasked:                   No
    OpenMP threads:               1
    Memory [MiB]:               375
    Algorithm:                 Core
    Schwarz Cutoff:           1E-12
    Mask sparsity (%):       3.8940
    Fitting Condition:        1E-10

   => Auxiliary Basis Set <=

  Basis Set: DEF2-UNIVERSAL-JKFIT
    Blend: DEF2-UNIVERSAL-JKFIT
    Number of shells: 136
    Number of basis functions: 408
    Number of Cartesian functions: 476
    Spherical Harmonics?: true
    Max angular momentum: 4

  Minimum eigenvalue in the overlap matrix is 2.5253557606E-03.
  Reciprocal condition number of the overlap matrix is 5.2110279239E-04.
    Using symmetric orthogonalization.

  ==> Pre-Iterations <==

  SCF Guess: Superposition of Atomic Densities via on-the-fly atomic UHF (no occupation information).

   -------------------------
    Irrep   Nso     Nmo    
   -------------------------
     Ag        32      32 
     Bg        11      11 
     Au        11      11 
     Bu        32      32 
   -------------------------
    Total      86      86
   -------------------------

  ==> Iterations <==

                           Total Energy        Delta E     RMS |[F,P]|

   @DF-RHF iter SAD:  -153.91732540277820   -1.53917e+02   0.00000e+00 
   @DF-RHF iter   1:  -154.72066245599484   -8.03337e-01   7.29610e-03 DIIS
   @DF-RHF iter   2:  -154.79935571753435   -7.86933e-02   2.57893e-03 DIIS
   @DF-RHF iter   3:  -154.80829792044122   -8.94220e-03   6.24221e-04 DIIS
   @DF-RHF iter   4:  -154.80907719583655   -7.79275e-04   2.22546e-04 DIIS
   @DF-RHF iter   5:  -154.80914052130453   -6.33255e-05   2.94894e-05 DIIS
   @DF-RHF iter   6:  -154.80914313600630   -2.61470e-06   4.55904e-06 DIIS
   @DF-RHF iter   7:  -154.80914322234474   -8.63384e-08   1.10510e-06 DIIS
   @DF-RHF iter   8:  -154.80914322706357   -4.71883e-09   2.75545e-07 DIIS
   @DF-RHF iter   9:  -154.80914322729606   -2.32490e-10   7.25235e-08 DIIS
   @DF-RHF iter  10:  -154.80914322731320   -1.71383e-11   1.70172e-08 DIIS
   @DF-RHF iter  11:  -154.80914322731417   -9.66338e-13   2.60575e-09 DIIS
   @DF-RHF iter  12:  -154.80914322731428   -1.13687e-13   2.58500e-10 DIIS
   @DF-RHF iter  13:  -154.80914322731417    1.13687e-13   4.02605e-11 DIIS
   @DF-RHF iter  14:  -154.80914322731422   -5.68434e-14   7.33728e-12 DIIS
   @DF-RHF iter  15:  -154.80914322731414    8.52651e-14   1.47241e-12 DIIS
   @DF-RHF iter  16:  -154.80914322731411    2.84217e-14   3.19795e-13 DIIS
  Energy and wave function converged.


  ==> Post-Iterations <==

    Orbital Energies [Eh]
    ---------------------

    Doubly Occupied:                                                      

       1Ag   -11.243124     1Bu   -11.242410     2Ag   -11.236541  
       2Bu   -11.236517     3Ag    -1.078940     3Bu    -0.987463  
       4Ag    -0.818072     4Bu    -0.748134     5Bu    -0.643712  
       5Ag    -0.634701     6Ag    -0.558610     6Bu    -0.544131  
       7Ag    -0.495371     1Au    -0.443869     1Bg    -0.322197  

    Virtual:                                                              

       2Au     0.114629     7Bu     0.202433     8Ag     0.208235  
       8Bu     0.218310     2Bg     0.237852     9Ag     0.269047  
      10Ag     0.279223     9Bu     0.295480    10Bu     0.444634  
      11Ag     0.459581    11Bu     0.535262    12Ag     0.555507  
      12Bu     0.580960    13Ag     0.603007    13Bu     0.625213  
       3Au     0.687012    14Ag     0.724716     3Bg     0.746432  
      14Bu     0.756774     4Bg     0.828193     4Au     0.847118  
      15Bu     0.874292    15Ag     0.881581    16Bu     0.900989  
      16Ag     0.905649    17Ag     0.918990    17Bu     0.950894  
      18Bu     1.023073    18Ag     1.088217    19Bu     1.090570  
      19Ag     1.227617    20Bu     1.364444    20Ag     1.392961  
       5Au     1.430889     5Bg     1.458290     6Bg     1.494105  
       6Au     1.526952     7Au     1.556506    21Ag     1.865903  
      21Bu     1.872584    22Ag     1.900788    22Bu     1.926718  
       7Bg     1.929852    23Ag     1.997455     8Au     2.040900  
      24Ag     2.049705    23Bu     2.079608    24Bu     2.085309  
       8Bg     2.177192    25Ag     2.186570     9Au     2.318316  
      25Bu     2.321201    26Bu     2.361986     9Bg     2.368748  
      26Ag     2.439444    10Au     2.574755    27Bu     2.622984  
      27Ag     2.625815    10Bg     2.668916    28Ag     2.738715  
      11Au     2.859951    11Bg     2.863134    28Bu     2.914187  
      29Ag     3.058024    29Bu     3.102155    30Ag     3.172627  
      30Bu     3.174698    31Bu     3.319895    31Ag     3.382123  
      32Bu     3.714631    32Ag     3.735700  

    Final Occupation by Irrep:
             Ag    Bg    Au    Bu 
    DOCC [     7,    1,    1,    6 ]

  @DF-RHF Final Energy:  -154.80914322731411

   => Energetics <=

    Nuclear Repulsion Energy =            103.5160941802810015
    One-Electron Energy =                -412.1828948560969366
    Two-Electron Energy =                 153.8576574485018114
    Total Energy =                       -154.8091432273141095

Computation Completed


Properties will be evaluated at   0.000000,   0.000000,   0.000000 [a0]

Properties computed using the SCF density matrix

  Nuclear Dipole Moment: [e a0]
     X:     0.0000      Y:     0.0000      Z:     0.0000

  Electronic Dipole Moment: [e a0]
     X:     0.0000      Y:     0.0000      Z:     0.0000

  Dipole Moment: [e a0]
     X:     0.0000      Y:     0.0000      Z:     0.0000     Total:     0.0000

  Dipole Moment: [D]
     X:     0.0000      Y:     0.0000      Z:     0.0000     Total:     0.0000


*** tstop() called on DESKTOP-SQPD2D3 at Mon Sep 20 16:18:59 2021
Module time:
	user time   =       1.13 seconds =       0.02 minutes
	system time =       0.08 seconds =       0.00 minutes
	total time  =          1 seconds =       0.02 minutes
Total time:
	user time   =       1.13 seconds =       0.02 minutes
	system time =       0.08 seconds =       0.00 minutes
	total time  =          1 seconds =       0.02 minutes
    SCF energy............................................................................PASSED

Scratch directory: /tmp/

 Data is an array -> call again
 Data is an array -> call again
  Forte
  ----------------------------------------------------------------------------
  A suite of quantum chemistry methods for strongly correlated electrons

    git branch: HEAD - git commit: e2f35227

  Developed by:
    Francesco A. Evangelista, Chenyang Li, Kevin P. Hannon,
    Jeffrey B. Schriber, Tianyuan Zhang, Chenxi Cai,
    Nan He, Nicholas Stair, Shuhe Wang, Renke Huang
  ----------------------------------------------------------------------------

  Size of Determinant class: 128 bits

  Preparing forte objects from a Psi4 Wavefunction object
  Read options for space FROZEN_DOCC
  Read options for space RESTRICTED_DOCC
  Read options for space ACTIVE
  Read options for space FROZEN_DOCC
  Read options for space RESTRICTED_DOCC

  ==> MO Space Information <==

  -------------------------------------------------
                       Ag    Bg    Au    Bu   Sum
  -------------------------------------------------
    FROZEN_DOCC         2     0     0     2     4
    RESTRICTED_DOCC     5     0     0     4     9
    GAS1                0     2     2     0     4
    GAS2                0     0     0     0     0
    GAS3                0     0     0     0     0
    GAS4                0     0     0     0     0
    GAS5                0     0     0     0     0
    GAS6                0     0     0     0     0
    RESTRICTED_UOCC    25     9     9    26    69
    FROZEN_UOCC         0     0     0     0     0
    Total              32    11    11    32    86
  -------------------------------------------------   => Loading Basis Set <=

    Name: DEF2-SVP
    Role: ORBITAL
    Keyword: BASIS
    atoms 1-6  entry H          line    15 file /home/mhuang/psi4_install/share/psi4/basis/def2-svp.gbs 
    atoms 7-10 entry C          line    90 file /home/mhuang/psi4_install/share/psi4/basis/def2-svp.gbs 


  Checking orbital orthonormality against current geometry ... Done (OK)

   => Loading Basis Set <=

    Name: DEF2-UNIVERSAL-JKFIT
    Role: RIFIT
    Keyword: DF_BASIS_MP2
    atoms 1-6  entry H          line    18 file /home/mhuang/psi4_install/share/psi4/basis/def2-universal-jkfit.gbs 
    atoms 7-10 entry C          line   198 file /home/mhuang/psi4_install/share/psi4/basis/def2-universal-jkfit.gbs 

   => Loading Basis Set <=

    Name: STO-3G
    Role: ORBITAL
    Keyword: MINAO_BASIS
    atoms 1-6  entry H          line    19 file /home/mhuang/psi4_install/share/psi4/basis/sto-3g.gbs 
    atoms 7-10 entry C          line    61 file /home/mhuang/psi4_install/share/psi4/basis/sto-3g.gbs 


  ==> List of Planes Requested <==

  Forte will use psi4 integrals

  ==> Primary Basis Set Summary <==

  Basis Set: DEF2-SVP
    Blend: DEF2-SVP
    Number of shells: 42
    Number of basis functions: 86
    Number of Cartesian functions: 90
    Spherical Harmonics?: true
    Max angular momentum: 2


  JK created using MemDF integrals
  DFHelper Memory: AOs need 0.024 GiB; user supplied 0.391 GiB. Using in-core AOs.

  ==> MemDFJK: Density-Fitted J/K Matrices <==

    J tasked:                   Yes
    K tasked:                   Yes
    wK tasked:                   No
    OpenMP threads:               1
    Memory [MiB]:               400
    Algorithm:                 Core
    Schwarz Cutoff:           1E-12
    Mask sparsity (%):       3.8940
    Fitting Condition:        1E-10

   => Auxiliary Basis Set <=

  Basis Set: DEF2-UNIVERSAL-JKFIT
    Blend: DEF2-UNIVERSAL-JKFIT
    Number of shells: 136
    Number of basis functions: 408
    Number of Cartesian functions: 476
    Spherical Harmonics?: true
    Max angular momentum: 4



  ==> Integral Transformation <==

  Number of molecular orbitals:                         86
  Number of correlated molecular orbitals:              82
  Number of frozen occupied orbitals:                    4
  Number of frozen unoccupied orbitals:                  0
  Two-electron integral type:              Density fitting


  Computing density fitted integrals 

  Number of auxiliary basis functions:  408
  Need 24.14 MB to store DF integrals
  DFHelper Memory: AOs need 0.024 GiB; user supplied 0.415 GiB. Using in-core AOs.

  ==> DFHelper <==
    NBF:                              86
    NAux:                            408
    Schwarz Cutoff:                1E-12
    Mask sparsity (%):                 4
    DFH Avail. Memory [GiB]:       0.415
    OpenMP threads:                    1
    Algorithm:                     STORE
    AO Core:                        True
    MO Core:                       False
    Hold Metric:                   False
    Metric Power:                 -0.500
    Fitting Condition:             1E-12
    Q Shell Max:                       9



  Transforming DF Integrals
  Timing for density-fitting transformation:                  0.158 s.

  Frozen-core energy        -176.777117606378596 a.u.
  Timing for frozen one-body operator:                        0.006 s.
  Resorting integrals after freezing core.
  Timing for resorting DF integrals:                          0.032 s.
  Timing for freezing core and virtual orbitals:              0.038 s.
  Timing for computing density-fitted integrals:              0.537 s.

  ==> Summary of Active Space Solver Input <==

    Irrep.  Multi.(2ms)      N
    --------------------------
       Ag      1  (  0)      3
       Bu      1  (  0)      1
    --------------------------
    N: number of roots
    ms: spin z component
    Total number of roots:   4
    --------------------------


--------------------------------------------------------------------------------
               Selected Configuration Interaction Excited States
  written by Jeffrey B. Schriber, Tianyuan Zhang, and Francesco A. Evangelista
--------------------------------------------------------------------------------

  ==> Calculation Information <==

  -----------------------------------------------------------------
    Multiplicity                             1    
    Symmetry                                 0    
    Number of roots                          3    
    Ms                                       0
    Excited Algorithm                        AVERAGE
  -----------------------------------------------------------------
  Using 1 thread(s)
  Computing wavefunction for root 0

        ---------------------------------------------------------------
                      Adaptive Configuration Interaction
          written by Jeffrey B. Schriber and Francesco A. Evangelista
        ---------------------------------------------------------------

  ==> Reference Information <==

  There are 13 frozen orbitals.
  There are 4 active orbitals.

  ==> Calculation Information <==

  -----------------------------------------------------------------
    Multiplicity                             1    
    Symmetry                                 0    
    Number of roots                          3    
    Root used for properties                 0    
    Roots used for averaging                 3    
    Root averaging offset                    0    
    Sigma (Eh)                               1.00e-03
    Gamma (Eh^(-1))                          1.00e+00
    Convergence threshold                    1.00e-09
    Ms                                       0
    Diagonalization algorithm                SPARSE
    Excited Algorithm                        AVERAGE
    Project out spin contaminants            True
    Enforce spin completeness of basis       True
    Enforce complete aimed selection         True
    Multiroot averaging                      Average
  -----------------------------------------------------------------
  Number of active orbitals: 4
  Number of active alpha electrons: 2
  Number of active beta electrons: 2
  Maximum reference space size: 1000
  Number of reference determinants: 20
  Reference generated from 4 MOs


  ---------------------------------- Cycle 0 -----------------------------------

  ==> Diagonalizing the Hamiltonian in the P space <==

  Initial P space dimension: 20
  Spin-complete dimension of the P space: 20 determinants

  ==> Computing 1 Coupling Lists <==

        α          1.590e-05 seconds
        β          1.950e-05 seconds

  ==> Computing 2 Coupling Lists <==

        αα         2.040e-05 seconds
        ββ         1.000e-05 seconds
        αβ         1.880e-05 seconds

  Davidson-Liu solver algorithm using SigmaVectorSparseList sigma algorithm

  Performing diagonalization of the H matrix
  Found 12 roots with 2S+1 = 1 *
  Found 7 roots with 2S+1 = 3
  Found 1 roots with 2S+1 = 5
  Time spent diagonalizing H:   0.000577 s

    P-space  CI Energy Root   0        = -154.846951936404 Eh =   0.0000 eV, S^2 = 0.000000
    P-space  CI Energy Root   1        = -154.590199121473 Eh =   6.9866 eV, S^2 = 0.000000
    P-space  CI Energy Root   2        = -154.453632532653 Eh =  10.7028 eV, S^2 = 0.000000


  ==> Finding the Q space <==

  Using AVERAGE screening algorithm
  Using 1 thread(s).
  Size of F space: 0
  Time spent building sorting list: 0.000009
  Dimension of the PQ space:                  20
  Dimension of the PQ space (spin-complete) : 20
  Time spent building the model space: 0.000212

  ==> Diagonalizing the Hamiltonian in the P + Q space <==

  Number of reference roots: 3

  ==> Computing 1 Coupling Lists <==

        α          1.380e-05 seconds
        β          1.290e-05 seconds

  ==> Computing 2 Coupling Lists <==

        αα         1.000e-05 seconds
        ββ         9.500e-06 seconds
        αβ         1.720e-05 seconds

  Davidson-Liu solver algorithm using SigmaVectorSparseList sigma algorithm

  Performing diagonalization of the H matrix
  Found 12 roots with 2S+1 = 1 *
  Found 7 roots with 2S+1 = 3
  Found 1 roots with 2S+1 = 5
  Total time spent diagonalizing H:   0.000471 s

    PQ-space CI Energy Root   0        = -154.846951936404 Eh =   0.0000 eV, S^2 = 0.000000
    PQ-space CI Energy + EPT2 Root   0 = -154.846951936404 Eh =   0.0000 eV
    PQ-space CI Energy Root   1        = -154.590199121473 Eh =   6.9866 eV, S^2 = 0.000000
    PQ-space CI Energy + EPT2 Root   1 = -154.590199121473 Eh =   6.9866 eV
    PQ-space CI Energy Root   2        = -154.453632532653 Eh =  10.7028 eV, S^2 = 0.000000
    PQ-space CI Energy + EPT2 Root   2 = -154.453632532653 Eh =  10.7028 eV


  ==> Pruning the Q space <==

  Cycle 0 took: 0.001649 s


  ---------------------------------- Cycle 1 -----------------------------------

  ==> Diagonalizing the Hamiltonian in the P space <==

  Initial P space dimension: 19
  Spin-complete dimension of the P space: 19 determinants

  ==> Computing 1 Coupling Lists <==

        α          1.340e-05 seconds
        β          1.280e-05 seconds

  ==> Computing 2 Coupling Lists <==

        αα         9.700e-06 seconds
        ββ         9.000e-06 seconds
        αβ         1.660e-05 seconds

  Davidson-Liu solver algorithm using SigmaVectorSparseList sigma algorithm

  Performing diagonalization of the H matrix
  Found 11 roots with 2S+1 = 1 *
  Found 7 roots with 2S+1 = 3
  Found 1 roots with 2S+1 = 5
  Time spent diagonalizing H:   0.000433 s

    P-space  CI Energy Root   0        = -154.845996422254 Eh =   0.0000 eV, S^2 = 0.000000
    P-space  CI Energy Root   1        = -154.590184917640 Eh =   6.9610 eV, S^2 = 0.000000
    P-space  CI Energy Root   2        = -154.453542434785 Eh =  10.6792 eV, S^2 = 0.000000


  ==> Finding the Q space <==

  Using AVERAGE screening algorithm
  Using 1 thread(s).
  Size of F space: 1
  Time spent building sorting list: 0.000003
  Dimension of the PQ space:                  19
  Dimension of the PQ space (spin-complete) : 19
  Time spent building the model space: 0.000138

  ==> Diagonalizing the Hamiltonian in the P + Q space <==

  Number of reference roots: 3

  ==> Computing 1 Coupling Lists <==

        α          4.610e-05 seconds
        β          1.290e-05 seconds

  ==> Computing 2 Coupling Lists <==

        αα         1.050e-05 seconds
        ββ         9.400e-06 seconds
        αβ         1.690e-05 seconds

  Davidson-Liu solver algorithm using SigmaVectorSparseList sigma algorithm

  Performing diagonalization of the H matrix
  Found 11 roots with 2S+1 = 1 *
  Found 7 roots with 2S+1 = 3
  Found 1 roots with 2S+1 = 5
  Total time spent diagonalizing H:   0.000696 s

    PQ-space CI Energy Root   0        = -154.845996422254 Eh =   0.0000 eV, S^2 = 0.000000
    PQ-space CI Energy + EPT2 Root   0 = -154.846337100159 Eh =   0.0000 eV
    PQ-space CI Energy Root   1        = -154.590184917640 Eh =   6.9610 eV, S^2 = 0.000000
    PQ-space CI Energy + EPT2 Root   1 = -154.590525595545 Eh =   6.9610 eV
    PQ-space CI Energy Root   2        = -154.453542434785 Eh =  10.6792 eV, S^2 = 0.000000
    PQ-space CI Energy + EPT2 Root   2 = -154.453883112690 Eh =  10.6792 eV


  ==> Pruning the Q space <==

  Cycle 1 took: 0.001784 s


  ---------------------------------- Cycle 2 -----------------------------------

  ==> Diagonalizing the Hamiltonian in the P space <==

  Initial P space dimension: 19
  Spin-complete dimension of the P space: 19 determinants

  ==> Computing 1 Coupling Lists <==

        α          1.570e-05 seconds
        β          1.310e-05 seconds

  ==> Computing 2 Coupling Lists <==

        αα         1.020e-05 seconds
        ββ         9.200e-06 seconds
        αβ         1.640e-05 seconds

  Davidson-Liu solver algorithm using SigmaVectorSparseList sigma algorithm

  Performing diagonalization of the H matrix
  Found 11 roots with 2S+1 = 1 *
  Found 7 roots with 2S+1 = 3
  Found 1 roots with 2S+1 = 5
  Time spent diagonalizing H:   0.000493 s

    P-space  CI Energy Root   0        = -154.845996422254 Eh =   0.0000 eV, S^2 = 0.000000
    P-space  CI Energy Root   1        = -154.590184917640 Eh =   6.9610 eV, S^2 = 0.000000
    P-space  CI Energy Root   2        = -154.453542434785 Eh =  10.6792 eV, S^2 = 0.000000


  ==> Finding the Q space <==

  Using AVERAGE screening algorithm
  Using 1 thread(s).
  Size of F space: 1
  Time spent building sorting list: 0.000022
  Dimension of the PQ space:                  19
  Dimension of the PQ space (spin-complete) : 19
  Time spent building the model space: 0.000203

  ==> Diagonalizing the Hamiltonian in the P + Q space <==

  Number of reference roots: 3

  ==> Computing 1 Coupling Lists <==

        α          1.440e-05 seconds
        β          1.340e-05 seconds

  ==> Computing 2 Coupling Lists <==

        αα         1.070e-05 seconds
        ββ         9.700e-06 seconds
        αβ         4.820e-05 seconds

  Davidson-Liu solver algorithm using SigmaVectorSparseList sigma algorithm

  Performing diagonalization of the H matrix
  Found 11 roots with 2S+1 = 1 *
  Found 7 roots with 2S+1 = 3
  Found 1 roots with 2S+1 = 5
  Total time spent diagonalizing H:   0.000577 s

    PQ-space CI Energy Root   0        = -154.845996422254 Eh =   0.0000 eV, S^2 = 0.000000
    PQ-space CI Energy + EPT2 Root   0 = -154.846337100159 Eh =   0.0000 eV
    PQ-space CI Energy Root   1        = -154.590184917640 Eh =   6.9610 eV, S^2 = 0.000000
    PQ-space CI Energy + EPT2 Root   1 = -154.590525595545 Eh =   6.9610 eV
    PQ-space CI Energy Root   2        = -154.453542434785 Eh =  10.6792 eV, S^2 = 0.000000
    PQ-space CI Energy + EPT2 Root   2 = -154.453883112690 Eh =  10.6792 eV

  ***** Calculation Converged *****

  ==> ACI Natural Orbitals <==

        1Au     1.957324      1Bg     1.913416      2Au     0.090405  
        2Bg     0.038855  

  ==> Excited state solver summary <==

  Iterations required:                         2
  Dimension of optimized determinant space:    19

  * Selected-CI Energy Root   0        = -154.845996422254 Eh =   0.0000 eV
  * Selected-CI Energy Root   0 + EPT2 = -154.846337100159 Eh =   0.0000 eV
  * Selected-CI Energy Root   1        = -154.590184917640 Eh =   6.9610 eV
  * Selected-CI Energy Root   1 + EPT2 = -154.590525595545 Eh =   6.9610 eV
  * Selected-CI Energy Root   2        = -154.453542434785 Eh =  10.6792 eV
  * Selected-CI Energy Root   2 + EPT2 = -154.453883112690 Eh =  10.6792 eV

  ==> Wavefunction Information <==

  Most important contributions to root   0:
    0   0.967152 0.935383709          18 |2020>
    1  -0.167139 0.027935582          15 |0022>
    2  -0.086699 0.007516799           5 |-++->
    3  -0.086699 0.007516799           4 |+--+>
    4  -0.071008 0.005042170          12 |2002>
    5   0.064369 0.004143384          10 |++-->
    6   0.064369 0.004143384           9 |--++>
    7  -0.063802 0.004070682           8 |2200>
    8  -0.056185 0.003156775          11 |0220>
    9  -0.022330 0.000498644           7 |+-+->

  Most important contributions to root   1:
    0  -0.547477 0.299730532          15 |0022>
    1  -0.353038 0.124636068          14 |20+->
    2  -0.353038 0.124636068          13 |20-+>
    3   0.325423 0.105899833          17 |+-20>
    4   0.325423 0.105899833          16 |-+20>
    5   0.298102 0.088864720          12 |2002>
    6   0.230600 0.053176461          11 |0220>
    7  -0.151160 0.022849415           7 |+-+->
    8  -0.151160 0.022849415           6 |-+-+>
    9  -0.118854 0.014126219           8 |2200>

  Most important contributions to root   2:
    0   0.541384 0.293096975          17 |+-20>
    1   0.541384 0.293096975          16 |-+20>
    2   0.416594 0.173550464          14 |20+->
    3   0.416594 0.173550464          13 |20-+>
    4   0.103841 0.010782854          15 |0022>
    5  -0.102406 0.010487083          12 |2002>
    6  -0.100794 0.010159514           3 |+-02>
    7  -0.100794 0.010159514           2 |-+02>
    8   0.085006 0.007226059          11 |0220>
    9  -0.080369 0.006459171           1 |02+->

  Saving information for root: 0

--------------------------------------------------------------------------------
               Selected Configuration Interaction Excited States
  written by Jeffrey B. Schriber, Tianyuan Zhang, and Francesco A. Evangelista
--------------------------------------------------------------------------------

  ==> Calculation Information <==

  -----------------------------------------------------------------
    Multiplicity                             1    
    Symmetry                                 3    
    Number of roots                          1    
    Ms                                       0
    Excited Algorithm                        AVERAGE
  -----------------------------------------------------------------
  Using 1 thread(s)
  Computing wavefunction for root 0

        ---------------------------------------------------------------
                      Adaptive Configuration Interaction
          written by Jeffrey B. Schriber and Francesco A. Evangelista
        ---------------------------------------------------------------

  ==> Reference Information <==

  There are 13 frozen orbitals.
  There are 4 active orbitals.

  ==> Calculation Information <==

  -----------------------------------------------------------------
    Multiplicity                             1    
    Symmetry                                 3    
    Number of roots                          1    
    Root used for properties                 0    
    Roots used for averaging                 1    
    Root averaging offset                    0    
    Sigma (Eh)                               1.00e-03
    Gamma (Eh^(-1))                          1.00e+00
    Convergence threshold                    1.00e-09
    Ms                                       0
    Diagonalization algorithm                SPARSE
    Excited Algorithm                        AVERAGE
    Project out spin contaminants            True
    Enforce spin completeness of basis       True
    Enforce complete aimed selection         True
    Multiroot averaging                      Average
  -----------------------------------------------------------------
  Number of active orbitals: 4
  Number of active alpha electrons: 2
  Number of active beta electrons: 2
  Maximum reference space size: 1000
  Number of reference determinants: 16
  Reference generated from 4 MOs


  ---------------------------------- Cycle 0 -----------------------------------

  ==> Diagonalizing the Hamiltonian in the P space <==

  Initial P space dimension: 16
  Spin-complete dimension of the P space: 16 determinants

  ==> Computing 1 Coupling Lists <==

        α          1.490e-05 seconds
        β          2.720e-05 seconds

  ==> Computing 2 Coupling Lists <==

        αα         2.310e-05 seconds
        ββ         9.900e-06 seconds
        αβ         1.680e-05 seconds

  Davidson-Liu solver algorithm using SigmaVectorSparseList sigma algorithm

  Performing diagonalization of the H matrix
  Found 8 roots with 2S+1 = 1 *
  Found 8 roots with 2S+1 = 3
  Time spent diagonalizing H:   0.000658 s

    P-space  CI Energy Root   0        = -154.546293322818 Eh =   0.0000 eV, S^2 = 0.000000


  ==> Finding the Q space <==

  Using AVERAGE screening algorithm
  Using 1 thread(s).
  Size of F space: 0
  Time spent building sorting list: 0.000002
  Dimension of the PQ space:                  16
  Dimension of the PQ space (spin-complete) : 16
  Time spent building the model space: 0.000099

  ==> Diagonalizing the Hamiltonian in the P + Q space <==

  Number of reference roots: 1

  ==> Computing 1 Coupling Lists <==

        α          1.270e-05 seconds
        β          1.150e-05 seconds

  ==> Computing 2 Coupling Lists <==

        αα         9.300e-06 seconds
        ββ         9.300e-06 seconds
        αβ         1.570e-05 seconds

  Davidson-Liu solver algorithm using SigmaVectorSparseList sigma algorithm

  Performing diagonalization of the H matrix
  Found 8 roots with 2S+1 = 1 *
  Found 8 roots with 2S+1 = 3
  Total time spent diagonalizing H:   0.000342 s

    PQ-space CI Energy Root   0        = -154.546293322818 Eh =   0.0000 eV, S^2 = 0.000000
    PQ-space CI Energy + EPT2 Root   0 = -154.546293322818 Eh =   0.0000 eV


  ==> Pruning the Q space <==

  Cycle 0 took: 0.001462 s


  ---------------------------------- Cycle 1 -----------------------------------

  ==> Diagonalizing the Hamiltonian in the P space <==

  Initial P space dimension: 12
  Spin-complete dimension of the P space: 12 determinants

  ==> Computing 1 Coupling Lists <==

        α          2.580e-05 seconds
        β          1.080e-05 seconds

  ==> Computing 2 Coupling Lists <==

        αα         8.900e-06 seconds
        ββ         8.500e-06 seconds
        αβ         1.460e-05 seconds

  Davidson-Liu solver algorithm using SigmaVectorSparseList sigma algorithm

  Performing diagonalization of the H matrix
  Found 6 roots with 2S+1 = 1 *
  Found 6 roots with 2S+1 = 3
  Time spent diagonalizing H:   0.000396 s

    P-space  CI Energy Root   0        = -154.545990730955 Eh =   0.0000 eV, S^2 = 0.000000


  ==> Finding the Q space <==

  Using AVERAGE screening algorithm
  Using 1 thread(s).
  Size of F space: 4
  Time spent building sorting list: 0.000003
  Dimension of the PQ space:                  12
  Dimension of the PQ space (spin-complete) : 12
  Time spent building the model space: 0.000104

  ==> Diagonalizing the Hamiltonian in the P + Q space <==

  Number of reference roots: 1

  ==> Computing 1 Coupling Lists <==

        α          1.110e-05 seconds
        β          1.040e-05 seconds

  ==> Computing 2 Coupling Lists <==

        αα         8.800e-06 seconds
        ββ         8.400e-06 seconds
        αβ         1.360e-05 seconds

  Davidson-Liu solver algorithm using SigmaVectorSparseList sigma algorithm

  Performing diagonalization of the H matrix
  Found 6 roots with 2S+1 = 1 *
  Found 6 roots with 2S+1 = 3
  Total time spent diagonalizing H:   0.000319 s

    PQ-space CI Energy Root   0        = -154.545990730955 Eh =   0.0000 eV, S^2 = 0.000000
    PQ-space CI Energy + EPT2 Root   0 = -154.546349476086 Eh =   0.0000 eV


  ==> Pruning the Q space <==

  Cycle 1 took: 0.001028 s


  ---------------------------------- Cycle 2 -----------------------------------

  ==> Diagonalizing the Hamiltonian in the P space <==

  Initial P space dimension: 11
  Spin-complete dimension of the P space: 12 determinants

  ==> Computing 1 Coupling Lists <==

        α          1.080e-05 seconds
        β          1.020e-05 seconds

  ==> Computing 2 Coupling Lists <==

        αα         2.490e-05 seconds
        ββ         9.000e-06 seconds
        αβ         1.470e-05 seconds

  Davidson-Liu solver algorithm using SigmaVectorSparseList sigma algorithm

  Performing diagonalization of the H matrix
  Found 6 roots with 2S+1 = 1 *
  Found 6 roots with 2S+1 = 3
  Time spent diagonalizing H:   0.000435 s

    P-space  CI Energy Root   0        = -154.545990730955 Eh =   0.0000 eV, S^2 = 0.000000


  ==> Finding the Q space <==

  Using AVERAGE screening algorithm
  Using 1 thread(s).
  Size of F space: 4
  Time spent building sorting list: 0.000003
  Dimension of the PQ space:                  12
  Dimension of the PQ space (spin-complete) : 12
  Time spent building the model space: 0.000103

  ==> Diagonalizing the Hamiltonian in the P + Q space <==

  Number of reference roots: 1

  ==> Computing 1 Coupling Lists <==

        α          1.090e-05 seconds
        β          1.070e-05 seconds

  ==> Computing 2 Coupling Lists <==

        αα         8.900e-06 seconds
        ββ         8.300e-06 seconds
        αβ         1.320e-05 seconds

  Davidson-Liu solver algorithm using SigmaVectorSparseList sigma algorithm

  Performing diagonalization of the H matrix
  Found 6 roots with 2S+1 = 1 *
  Found 6 roots with 2S+1 = 3
  Total time spent diagonalizing H:   0.000313 s

    PQ-space CI Energy Root   0        = -154.545990730955 Eh =   0.0000 eV, S^2 = 0.000000
    PQ-space CI Energy + EPT2 Root   0 = -154.546349476086 Eh =   0.0000 eV

  ***** Calculation Converged *****

  ==> ACI Natural Orbitals <==

        1Au     1.987586      2Au     1.003447      1Bg     0.996531  
        2Bg     0.012437  

  ==> Excited state solver summary <==

  Iterations required:                         2
  Dimension of optimized determinant space:    12

  * Selected-CI Energy Root   0        = -154.545990730955 Eh =   0.0000 eV
  * Selected-CI Energy Root   0 + EPT2 = -154.546349476086 Eh =   0.0000 eV

  ==> Wavefunction Information <==

  Most important contributions to root   0:
    0  -0.695847 0.484202817          10 |+02->
    1  -0.695847 0.484202817           9 |-02+>
    2  -0.093425 0.008728296           8 |+0-2>
    3  -0.093425 0.008728296           7 |-0+2>
    4   0.055493 0.003079418           6 |0+2->
    5   0.055493 0.003079418           5 |0-2+>
    6  -0.041804 0.001747547           4 |0+-2>
    7  -0.041804 0.001747547           3 |0-+2>
    8   0.040127 0.001610163           2 |+20->
    9   0.040127 0.001610163           1 |-20+>

  Saving information for root: 0

  ==> Energy Summary <==

    Multi.(2ms)  Irrep.  No.               Energy      <S^2>
    --------------------------------------------------------
       1  (  0)    Ag     0     -154.845996422254   0.000000
       1  (  0)    Ag     1     -154.590184917640   0.000000
       1  (  0)    Ag     2     -154.453542434785   0.000000
    --------------------------------------------------------
       1  (  0)    Bu     0     -154.545990730955   0.000000
    --------------------------------------------------------

  ==> Transition Dipole Moments [e a0] for Singlet (Ms = 0) Ag -> Singlet (Ms = 0) Ag <==

 Reading file! 
       Bra    Ket           DM_X           DM_Y           DM_Z           |DM|
    -------------------------------------------------------------------------
       0AG    1AG     0.00000000     0.00000000     0.00000000     0.00000000
       0AG    2AG     0.00000000     0.00000000     0.00000000     0.00000000
       1AG    2AG    -0.00000000     0.00000000     0.00000000     0.00000000
    -------------------------------------------------------------------------

  ==> Transitions for Singlet (Ms = 0) Ag -> Singlet (Ms = 0) Ag <==

     Init.  Final  Energy [a.u.]    Energy [eV]    Osc. [a.u.]
    ----------------------------------------------------------
       0AG    1AG     0.25581150     6.96098560     0.00000000
       0AG    2AG     0.39245399    10.67921695     0.00000000
       1AG    2AG     0.13664248     3.71823135     0.00000000
    ----------------------------------------------------------

  ==> Transition Dipole Moments [e a0] for Singlet (Ms = 0) Ag -> Singlet (Ms = 0) Bu <==

 Reading file! 
       Bra    Ket           DM_X           DM_Y           DM_Z           |DM|
    -------------------------------------------------------------------------
       0AG    0BU    -1.64772855     1.67389566     0.00000000     2.34881588
       1AG    0BU    -0.04147470     0.66840217     0.00000000     0.66968770
       2AG    0BU    -0.50790268     0.62579226     0.00000000     0.80596594
    -------------------------------------------------------------------------

  ==> Transitions for Singlet (Ms = 0) Ag -> Singlet (Ms = 0) Bu <==

     Init.  Final  Energy [a.u.]    Energy [eV]    Osc. [a.u.]
    ----------------------------------------------------------
       0AG    0BU     0.30000569     8.16357067     1.10340814
       1AG    0BU     0.04419419     1.20258507     0.01321352
       2AG    0BU    -0.09244830    -2.51564627     0.04003511
    ----------------------------------------------------------

  Time to prepare integrals:        0.777 seconds
  Time to run job          :        0.025 seconds
  Total                    :        0.802 seconds


  Variable Map:
  ----------------------------------------------------------------------------
  "ACI ENERGY"                   =>    -154.545990730955
  "ACI+PT2 ENERGY"               =>    -154.546349476086
  "CURRENT ENERGY"               =>    -154.608928626408
  "ENERGY ROOT 0 1AG"            =>    -154.845996422254
  "ENERGY ROOT 0 1BU"            =>    -154.545990730955
  "ENERGY ROOT 1 1AG"            =>    -154.590184917640
  "ENERGY ROOT 2 1AG"            =>    -154.453542434785
  "OSC. SINGLET 0AG -> 0BU"      =>       1.103408141648
  "OSC. SINGLET 0AG -> 1AG"      =>       0.000000000000
  "OSC. SINGLET 0AG -> 2AG"      =>       0.000000000000
  "OSC. SINGLET 1AG -> 0BU"      =>       0.013213520221
  "OSC. SINGLET 1AG -> 2AG"      =>       0.000000000000
  "OSC. SINGLET 2AG -> 0BU"      =>       0.040035110032
  "TRANS SINGLET <0AG|DM_X|0BU>" =>      -1.647728550560
  "TRANS SINGLET <0AG|DM_X|1AG>" =>       0.000000000000
  "TRANS SINGLET <0AG|DM_X|2AG>" =>       0.000000000000
  "TRANS SINGLET <0AG|DM_Y|0BU>" =>       1.673895656884
  "TRANS SINGLET <0AG|DM_Y|1AG>" =>       0.000000000000
  "TRANS SINGLET <0AG|DM_Y|2AG>" =>       0.000000000000
  "TRANS SINGLET <0AG|DM_Z|0BU>" =>       0.000000000000
  "TRANS SINGLET <0AG|DM_Z|1AG>" =>       0.000000000000
  "TRANS SINGLET <0AG|DM_Z|2AG>" =>       0.000000000000
  "TRANS SINGLET <1AG|DM_X|0BU>" =>      -0.041474696085
  "TRANS SINGLET <1AG|DM_X|2AG>" =>      -0.000000000000
  "TRANS SINGLET <1AG|DM_Y|0BU>" =>       0.668402174711
  "TRANS SINGLET <1AG|DM_Y|2AG>" =>       0.000000000000
  "TRANS SINGLET <1AG|DM_Z|0BU>" =>       0.000000000000
  "TRANS SINGLET <1AG|DM_Z|2AG>" =>       0.000000000000
  "TRANS SINGLET <2AG|DM_X|0BU>" =>      -0.507902682993
  "TRANS SINGLET <2AG|DM_Y|0BU>" =>       0.625792262009
  "TRANS SINGLET <2AG|DM_Z|0BU>" =>       0.000000000000
  "TRANS SINGLET |<0AG|DM|0BU>|" =>       2.348815881773
  "TRANS SINGLET |<0AG|DM|1AG>|" =>       0.000000000000
  "TRANS SINGLET |<0AG|DM|2AG>|" =>       0.000000000000
  "TRANS SINGLET |<1AG|DM|0BU>|" =>       0.669687701525
  "TRANS SINGLET |<1AG|DM|2AG>|" =>       0.000000000000
  "TRANS SINGLET |<2AG|DM|0BU>|" =>       0.805965936366


    CASCI(4,4) singlet Ag energy 0........................................................PASSED
    CASCI(4,4) singlet Ag energy 1........................................................PASSED
    CASCI(4,4) singlet Ag energy 2........................................................PASSED
    CASCI(4,4) singlet Bu energy 0........................................................PASSED
    Oscillator strength singlet 0Ag -> 0Bu................................................PASSED
    Oscillator strength singlet 1Ag -> 0Bu................................................PASSED
    Oscillator strength singlet 2Ag -> 0Bu................................................PASSED

    Psi4 stopped on: Monday, 20 September 2021 04:19PM
    Psi4 wall time for execution: 0:00:02.52

*** Psi4 exiting successfully. Buy a developer a beer!
