
    -----------------------------------------------------------------------
          Psi4: An Open-Source Ab Initio Electronic Structure Package
                               Psi4 1.8a1.dev65 

                         Git: Rev {socints} 64c9b12 dirty


    D. G. A. Smith, L. A. Burns, A. C. Simmonett, R. M. Parrish,
    M. C. Schieber, R. Galvelis, P. Kraus, H. Kruse, R. Di Remigio,
    A. Alenaizan, A. M. James, S. Lehtola, J. P. Misiewicz, M. Scheurer,
    R. A. Shaw, J. B. Schriber, Y. Xie, Z. L. Glick, D. A. Sirianni,
    J. S. O'Brien, J. M. Waldrop, A. Kumar, E. G. Hohenstein,
    B. P. Pritchard, B. R. Brooks, H. F. Schaefer III, A. Yu. Sokolov,
    K. Patkowski, A. E. DePrince III, U. Bozkaya, R. A. King,
    F. A. Evangelista, J. M. Turney, T. D. Crawford, C. D. Sherrill,
    J. Chem. Phys. 152(18) 184108 (2020). https://doi.org/10.1063/5.0006002

                            Additional Code Authors
    E. T. Seidl, C. L. Janssen, E. F. Valeev, M. L. Leininger,
    J. F. Gonthier, R. M. Richard, H. R. McAlexander, M. Saitow, X. Wang,
    P. Verma, M. H. Lechner, A. Jiang, S. Behnle, A. G. Heide,
    M. F. Herbst, and D. L. Poole

             Previous Authors, Complete List of Code Contributors,
                       and Citations for Specific Modules
    https://github.com/psi4/psi4/blob/master/codemeta.json
    https://github.com/psi4/psi4/graphs/contributors
    http://psicode.org/psi4manual/master/introduction.html#citing-psifour

    -----------------------------------------------------------------------


    Psi4 started on: Saturday, 13 May 2023 05:34PM

    Process ID: 17470
    Host:       CHE-FEVANGE-01i
    PSIDATADIR: /Users/fevange/Source/psi4/objdir-Release/stage/share/psi4
    Memory:     500.0 MiB
    Threads:    1
    
  ==> Input File <==

--------------------------------------------------------------------------
import forte

reffci = -12.538532207591357

molecule {
0 1
Li
Li 1 R
R = 3.0
units bohr
}

set {
  basis sto-3g
  scf_type pk
  e_convergence 12
}

set forte {
  active_space_solver fci
  multiplicity 5
  ms 0.0
  ci_spin_adapt true
  ci_spin_adapt_full_preconditioner true
  root_sym 4
}

energy('forte')
compare_values(reffci, variable("CURRENT ENERGY"),11, "FCI energy") #TEST
--------------------------------------------------------------------------

Scratch directory: /tmp/

  Forte
  ----------------------------------------------------------------------------
  A suite of quantum chemistry methods for strongly correlated electrons

    git branch: saci - git commit: 3419a366

  Developed by:
    Francesco A. Evangelista, Chenyang Li, Kevin P. Hannon,
    Jeffrey B. Schriber, Tianyuan Zhang, Chenxi Cai,
    Nan He, Nicholas Stair, Shuhe Wang, Renke Huang
  ----------------------------------------------------------------------------

  Size of Determinant class: 256 bits

  Preparing forte objects from a Psi4 Wavefunction object
  No reference wave function provided for Forte. Computing SCF orbitals using Psi4 ...

*** tstart() called on CHE-FEVANGE-01i
*** at Sat May 13 17:34:14 2023

   => Loading Basis Set <=

    Name: STO-3G
    Role: ORBITAL
    Keyword: BASIS
    atoms 1-2 entry LI         line    31 file /Users/fevange/Source/psi4/objdir-Release/stage/share/psi4/basis/sto-3g.gbs 


         ---------------------------------------------------------
                                   SCF
               by Justin Turney, Rob Parrish, Andy Simmonett
                          and Daniel G. A. Smith
                              RHF Reference
                        1 Threads,    500 MiB Core
         ---------------------------------------------------------

  ==> Geometry <==

    Molecular point group: d2h
    Full point group: D_inf_h

    Geometry (in Bohr), charge = 0, multiplicity = 1:

       Center              X                  Y                   Z               Mass       
    ------------   -----------------  -----------------  -----------------  -----------------
         LI           0.000000000000     0.000000000000    -1.500000000000     7.016003436600
         LI           0.000000000000     0.000000000000     1.500000000000     7.016003436600

  Running in d2h symmetry.

  Rotational constants: A = ************  B =      1.90674  C =      1.90674 [cm^-1]
  Rotational constants: A = ************  B =  57162.68592  C =  57162.68592 [MHz]
  Nuclear repulsion =    3.000000000000000

  Charge       = 0
  Multiplicity = 1
  Electrons    = 6
  Nalpha       = 3
  Nbeta        = 3

  ==> Algorithm <==

  SCF Algorithm Type is PK.
  DIIS enabled.
  MOM disabled.
  Fractional occupation disabled.
  Guess Type is SAD.
  Energy threshold   = 1.00e-12
  Density threshold  = 1.00e-08
  Integral threshold = 1.00e-12

  ==> Primary Basis <==

  Basis Set: STO-3G
    Blend: STO-3G
    Number of shells: 6
    Number of basis functions: 10
    Number of Cartesian functions: 10
    Spherical Harmonics?: true
    Max angular momentum: 1

  ==> Integral Setup <==

  Using in-core PK algorithm.
   Calculation information:
      Number of atoms:                   2
      Number of AO shells:               6
      Number of primitives:             18
      Number of atomic orbitals:        10
      Number of basis functions:        10

      Integral cutoff                 1.00e-12
      Number of threads:                 1

  Performing in-core PK
  Using 3080 doubles for integral storage.
  We computed 231 shell quartets total.
  Whereas there are 231 unique shell quartets.

  ==> DiskJK: Disk-Based J/K Matrices <==

    J tasked:                  Yes
    K tasked:                  Yes
    wK tasked:                  No
    Memory [MiB]:              375
    Schwarz Cutoff:          1E-12

    OpenMP threads:              1

  Minimum eigenvalue in the overlap matrix is 2.7741627997E-02.
  Reciprocal condition number of the overlap matrix is 1.3501340458E-02.
    Using symmetric orthogonalization.

  ==> Pre-Iterations <==

  SCF Guess: Superposition of Atomic Densities via on-the-fly atomic UHF (no occupation information).

   -------------------------
    Irrep   Nso     Nmo    
   -------------------------
     Ag         3       3 
     B1g        0       0 
     B2g        1       1 
     B3g        1       1 
     Au         0       0 
     B1u        3       3 
     B2u        1       1 
     B3u        1       1 
   -------------------------
    Total      10      10
   -------------------------

  ==> Iterations <==

                        Total Energy        Delta E     RMS |[F,P]|

   @RHF iter SAD:   -14.35526221907790   -1.43553e+01   0.00000e+00 
   @RHF iter   1:   -14.54744094710718   -1.92179e-01   5.24905e-03 DIIS/ADIIS
   @RHF iter   2:   -14.54852099240110   -1.08005e-03   1.59776e-03 DIIS/ADIIS
   @RHF iter   3:   -14.54871493704180   -1.93945e-04   5.56678e-04 DIIS/ADIIS
   @RHF iter   4:   -14.54873910073979   -2.41637e-05   5.80725e-06 DIIS
   @RHF iter   5:   -14.54873910108195   -3.42155e-10   1.62513e-07 DIIS
   @RHF iter   6:   -14.54873910108353   -1.57740e-12   6.20543e-09 DIIS
   @RHF iter   7:   -14.54873910108353   -5.32907e-15   6.61892e-11 DIIS
  Energy and wave function converged.


  ==> Post-Iterations <==

    Orbital Energies [Eh]
    ---------------------

    Doubly Occupied:                                                      

       1Ag    -2.406336     1B1u   -2.377194     2Ag    -0.171891  

    Virtual:                                                              

       1B2u    0.078832     1B3u    0.078832     2B1u    0.088519  
       3Ag     0.200395     1B2g    0.296222     1B3g    0.296222  
       3B1u    0.859229  

    Final Occupation by Irrep:
             Ag   B1g   B2g   B3g    Au   B1u   B2u   B3u 
    DOCC [     2,    0,    0,    0,    0,    1,    0,    0 ]
    NA   [     2,    0,    0,    0,    0,    1,    0,    0 ]
    NB   [     2,    0,    0,    0,    0,    1,    0,    0 ]

  @RHF Final Energy:   -14.54873910108353

   => Energetics <=

    Nuclear Repulsion Energy =              3.0000000000000000
    One-Electron Energy =                 -25.1866354008411335
    Two-Electron Energy =                   7.6378962997576014
    Total Energy =                        -14.5487391010835321

Computation Completed


Properties will be evaluated at   0.000000,   0.000000,   0.000000 [a0]

Properties computed using the SCF density matrix


 Multipole Moments:

 ------------------------------------------------------------------------------------
     Multipole            Electronic (a.u.)      Nuclear  (a.u.)        Total (a.u.)
 ------------------------------------------------------------------------------------

 L = 1.  Multiply by 2.5417464519 to convert [e a0] to [Debye]
 Dipole X            :          0.0000000            0.0000000            0.0000000
 Dipole Y            :          0.0000000            0.0000000            0.0000000
 Dipole Z            :          0.0000000            0.0000000            0.0000000
 Magnitude           :                                                    0.0000000

 ------------------------------------------------------------------------------------

*** tstop() called on CHE-FEVANGE-01i at Sat May 13 17:34:15 2023
Module time:
	user time   =       0.68 seconds =       0.01 minutes
	system time =       0.49 seconds =       0.01 minutes
	total time  =          1 seconds =       0.02 minutes
Total time:
	user time   =       0.68 seconds =       0.01 minutes
	system time =       0.49 seconds =       0.01 minutes
	total time  =          1 seconds =       0.02 minutes


  ==> MO Space Information <==

  -------------------------------------------------------------------------
                       Ag   B1g   B2g   B3g    Au   B1u   B2u   B3u   Sum
  -------------------------------------------------------------------------
    FROZEN_DOCC         0     0     0     0     0     0     0     0     0
    RESTRICTED_DOCC     0     0     0     0     0     0     0     0     0
    GAS1                3     0     1     1     0     3     1     1    10
    GAS2                0     0     0     0     0     0     0     0     0
    GAS3                0     0     0     0     0     0     0     0     0
    GAS4                0     0     0     0     0     0     0     0     0
    GAS5                0     0     0     0     0     0     0     0     0
    GAS6                0     0     0     0     0     0     0     0     0
    RESTRICTED_UOCC     0     0     0     0     0     0     0     0     0
    FROZEN_UOCC         0     0     0     0     0     0     0     0     0
    Total               3     0     1     1     0     3     1     1    10
  -------------------------------------------------------------------------   => Loading Basis Set <=

    Name: STO-3G
    Role: ORBITAL
    Keyword: MINAO_BASIS
    atoms 1-2 entry LI         line    31 file /Users/fevange/Source/psi4/objdir-Release/stage/share/psi4/basis/sto-3g.gbs 


  Forte will use psi4 integrals

  ==> Primary Basis Set Summary <==

  Basis Set: STO-3G
    Blend: STO-3G
    Number of shells: 6
    Number of basis functions: 10
    Number of Cartesian functions: 10
    Spherical Harmonics?: true
    Max angular momentum: 1


  JK created using conventional PK integrals
  Using in-core PK algorithm.
   Calculation information:
      Number of atoms:                   2
      Number of AO shells:               6
      Number of primitives:             18
      Number of atomic orbitals:        10
      Number of basis functions:        10

      Integral cutoff                 1.00e-12
      Number of threads:                 1

  Performing in-core PK
  Using 3080 doubles for integral storage.
  We computed 231 shell quartets total.
  Whereas there are 231 unique shell quartets.

  ==> DiskJK: Disk-Based J/K Matrices <==

    J tasked:                  Yes
    K tasked:                  Yes
    wK tasked:                  No
    Memory [MiB]:              400
    Schwarz Cutoff:          1E-12

    OpenMP threads:              1



  ==> Integral Transformation <==

  Number of molecular orbitals:                         10
  Number of correlated molecular orbitals:              10
  Number of frozen occupied orbitals:                    0
  Number of frozen unoccupied orbitals:                  0
  Two-electron integral type:                 Conventional


  Computing Conventional Integrals	Presorting SO-basis two-electron integrals.
	Sorting File: SO Ints (nn|nn) nbuckets = 1
	Constructing frozen core operators
	Starting first half-transformation.
	Sorting half-transformed integrals.
	First half integral transformation complete.
	Starting second half-transformation.
	Two-electron integral transformation complete.

  Integral transformation done. 0.01328713 s
  Reading the two-electron integrals from disk
  Size of two-electron integrals:   0.000224 GB
  Timing for conventional integral transformation:            0.034 s.
  Timing for freezing core and virtual orbitals:              0.000 s.
  Timing for computing conventional integrals:                0.034 s.

  ==> Summary of Active Space Solver Input <==

    Irrep.  Multi.(2ms)      N
    --------------------------
       Au      5  (  0)      1
    --------------------------
    N: number of roots
    ms: spin z component
    Total number of roots:   1
    --------------------------


  ==> String Lists <==

  Number of alpha electrons     = 3
  Number of beta electrons      = 3
  Number of alpha strings       = 120
  Number of beta strings        = 120
  Timing for strings        =      0.000 s
  Timing for NN strings     =      0.000 s
  Timing for VO strings     =      0.002 s
  Timing for OO strings     =      0.000 s
  Timing for VVOO strings   =      0.001 s
  Timing for 1-hole strings =      0.000 s
  Timing for 2-hole strings =      0.000 s
  Timing for 3-hole strings =      0.000 s
  Total timing              =      0.004 s

  ==> Spin Adapter <==

    Number of CSFs:                               330
    Number of couplings:                         3780

    Timing for identifying configurations:     0.0001
    Timing for finding the CSFs:               0.0002


  ==> FCI Solver <==

    Number of determinants                        1792
    Symmetry                                         4
    Multiplicity                                     5
    Number of roots                                  1
    Target root                                      0
    Trial vectors per root                          10
    Spin adapt                                    true

  Allocating memory for the Hamiltonian algorithm. Size: 2 x 16 x 16.   Memory: 0.000004 GB

  ==> FCI Initial Guess <==

  Selected 2 CSF
  ---------------------------------------------
    CSF             Energy     <S^2>   Spin
  ---------------------------------------------
    252      -12.452442529787  6.000  quintet
    258      -12.272583683742  6.000  quintet
  ---------------------------------------------
  Timing for initial guess  =      0.000 s


  ==> Diagonalizing Hamiltonian <==

  Energy   convergence: 1.00e-12
  Residual convergence: 1.00e-06
  -----------------------------------------------------
    Iter.      Avg. Energy       Delta_E     Res. Norm
  -----------------------------------------------------
      1      -12.473763936839  -1.247e+01  +1.889e-01
      2      -12.530426078183  -5.666e-02  +8.266e-02
      3      -12.537540950110  -7.115e-03  +3.234e-02
      4      -12.538474646614  -9.337e-04  +9.990e-03
      5      -12.538529765375  -5.512e-05  +2.340e-03
      6      -12.538532131774  -2.366e-06  +4.084e-04
      7      -12.538532204904  -7.313e-08  +8.861e-05
      8      -12.538532207540  -2.636e-09  +1.133e-05
      9      -12.538532207589  -4.874e-11  +2.262e-06
     10      -12.538532207591  -2.320e-12  +7.012e-07
     11      -12.538532207591  -2.327e-13  +1.750e-07
  -----------------------------------------------------
  The Davidson-Liu algorithm converged in 12 iterations.

  ==> Root No. 0 <==

    2b0 0 0 a00 b a      0.35746794
    2b0 0 0 a00 a b     -0.35746794
    2a0 0 0 b00 a b      0.35746794
    2a0 0 0 b00 b a     -0.35746794
    2b0 0 0 b00 a a     -0.35746794
    2a0 0 0 a00 b b     -0.35746794

    Total Energy:     -12.538532207591, <S^2>: 6.000000

  ==> Energy Summary <==

    Multi.(2ms)  Irrep.  No.               Energy      <S^2>
    --------------------------------------------------------
       5  (  0)    Au     0      -12.538532207591   6.000000
    --------------------------------------------------------

  ==> Dipole Moments [e a0] (Nuclear + Electronic) for Quintet (Ms = 0) Au <==


  ==> Computing RDMs for Root No. 0 <==

    Timing for 1-RDM: 0.000 s

  ==> NATURAL ORBITALS <==

        1Ag     1.824157      1B1u    1.175400      1B2u    0.940358  
        1B3u    0.940358      2Ag     0.937788      2B1u    0.061623  
        1B2g    0.059661      1B3g    0.059661      3Ag     0.000857  
        3B1u    0.000136  

       State           DM_X           DM_Y           DM_Z           |DM|
    --------------------------------------------------------------------
         0AU     0.00000000     0.00000000     0.00000000     0.00000000
    --------------------------------------------------------------------
     Nuclear     0.00000000     0.00000000     0.00000000     0.00000000
    --------------------------------------------------------------------

  ==> Quadrupole Moments [e a0^2] (Nuclear + Electronic) for Quintet (Ms = 0) Au <==


  ==> Computing RDMs for Root No. 0 <==

    Timing for 1-RDM: 0.000 s

  ==> NATURAL ORBITALS <==

        1Ag     1.824157      1B1u    1.175400      1B2u    0.940358  
        1B3u    0.940358      2Ag     0.937788      2B1u    0.061623  
        1B2g    0.059661      1B3g    0.059661      3Ag     0.000857  
        3B1u    0.000136  

       State          QM_XX          QM_XY          QM_XZ          QM_YY          QM_YZ          QM_ZZ
    --------------------------------------------------------------------------------------------------
         0AU   -14.09790998     0.00000000     0.00000000   -14.09790998     0.00000000    -5.18435279
    --------------------------------------------------------------------------------------------------
     Nuclear     0.00000000     0.00000000     0.00000000     0.00000000     0.00000000    13.50000000
    --------------------------------------------------------------------------------------------------

  Time to prepare integrals:        0.037 seconds
  Time to run job          :        0.035 seconds
  Total                    :        0.072 seconds
    FCI energy............................................................................PASSED

    Psi4 stopped on: Saturday, 13 May 2023 05:34PM
    Psi4 wall time for execution: 0:00:00.31

*** Psi4 exiting successfully. Buy a developer a beer!
