
    -----------------------------------------------------------------------
          Psi4: An Open-Source Ab Initio Electronic Structure Package
                               Psi4 1.2a1.dev939 

                         Git: Rev {master} b05c0bb 


    R. M. Parrish, L. A. Burns, D. G. A. Smith, A. C. Simmonett,
    A. E. DePrince III, E. G. Hohenstein, U. Bozkaya, A. Yu. Sokolov,
    R. Di Remigio, R. M. Richard, J. F. Gonthier, A. M. James,
    H. R. McAlexander, A. Kumar, M. Saitow, X. Wang, B. P. Pritchard,
    P. Verma, H. F. Schaefer III, K. Patkowski, R. A. King, E. F. Valeev,
    F. A. Evangelista, J. M. Turney, T. D. Crawford, and C. D. Sherrill,
    J. Chem. Theory Comput. 13(7) pp 3185--3197 (2017).
    (doi: 10.1021/acs.jctc.7b00174)

    -----------------------------------------------------------------------


    Psi4 started on: Friday, 30 March 2018 08:53PM

    Process ID:   8748
    PSIDATADIR: /Users/york/src/psi4new/psi4/share/psi4
    Memory:     500.0 MiB
    Threads:    1
    
  ==> Input File <==

--------------------------------------------------------------------------
#! Generated using commit GITCOMMIT

import forte

refmcscf   = -106.752885060582
refpt2sub  = -106.990277098987
refpt2full = -106.990992385754
refpt2ms   = -106.989495562679
refpt2xms  = -106.989466062352
refvalues  = [refpt2sub, refpt2full, refpt2ms, refpt2xms]

molecule {
  0 1
  Li
  F  1 R
  R = 10.000

  units bohr
}

basis {
  assign Li Li-cc-pvdz
  assign F  aug-cc-pvdz
[ Li-cc-pvdz ]
spherical
****
Li     0
S   8   1.00
   1469.0000000              0.0007660
    220.5000000              0.0058920
     50.2600000              0.0296710
     14.2400000              0.1091800
      4.5810000              0.2827890
      1.5800000              0.4531230
      0.5640000              0.2747740
      0.0734500              0.0097510
S   8   1.00
   1469.0000000             -0.0001200
    220.5000000             -0.0009230
     50.2600000             -0.0046890
     14.2400000             -0.0176820
      4.5810000             -0.0489020
      1.5800000             -0.0960090
      0.5640000             -0.1363800
      0.0734500              0.5751020
S   1   1.00
      0.0280500              1.0000000
P   3   1.00
      1.5340000              0.0227840
      0.2749000              0.1391070
      0.0736200              0.5003750
P   1   1.00
      0.0240300              1.0000000
D   1   1.00
      0.1239000              1.0000000
****
}

set globals{
  reference           rhf
  scf_type            out_of_core
  maxiter             300
  e_convergence       10
  d_convergence       10
  docc                [4,0,1,1]
  restricted_docc     [3,0,1,1]
  active              [2,0,0,0]
  mcscf_r_convergence 8
  mcscf_e_convergence 10
  mcscf_maxiter       250
  mcscf_diis_start    6
  num_roots           2
  follow_root         2
  avg_states          [0,1]
}

set forte{
  job_type           dsrg-mrpt2
  frozen_docc        [2,0,0,0]
  restricted_docc    [1,0,0,0]
  active             [3,0,2,2]
  dsrg_s             0.5
  maxiter            500
  dl_maxiter         1000
  e_convergence      10
  cas_type           cas
  avg_state          [[0,1,2]]
  semi_canonical     false
}

Emcscf, wfn = energy('casscf', return_wfn=True)
compare_values(refmcscf,Emcscf,8,"SA-CASSCF energy")

# MS
psi4.print_out("\n==> !! MS !! <==\n")
set forte{
  dsrg_multi_state   ms
}
Ems = energy('forte', ref_wfn=wfn)

# XMS
psi4.print_out("\n==> !! XMS !! <==\n")
set forte{
  dsrg_multi_state   xms
}
Emcscf, wfn = energy('casscf', return_wfn=True)
Exms = energy('forte', ref_wfn=wfn)

# SA SUB
psi4.print_out("\n==> !! SA_SUB !! <==\n")
set forte{
  dsrg_multi_state   sa_sub
  semi_canonical     true
}
Emcscf, wfn = energy('casscf', return_wfn=True)
Esub = energy('forte', ref_wfn=wfn)

# SA FULL
psi4.print_out("\n==> !! SA_FULL !! <==\n")
set forte{
  dsrg_multi_state   sa_full
}
Emcscf, wfn = energy('casscf', return_wfn=True)
Efull = energy('forte', ref_wfn=wfn)

names = ["SA-SUB", "SA-FULL", "MS", "XMS"]
values = [Esub, Efull, Ems, Exms]

psi4.print_out("\n  ==> Ground State Comparison <==\n")
psi4.print_out("\n           {0:^17}  {1:^17}  {2:^10}".format("Ref. Values", "Real Values", "Delta"))
psi4.print_out("\n  " + "-" * 57)
for i in range(4):
    psi4.print_out("\n  {0:7s}  {1:17.12f}  {2:17.12f}  {3:10.3e}".format(names[i],refvalues[i],values[i],values[i]-refvalues[i]))
psi4.print_out("\n  " + "-" * 57 + "\n\n")

compare_values(refpt2sub,Esub,8,"SA-DSRG-MRPT2 SUB energy root 0")
compare_values(refpt2full,Efull,8,"SA-DSRG-MRPT2 FULL energy root 0")
compare_values(refpt2ms,Ems,8,"MS-DSRG-MRPT2 energy root 0")
compare_values(refpt2xms,Exms,8,"XMS-DSRG-MRPT2 energy root 0")
--------------------------------------------------------------------------

*** tstart() called on dhcp189-132.emerson.emory.edu
*** at Fri Mar 30 20:53:56 2018

   => Loading Basis Set <=

    Name: ANONYMOUS104B7F82
    Role: ORBITAL
    Keyword: BASIS
    atoms 1 entry LI         line     5 inputblock li-cc-pvdz 
    atoms 2 entry F          line   286 file /Users/york/src/psi4new/psi4/share/psi4/basis/aug-cc-pvdz.gbs 


         ---------------------------------------------------------
                                   SCF
            by Justin Turney, Rob Parrish, Andy Simmonett
                             and Daniel Smith
                              RHF Reference
                        1 Threads,    500 MiB Core
         ---------------------------------------------------------

  ==> Geometry <==

    Molecular point group: c2v
    Full point group: C_inf_v

    Geometry (in Bohr), charge = 0, multiplicity = 1:

       Center              X                  Y                   Z               Mass       
    ------------   -----------------  -----------------  -----------------  -----------------
          LI          0.000000000000     0.000000000000    -7.303031224277     7.016004548000
           F          0.000000000000     0.000000000000     2.696968775723    18.998403224000

  Running in c2v symmetry.

  Rotational constants: A = ************  B =      0.11749  C =      0.11749 [cm^-1]
  Rotational constants: A = ************  B =   3522.26409  C =   3522.26409 [MHz]
  Nuclear repulsion =    2.700000000000000

  Charge       = 0
  Multiplicity = 1
  Electrons    = 12
  Nalpha       = 6
  Nbeta        = 6

  ==> Algorithm <==

  SCF Algorithm Type is OUT_OF_CORE.
  DIIS enabled.
  MOM disabled.
  Fractional occupation disabled.
  Guess Type is SAD.
  Energy threshold   = 1.00e-10
  Density threshold  = 1.00e-10
  Integral threshold = 0.00e+00

  ==> Primary Basis <==

  Basis Set: ANONYMOUS104B7F82
    Blend: AUG-CC-PVDZ + LI-CC-PVDZ
    Number of shells: 15
    Number of basis function: 37
    Number of Cartesian functions: 40
    Spherical Harmonics?: true
    Max angular momentum: 2

  ==> Pre-Iterations <==

   -------------------------------------------------------
    Irrep   Nso     Nmo     Nalpha   Nbeta   Ndocc  Nsocc
   -------------------------------------------------------
     A1        18      18       4       4       4       0
     A2         3       3       0       0       0       0
     B1         8       8       1       1       1       0
     B2         8       8       1       1       1       0
   -------------------------------------------------------
    Total      37      37       6       6       6       0
   -------------------------------------------------------

  ==> Integral Setup <==

  ==> DiskJK: Disk-Based J/K Matrices <==

    J tasked:                  Yes
    K tasked:                  Yes
    wK tasked:                  No
    Memory (MB):               375
    Schwarz Cutoff:          1E-12

  Minimum eigenvalue in the overlap matrix is 8.8020111411E-02.
  Using Symmetric Orthogonalization.

  SCF Guess: Superposition of Atomic Densities via on-the-fly atomic UHF.

  ==> Iterations <==

                        Total Energy        Delta E     RMS |[F,P]|

   @RHF iter   0:  -106.49243849010251   -1.06492e+02   4.41641e-03 
   @RHF iter   1:  -106.67531561935735   -1.82877e-01   2.14611e-02 
   @RHF iter   2:  -105.54391759021554    1.13140e+00   5.79652e-02 DIIS
   @RHF iter   3:  -106.73990819159930   -1.19599e+00   1.07810e-02 DIIS
   @RHF iter   4:  -106.76331726463228   -2.34091e-02   2.28209e-03 DIIS
   @RHF iter   5:  -106.76471112006898   -1.39386e-03   6.44993e-04 DIIS
   @RHF iter   6:  -106.76484619546959   -1.35075e-04   1.83827e-04 DIIS
   @RHF iter   7:  -106.76485600700863   -9.81154e-06   2.43064e-05 DIIS
   @RHF iter   8:  -106.76485633757457   -3.30566e-07   3.27244e-06 DIIS
   @RHF iter   9:  -106.76485635034878   -1.27742e-08   2.09181e-06 DIIS
   @RHF iter  10:  -106.76485635166100   -1.31222e-09   3.99827e-07 DIIS
   @RHF iter  11:  -106.76485635173401   -7.30154e-11   9.00309e-08 DIIS
   @RHF iter  12:  -106.76485635173844   -4.43379e-12   3.41589e-09 DIIS
   @RHF iter  13:  -106.76485635173839    5.68434e-14   5.87109e-10 DIIS
   @RHF iter  14:  -106.76485635173832    7.10543e-14   6.54589e-11 DIIS

  ==> Post-Iterations <==

    Orbital Energies (a.u.)
    -----------------------

    Doubly Occupied:                                                      

       1A1   -25.949822     2A1    -2.691664     3A1    -1.181713  
       1B1    -0.282869     1B2    -0.282869     4A1    -0.281733  

    Virtual:                                                              

       5A1    -0.102315     2B1    -0.034308     2B2    -0.034308  
       6A1    -0.017926     7A1     0.059038     3B1     0.069758  
       3B2     0.069758     8A1     0.115169     1A2     0.230550  
       9A1     0.230550    10A1     0.235491     4B1     0.236544  
       4B2     0.236544     5B1     0.414969     5B2     0.414969  
      11A1     0.434294    12A1     0.463808    13A1     1.634017  
       6B2     1.634417     6B1     1.634417     2A2     1.636003  
      14A1     1.636003     7B1     1.968778     7B2     1.968778  
      15A1     1.981773    16A1     2.604672    17A1     5.197522  
       8B2     5.197552     8B1     5.197552    18A1     5.198222  
       3A2     5.198222  

    Final Occupation by Irrep:
             A1    A2    B1    B2 
    DOCC [     4,    0,    1,    1 ]

  Energy converged.

  @RHF Final Energy:  -106.76485635173832

   => Energetics <=

    Nuclear Repulsion Energy =              2.7000000000000002
    One-Electron Energy =                -157.5883761454534806
    Two-Electron Energy =                  48.1235197937151895
    PCM Polarization Energy =               0.0000000000000000
    Total Energy =                       -106.7648563517383025

    Alert: EFP and PCM quantities not currently incorporated into SCF psivars.

Properties will be evaluated at   0.000000,   0.000000,   0.000000 Bohr

Properties computed using the SCF density matrix

  Nuclear Dipole Moment: (a.u.)
     X:     0.0000      Y:     0.0000      Z:     2.3636

  Electronic Dipole Moment: (a.u.)
     X:     0.0000      Y:     0.0000      Z:   -12.2800

  Dipole Moment: (a.u.)
     X:     0.0000      Y:     0.0000      Z:    -9.9163     Total:     9.9163

  Dipole Moment: (Debye)
     X:     0.0000      Y:     0.0000      Z:   -25.2048     Total:    25.2048


*** tstop() called on dhcp189-132.emerson.emory.edu at Fri Mar 30 20:53:57 2018
Module time:
	user time   =       0.76 seconds =       0.01 minutes
	system time =       0.10 seconds =       0.00 minutes
	total time  =          1 seconds =       0.02 minutes
Total time:
	user time   =       0.76 seconds =       0.01 minutes
	system time =       0.10 seconds =       0.00 minutes
	total time  =          1 seconds =       0.02 minutes
 MINTS: Wrapper to libmints.
   by Justin Turney

   Calculation information:
      Number of threads:                 1
      Number of atoms:                   2
      Number of AO shells:              15
      Number of SO shells:              15
      Number of primitives:             47
      Number of atomic orbitals:        40
      Number of basis functions:        37

      Number of irreps:                  4
      Integral cutoff                 1.00e-12
      Number of functions per irrep: [  18    3    8    8 ]

 OEINTS: Overlap, kinetic, potential, dipole, and quadrupole integrals
         stored in file 35.

      Computing two-electron integrals...done
      Computed 54201 non-zero two-electron integrals.
        Stored in file 33.


         ---------------------------------------------------------
                Multi-Configurational Self-Consistent Field
                            (a 'D E T C I' module)

                 Daniel G. A. Smith, C. David Sherrill, and
                              Matt L. Leininger
         ---------------------------------------------------------


   ==> Parameters <==

    EX LEVEL       =        2      H0 BLOCKSIZE  =     1000
    VAL EX LEVEL   =        0      H0 GUESS SIZE =     1000
    H0COUPLINGSIZE =        0      H0 COUPLING   =       NO
    MAXITER        =       12      NUM PRINT     =       20
    NUM ROOTS      =        2      ICORE         =        1
    PRINT LVL      =        1      FCI           =      YES
    R CONV         = 1.00e-07      MIXED         =      YES
    E CONV         = 1.00e-10      MIXED4        =      YES
    R4S            =       NO      REPL OTF      =       NO
    DIAG METHOD    =      SEM      FOLLOW ROOT   =        2
    PRECONDITIONER = DAVIDSON      UPDATE        = DAVIDSON
    S              =   0.0000      Ms0           =      YES
    GUESS VECTOR   =  H0BLOCK      OPENTYPE      =     NONE
    COLLAPSE SIZE  =        1      HD AVG        = EVANGELISTI
    MAX NUM VECS   =       26      REF SYM       =     AUTO
    IOPEN        =       NO

    EX ALLOW       =  1  1 
    STATE AVERAGE  =  0(0.50)  1(0.50) 

   ==> CI Orbital and Space information <==

   ------------------------------------------------------
               Space    Total    A1    A2    B1    B2
   ------------------------------------------------------
                 Nso       37    18     3     8     8
                 Nmo       37    18     3     8     8
               Ndocc        6     4     0     1     1
               Nsocc        0     0     0     0     0
   ------------------------------------------------------
                        MCSCF Spaces
   ------------------------------------------------------
         Frozen DOCC        0     0     0     0     0
     Restricted DOCC        5     3     0     1     1
              Active        2     2     0     0     0
     Restricted UOCC       30    13     3     7     7
         Frozen UOCC        0     0     0     0     0
   ------------------------------------------------------

   ==> Setting up CI strings <==

    There are 2 alpha and 2 beta strings
    The CI space requires 4 (4.00E+00) determinants and 1 blocks

   ==> Setting up MCSCF integrals <==

  ==> DiskJK: Disk-Based J/K Matrices <==

    J tasked:                  Yes
    K tasked:                  Yes
    wK tasked:                  No
    Memory (MB):              3200
    Schwarz Cutoff:          1E-12


   ==> Starting MCSCF iterations <==

        Iter         Total Energy       Delta E   Orb RMS    CI RMS  NCI NORB
(sem_iter): H0block_->H0b_diag[1][1] - H0block_->H0b_diag[2][1] = -0.707107 - 0.707107 = -1.414214 > 1.0E-8
   @MCSCF  1:   -106.719655499227    4.5201e-02  7.73e-02  8.05e-09    1    1  Initial CI
   @MCSCF  2:   -106.743591142753   -2.3936e-02  4.80e-02  1.80e-10    1    1  TS
   @MCSCF  3:   -106.749720768836   -6.1296e-03  2.62e-02  4.84e-10    1    1  TS
   @MCSCF  4:   -106.751831448442   -2.1107e-03  1.47e-02  3.52e-10    1    1  TS
   @MCSCF  5:   -106.752507379171   -6.7593e-04  8.16e-03  3.91e-10    1    1  TS
   @MCSCF  6:   -106.752745372894   -2.3799e-04  4.54e-03  3.73e-10    1    1  TS
   @MCSCF  7:   -106.752830377928   -8.5005e-05  2.53e-03  3.84e-10    1    1  TS, DIIS
   @MCSCF  8:   -106.752862680903   -3.2303e-05  1.41e-03  3.79e-10    1    1  TS, DIIS
   @MCSCF  9:   -106.752859178984    3.5019e-06  2.51e-03  3.85e-10    1    1  TS, DIIS
   @MCSCF 10:   -106.752877030258   -1.7851e-05  1.46e-03  3.80e-10    2    1  TS, DIIS
   @MCSCF 11:   -106.752884415281   -7.3850e-06  4.11e-04  3.83e-10    1    1  TS, DIIS
   @MCSCF 12:   -106.752885012323   -5.9704e-07  1.12e-04  3.82e-10    1    1  TS, DIIS
   @MCSCF 13:   -106.752885060917   -4.8595e-08  7.10e-07  3.82e-10    1    1  TS, DIIS
   @MCSCF 14:   -106.752885060915    2.6148e-12  1.11e-06  3.83e-10    1    1  TS, DIIS
   @MCSCF 15:   -106.752885060919   -4.5475e-12  3.42e-09  3.82e-10    1    1  TS, DIIS

          @MCSCF has converged!

   @MCSCF Final Energy: -106.752885060919169

   Computing CI Semicanonical Orbitals

   ==> Energetics <==

    SCF energy =         -106.764856351738302
    Total MCSCF energy = -106.752885060919169

   ==> MCSCF root 0 information <==

    MCSCF Root 0 energy =  -106.772344531855580

   Active Space Natural occupation numbers:

        A1   1.177995        A1   0.822005

   The 4 most important determinants:

    *   1   -0.699843  (    1,    0)  4A1B 5A1A 
    *   2   -0.699843  (    0,    1)  4A1A 5A1B 
    *   3   -0.142097  (    0,    0)  4A1X 
    *   4    0.015730  (    1,    1)  5A1X 


   ==> MCSCF root 1 information <==

    MCSCF Root 1 energy =  -106.733425589981124

   Active Space Natural occupation numbers:

        A1   1.999870        A1   0.000130

   The 4 most important determinants:

    *   1   -0.989853  (    0,    0)  4A1X 
    *   2    0.100467  (    1,    0)  4A1B 5A1A 
    *   3    0.100467  (    0,    1)  4A1A 5A1B 
    *   4   -0.002053  (    1,    1)  5A1X 



Properties will be evaluated at   0.000000,   0.000000,   0.000000 Bohr

Properties computed using the CASSCF density matrix

  Nuclear Dipole Moment: (a.u.)
     X:     0.0000      Y:     0.0000      Z:     2.3636

  Electronic Dipole Moment: (a.u.)
     X:     0.0000      Y:     0.0000      Z:    -7.3349

  Dipole Moment: (a.u.)
     X:     0.0000      Y:     0.0000      Z:    -4.9713     Total:     4.9713

  Dipole Moment: (Debye)
     X:     0.0000      Y:     0.0000      Z:   -12.6357     Total:    12.6357

	SA-CASSCF energy..................................................PASSED

==> !! MS !! <==
   => Loading Basis Set <=

    Name: STO-3G
    Role: ORBITAL
    Keyword: MINAO_BASIS
    atoms 1 entry LI         line    31 file /Users/york/src/psi4new/psi4/share/psi4/basis/sto-3g.gbs 
    atoms 2 entry F          line    91 file /Users/york/src/psi4new/psi4/share/psi4/basis/sto-3g.gbs 


Reading options from the FORTE block
Calling plugin forte.so.



  Forte
  ----------------------------------------------------------------------------
  A suite of quantum chemistry methods for strongly correlated electrons

    git branch: dwsa-dsrg-pt - git commit: 5258b91f

  Developed by:
    Francesco A. Evangelista, Chenyang Li, Kevin P. Hannon,
    Jeffrey B. Schriber, Tianyuan Zhang, Chenxi Cai
  ----------------------------------------------------------------------------

  Size of Determinant class: 32

  ==> MO Space Information <==

  Read options for space FROZEN_DOCC
  Read options for space RESTRICTED_DOCC
  Read options for space ACTIVE
 Removing orbital 0
 Removing orbital 1
  -------------------------------------------------
                       A1    A2    B1    B2   Sum
  -------------------------------------------------
    FROZEN_DOCC         2     0     0     0     2
    RESTRICTED_DOCC     1     0     0     0     1
    ACTIVE              3     0     2     2     7
    RESTRICTED_UOCC    12     3     6     6    27
    FROZEN_UOCC         0     0     0     0     0
    Total              18     3     8     8    37
  -------------------------------------------------

  ==> Integral Transformation <==

  Number of molecular orbitals:               37
  Number of correlated molecular orbitals:    35
  Number of frozen occupied orbitals:          2
  Number of frozen unoccupied orbitals:        0


  Overall Conventional Integrals timings

	Presorting SO-basis two-electron integrals.
	Sorting File: SO Ints (nn|nn) nbuckets = 1
	Transforming the one-electron integrals and constructing Fock matrices
	Starting first half-transformation.
	Sorting half-transformed integrals.
	First half integral transformation complete.
	Starting second half-transformation.
	Two-electron integral transformation complete.

  Integral transformation done. 0.10939000 s
  Reading the two-electron integrals from disk
  Size of two-electron integrals:   0.041891 GB
  Frozen-core energy            -84.713599407175 a.u.

  FrozenOneBody Operator takes  0.27851900 s
  Resorting integrals after freezing core.
  Conventional integrals take 0.88360200 s

              ---------------------------------------------------
                Complete Active Space Configuration Interaction
                                  Chenyang Li
              ---------------------------------------------------


  ==> Input Summary <==

    No. a electrons in active      =     3
    No. b electrons in active      =     3
    multiplicity                   =     1
    spin ms (2 * Sz)               =     0

  ==> Orbital Spaces <==

    TOTAL MO                      [   18     3     8     8 ]
    FROZEN CORE                   [    2     0     0     0 ]
    FROZEN VIRTUAL                [    0     0     0     0 ]
    CORRELATED MO                 [   16     3     8     8 ]
    CORE                          [    1     0     0     0 ]
    ACTIVE                        [    3     0     2     2 ]
    VIRTUAL                       [   12     3     6     6 ]

  ==> State Averaging Summary <==

    Irrep.  Multi.  Nstates      Weights
    ------------------------------------
      A1       1        2    0.500 0.500
    ------------------------------------
    Total number of states: 2
    ------------------------------------

  Forming alpha and beta strings      ...  Done. Timing        0.000788 s
  Forming determinants                ...  Done. Timing        0.000269 s

  ==> Determinants Summary <==

    number of alpha active electrons         =     3
    number of beta active electrons          =     3
    root symmetry (zero based)               =     0
    number of determinants                   =   321

  Diagonalizing Hamiltonian           ...

  ==> Computing Coupling Lists <==
  --------------------------------
        α          0.003132 s
        β          0.001382 s
        αα         0.001921 s
        ββ         0.001544 s
        αβ         0.005065 s
  --------------------------------

  Davidson-Liu solver algorithm
  Using SPARSE sigma builder
  Initial guess space is incomplete!
  Trying to add 25 determinant(s).  25 determinant(s) added.
  Initial guess found 89 solutions with 2S+1 = 1 *
  Initial guess found 103 solutions with 2S+1 = 3  
  Initial guess found 30 solutions with 2S+1 = 5  
  Initial guess found 3 solutions with 2S+1 = 7  
  Adding guess 0 (multiplicity = 1.000000)
  Adding guess 1 (multiplicity = 1.000000)
  Adding guess 2 (multiplicity = 1.000000)
  Adding guess 3 (multiplicity = 1.000000)

  ==> Diagonalizing Hamiltonian <==

  ----------------------------------------
    Iter.      Avg. Energy       Delta_E
  ----------------------------------------
      1      -97.331220979587  -9.733e+01
      2      -97.331220979587  -5.258e-13
  ----------------------------------------
  The Davidson-Liu algorithm converged in 3 iterations.
  Davidson-Liu procedure took  0.359047 s  Done. Timing        0.381697 s

  * * * * * * * * * * * * * * * * *
  *  CI Vectors & Configurations  *
  * * * * * * * * * * * * * * * * *

  ==> Root No. 0 <==

    ba0 20 20          0.6992227065
    ab0 20 20          0.6992227065
    200 20 20          0.1460778804

    Total Energy:   -106.772573835124845


  ==> Root No. 1 <==

    200 20 20         -0.9609078851
    b0a 20 20         -0.1530225594
    a0b 20 20         -0.1530225594
    ba0 20 20          0.1034192684
    ab0 20 20          0.1034192684

    Total Energy:   -106.735798150989481



  ==> Permanent Dipole Moments (A1) <==

  Only print nonzero (> 1.0e-5) elements.
  Permanent dipole moments (a.u.) 0 -> 0:  X:  0.0000  Y:  0.0000  Z: -0.2189  Total:  0.2189
  Permanent dipole moments (a.u.) 1 -> 1:  X:  0.0000  Y:  0.0000  Z: -8.9753  Total:  8.9753


  ==> Transition Dipole Moments (A1 -> A1) <==

  Only print nonzero (> 1.0e-5) elements.
  Transition dipole moments (a.u.) 0 -> 1:  X:  0.0000  Y:  0.0000  Z:  1.7577  Total:  1.7577


  ==> Oscillator Strength (A1 -> A1) <==

  Only print nonzero (> 1.0e-5) elements.
  Oscillator strength (a.u.) 0 -> 1:  X:  0.0000  Y:  0.0000  Z:  0.0757  Total:  0.0757

  Total Energy (averaged over 2 states): -106.754185993057163


  ==> Compute State-Averaged Cumulants <==

  Computing  1RDM (0-0) of Singlet A1 ... Done. Timing        0.004817 s
  Computing  2RDM (0-0) of Singlet A1 ... Done. Timing        0.007607 s
  Computing  3RDM (0-0) of Singlet A1 ... Done. Timing        0.021196 s
  Computing  1RDM (1-1) of Singlet A1 ... Done. Timing        0.003590 s
  Computing  2RDM (1-1) of Singlet A1 ... Done. Timing        0.007214 s
  Computing  3RDM (1-1) of Singlet A1 ... Done. Timing        0.021083 s
  Adding wedge product for 2-cumulants ... Done. Timing        0.008468 s
  Adding wedge product for 3-cumulants ... Done. Timing        0.242672 s

  ==> Multireference Driven Similarity Renormalization Group <==

    Reading DSRG options ............................ Done
    Setting ambit MO space .......................... Done
    Preparing tensors for density cumulants ......... Done
    Building Fock matrix ............................ Done
    Checking reference energy ....................... Done

              ----------------------------------------------------
                    MR-DSRG Second-Order Perturbation Theory
                Chenyang Li, Kevin Hannon, Francesco Evangelista
              ----------------------------------------------------

    References:
      u-DSRG-MRPT2:    J. Chem. Theory Comput. 2015, 11, 2097.
      (pr-)DSRG-MRPT2: J. Chem. Phys. 2017, 146, 124132.

  ==> Calculation Information <==

    ntamp                                                 15
    flow parameter                                 5.000e-01
    taylor expansion threshold                     1.000e-03
    intruder_tamp                                  1.000e-01
    int_type                                    CONVENTIONAL
    source operator                                 STANDARD
    reference relaxation                                NONE
    state_type                                   MULTI-STATE
    multi-state type                                      MS
    form Hbar3                                         FALSE

  ==> Build Effective Hamiltonian (Singlet A1) <==



  ==> Compute DSRG-MRPT2 Energy of State 0 <==


  ==> Checking Semicanonical Orbitals <==

    Abs. max of Fock core, active, virtual blocks (Fij, i != j)
                  core          active         virtual
    --------------------------------------------------
    Fα    0.0000000000    0.0063572474    0.0569609909
    Fβ    0.0000000000    0.0063572474    0.0569609909
    --------------------------------------------------

    1-Norm of Fock core, active, virtual blocks (Fij, i != j)
                  core          active         virtual
    --------------------------------------------------
    Fα    0.0000000000    0.0292281446    1.6435947103
    Fβ    0.0000000000    0.0292281446    1.6435947103
    --------------------------------------------------

    Warning! Orbitals are not semi-canonicalized!
    Orbital invariant formalism will be employed for DSRG-MRPT2.

  ==> Computing DSRG-MRPT2 ... <==

    Computing T2 amplitudes                  ...  Done. Timing        0.662277 s
    Computing T1 amplitudes                  ...  Done. Timing        0.040375 s
    Renormalizing two-electron integrals     ...  Done. Timing        0.659483 s
    Renormalizing Fock matrix elements       ...  Done. Timing        0.035857 s
    Computing <[F, T1]>                      ...  Done. Timing        0.003063 s
    Computing <[F, T2]>                      ...  Done. Timing        0.006169 s
    Computing <[V, T1]>                      ...  Done. Timing        0.008508 s
    Computing <[V, T2]> (C_2)^4              ...  Done. Timing        0.045018 s
    Computing <[V, T2]> C_4 (C_2)^2 HH       ...  Done. Timing        0.006972 s
    Computing <[V, T2]> C_4 (C_2)^2 PP       ...  Done. Timing        0.011390 s
    Computing <[V, T2]> C_4 (C_2)^2 PH       ...  Done. Timing        0.043586 s
    Computing <[V, T2]> C_6 C_2              ...  Done. Timing        0.160142 s

  ==> Excitation Amplitudes Summary <==

    Active Indices:    1    2    3   19   20   27   28 
    Largest T1 amplitudes for spin case A:
       i       a                  i       a                  i       a               
    --------------------------------------------------------------------------------
    [ 27      33    ]-0.034108 [ 19      25    ]-0.034108 [ 27      31    ] 0.020600 
    [ 19      23    ] 0.020600 [  0      13    ] 0.017972 [  0       8    ]-0.014125 
    [  1      12    ]-0.013641 [  0       9    ] 0.012101 [ 27      30    ]-0.006098 
    [ 19      22    ]-0.006098 [  1       9    ]-0.005442 [  1       8    ]-0.003754 
    [  1       6    ] 0.003202 [  0       6    ]-0.002902 [  0       5    ] 0.002885 
    --------------------------------------------------------------------------------
    Norm of T1A vector: (nonzero elements: 75)                    0.064893854202726.
    --------------------------------------------------------------------------------
    Largest T1 amplitudes for spin case B:
       _       _                  _       _                  _       _               
       i       a                  i       a                  i       a               
    --------------------------------------------------------------------------------
    [ 27      33    ]-0.034108 [ 19      25    ]-0.034108 [ 27      31    ] 0.020600 
    [ 19      23    ] 0.020600 [  0      13    ] 0.017972 [  0       8    ]-0.014125 
    [  1      12    ]-0.013641 [  0       9    ] 0.012101 [ 27      30    ]-0.006098 
    [ 19      22    ]-0.006098 [  1       9    ]-0.005442 [  1       8    ]-0.003754 
    [  1       6    ] 0.003202 [  0       6    ]-0.002902 [  0       5    ] 0.002885 
    --------------------------------------------------------------------------------
    Norm of T1B vector: (nonzero elements: 75)                    0.064893854202726.
    --------------------------------------------------------------------------------
    Largest T2 amplitudes for spin case AA:
       i   j   a   b              i   j   a   b              i   j   a   b           
    --------------------------------------------------------------------------------
    [  1  27  12  27] 0.074646 [  1  19  12  19] 0.074646 [ 19  27  19  33] 0.070837 
    [ 19  27  25  27] 0.070837 [  1  27   1  33] 0.068352 [  1  19   1  25] 0.068352 
    [ 19  27  19  31]-0.042238 [ 19  27  23  27]-0.042238 [  1  27   1  31]-0.041097 
    [  1  19   1  23]-0.041097 [  0  27  13  27]-0.035079 [  0  19  13  19]-0.035079 
    [  0   1   1  13] 0.033901 [  0  27   8  27] 0.027166 [  0  19   8  19] 0.027166 
    --------------------------------------------------------------------------------
    Norm of T2AA vector: (nonzero elements: 18637)                0.484857361794965.
    --------------------------------------------------------------------------------
    Largest T2 amplitudes for spin case AB:
           _       _                  _       _                  _       _           
       i   j   a   b              i   j   a   b              i   j   a   b           
    --------------------------------------------------------------------------------
    [  1   1   1  12] 0.084872 [ 27  27  27  33] 0.084103 [ 19  19  19  25] 0.084103 
    [  1  27  12  27] 0.079421 [  1  19  12  19] 0.079421 [  0   0  27  27]-0.076415 
    [  0   0  19  19]-0.076415 [ 19  27  19  33] 0.075259 [ 19  27  25  27] 0.075259 
    [  1  27   1  33] 0.072319 [  1  19   1  25] 0.072319 [  0   0   1   1]-0.064913 
    [ 27  27  27  31]-0.052441 [ 19  19  19  23]-0.052441 [ 19  27  19  31]-0.045639 
    --------------------------------------------------------------------------------
    Norm of T2AB vector: (nonzero elements: 19007)                0.500534881327056.
    --------------------------------------------------------------------------------
    Largest T2 amplitudes for spin case BB:
       _   _   _   _              _   _   _   _              _   _   _   _           
       i   j   a   b              i   j   a   b              i   j   a   b           
    --------------------------------------------------------------------------------
    [  1  27  12  27] 0.074646 [  1  19  12  19] 0.074646 [ 19  27  19  33] 0.070837 
    [ 19  27  25  27] 0.070837 [  1  27   1  33] 0.068352 [  1  19   1  25] 0.068352 
    [ 19  27  19  31]-0.042238 [ 19  27  23  27]-0.042238 [  1  27   1  31]-0.041097 
    [  1  19   1  23]-0.041097 [  0  27  13  27]-0.035079 [  0  19  13  19]-0.035079 
    [  0   1   1  13] 0.033901 [  0  27   8  27] 0.027166 [  0  19   8  19] 0.027166 
    --------------------------------------------------------------------------------
    Norm of T2BB vector: (nonzero elements: 18631)                0.484857361794965.
    --------------------------------------------------------------------------------

  ==> Possible Intruders <==

    T1 amplitudes larger than 0.1000 for spin case A: NULL
    T1 amplitudes larger than 0.1000 for spin case B: NULL
    T2 amplitudes larger than 0.1000 for spin case AA: NULL
    T2 amplitudes larger than 0.1000 for spin case AB: NULL
    T2 amplitudes larger than 0.1000 for spin case BB: NULL

  ==> DSRG-MRPT2 Energy Summary <==

    E0 (reference)                 =   -106.772573835124788
    <[F, T1]>                      =     -0.025349234160754
    <[F, T2]>                      =     -0.002399498706203
    <[V, T1]>                      =     -0.002381027250649
    <[V, T2]> (C_2)^4              =     -0.238312825349750
    <[V, T2]> C_4 (C_2)^2 HH       =      0.002763052534508
    <[V, T2]> C_4 (C_2)^2 PP       =      0.013930087978226
    <[V, T2]> C_4 (C_2)^2 PH       =      0.039136488960581
    <[V, T2]> C_6 C_2              =     -0.000033454148470
    <[V, T2]>                      =     -0.182516650024905
    DSRG-MRPT2 correlation energy  =     -0.212646410142511
    DSRG-MRPT2 total energy        =   -106.985220245267300
    max(T1)                        =      0.034108128752055
    max(T2)                        =      0.084871808134908
    ||T1||                         =      0.091773768728158
    ||T2||                         =      1.213389464382276

  Energy took      1.779 s


  ==> Compute Couplings with State 0 <==

    Computing coupling of <1|H|0>            ...  Done. Timing        0.005827 s
    Computing coupling of <1|HT|0>           ...  Done. Timing        0.937215 s

  ==> Compute DSRG-MRPT2 Energy of State 1 <==


  ==> Checking Semicanonical Orbitals <==

    Abs. max of Fock core, active, virtual blocks (Fij, i != j)
                  core          active         virtual
    --------------------------------------------------
    Fα    0.0000000000    0.0221303570    0.0502186728
    Fβ    0.0000000000    0.0221303570    0.0502186728
    --------------------------------------------------

    1-Norm of Fock core, active, virtual blocks (Fij, i != j)
                  core          active         virtual
    --------------------------------------------------
    Fα    0.0000000000    0.1101530354    1.4048371962
    Fβ    0.0000000000    0.1101530354    1.4048371962
    --------------------------------------------------

    Warning! Orbitals are not semi-canonicalized!
    Orbital invariant formalism will be employed for DSRG-MRPT2.

  ==> Computing DSRG-MRPT2 ... <==

    Computing T2 amplitudes                  ...  Done. Timing        0.705574 s
    Computing T1 amplitudes                  ...  Done. Timing        0.038529 s
    Renormalizing two-electron integrals     ...  Done. Timing        0.689266 s
    Renormalizing Fock matrix elements       ...  Done. Timing        0.036965 s
    Computing <[F, T1]>                      ...  Done. Timing        0.002127 s
    Computing <[F, T2]>                      ...  Done. Timing        0.007013 s
    Computing <[V, T1]>                      ...  Done. Timing        0.006098 s
    Computing <[V, T2]> (C_2)^4              ...  Done. Timing        0.038425 s
    Computing <[V, T2]> C_4 (C_2)^2 HH       ...  Done. Timing        0.008090 s
    Computing <[V, T2]> C_4 (C_2)^2 PP       ...  Done. Timing        0.011146 s
    Computing <[V, T2]> C_4 (C_2)^2 PH       ...  Done. Timing        0.053113 s
    Computing <[V, T2]> C_6 C_2              ...  Done. Timing        0.162237 s

  ==> Excitation Amplitudes Summary <==

    Active Indices:    1    2    3   19   20   27   28 
    Largest T1 amplitudes for spin case A:
       i       a                  i       a                  i       a               
    --------------------------------------------------------------------------------
    [ 19      25    ] 0.029839 [ 27      33    ] 0.029839 [  1      12    ] 0.023330 
    [  0      13    ]-0.015185 [ 19      23    ]-0.012793 [ 27      31    ]-0.012793 
    [  0       8    ] 0.011829 [  0       9    ]-0.010450 [  1       9    ] 0.008700 
    [  1       8    ] 0.006779 [  1       6    ]-0.005534 [ 19      22    ] 0.003770 
    [ 27      30    ] 0.003770 [  0       6    ] 0.002662 [  0       5    ]-0.002442 
    --------------------------------------------------------------------------------
    Norm of T1A vector: (nonzero elements: 75)                    0.057912742501057.
    --------------------------------------------------------------------------------
    Largest T1 amplitudes for spin case B:
       _       _                  _       _                  _       _               
       i       a                  i       a                  i       a               
    --------------------------------------------------------------------------------
    [ 19      25    ] 0.029839 [ 27      33    ] 0.029839 [  1      12    ] 0.023330 
    [  0      13    ]-0.015185 [ 19      23    ]-0.012793 [ 27      31    ]-0.012793 
    [  0       8    ] 0.011829 [  0       9    ]-0.010450 [  1       9    ] 0.008700 
    [  1       8    ] 0.006779 [  1       6    ]-0.005534 [ 19      22    ] 0.003770 
    [ 27      30    ] 0.003770 [  0       6    ] 0.002662 [  0       5    ]-0.002442 
    --------------------------------------------------------------------------------
    Norm of T1B vector: (nonzero elements: 75)                    0.057912742501057.
    --------------------------------------------------------------------------------
    Largest T2 amplitudes for spin case AA:
       i   j   a   b              i   j   a   b              i   j   a   b           
    --------------------------------------------------------------------------------
    [ 19  27  25  27] 0.073017 [ 19  27  19  33] 0.073017 [  1  27  12  27] 0.072256 
    [  1  19  12  19] 0.072256 [  1  19   1  25] 0.070455 [  1  27   1  33] 0.070455 
    [  0  27  13  27]-0.035170 [  0  19  13  19]-0.035170 [  0   1   1  13] 0.033932 
    [ 19  27  19  31]-0.030586 [ 19  27  23  27]-0.030586 [  1  27   1  31]-0.029745 
    [  1  19   1  23]-0.029745 [  0  27   8  27] 0.027072 [  0  19   8  19] 0.027072 
    --------------------------------------------------------------------------------
    Norm of T2AA vector: (nonzero elements: 18639)                0.469839468234595.
    --------------------------------------------------------------------------------
    Largest T2 amplitudes for spin case AB:
           _       _                  _       _                  _       _           
       i   j   a   b              i   j   a   b              i   j   a   b           
    --------------------------------------------------------------------------------
    [ 19  19  19  25] 0.086710 [ 27  27  27  33] 0.086710 [  1   1   1  12] 0.082206 
    [ 19  27  25  27] 0.077581 [ 19  27  19  33] 0.077581 [  1  27  12  27] 0.076892 
    [  1  19  12  19] 0.076892 [  0   0  27  27]-0.076415 [  0   0  19  19]-0.076415 
    [  1  19   1  25] 0.074551 [  1  27   1  33] 0.074551 [  0   0   1   1]-0.073967 
    [  0  27  13  27]-0.041726 [  0  19  13  19]-0.041726 [ 27  27  27  31]-0.037945 
    --------------------------------------------------------------------------------
    Norm of T2AB vector: (nonzero elements: 19007)                0.487437964856724.
    --------------------------------------------------------------------------------
    Largest T2 amplitudes for spin case BB:
       _   _   _   _              _   _   _   _              _   _   _   _           
       i   j   a   b              i   j   a   b              i   j   a   b           
    --------------------------------------------------------------------------------
    [ 19  27  25  27] 0.073017 [ 19  27  19  33] 0.073017 [  1  27  12  27] 0.072256 
    [  1  19  12  19] 0.072256 [  1  19   1  25] 0.070455 [  1  27   1  33] 0.070455 
    [  0  27  13  27]-0.035170 [  0  19  13  19]-0.035170 [  0   1   1  13] 0.033932 
    [ 19  27  19  31]-0.030586 [ 19  27  23  27]-0.030586 [  1  27   1  31]-0.029745 
    [  1  19   1  23]-0.029745 [  0  27   8  27] 0.027072 [  0  19   8  19] 0.027072 
    --------------------------------------------------------------------------------
    Norm of T2BB vector: (nonzero elements: 18643)                0.469839468234595.
    --------------------------------------------------------------------------------

  ==> Possible Intruders <==

    T1 amplitudes larger than 0.1000 for spin case A: NULL
    T1 amplitudes larger than 0.1000 for spin case B: NULL
    T2 amplitudes larger than 0.1000 for spin case AA: NULL
    T2 amplitudes larger than 0.1000 for spin case AB: NULL
    T2 amplitudes larger than 0.1000 for spin case BB: NULL

  ==> DSRG-MRPT2 Energy Summary <==

    E0 (reference)                 =   -106.735798150989538
    <[F, T1]>                      =     -0.021446551278502
    <[F, T2]>                      =      0.000053474860166
    <[V, T1]>                      =      0.000053913692780
    <[V, T2]> (C_2)^4              =     -0.227666218537059
    <[V, T2]> C_4 (C_2)^2 HH       =      0.000021205281414
    <[V, T2]> C_4 (C_2)^2 PP       =      0.000051493539839
    <[V, T2]> C_4 (C_2)^2 PH       =      0.000293295237873
    <[V, T2]> C_6 C_2              =      0.000005647215546
    <[V, T2]>                      =     -0.227294577262386
    DSRG-MRPT2 correlation energy  =     -0.248633739987943
    DSRG-MRPT2 total energy        =   -106.984431890977476
    max(T1)                        =      0.029839136858050
    max(T2)                        =      0.086710283798918
    ||T1||                         =      0.081900985879216
    ||T2||                         =      1.179780204172199

  Energy took      1.863 s


  ==> Compute Couplings with State 1 <==

    Computing coupling of <0|HT|1>           ...  Done. Timing        0.808757 s

  ==> Effective Hamiltonian Summary <==

  ## Heff Singlet A1 (Symmetry 0) ##
  Irrep: 1 Size: 2 x 2

                 1                   2

    1  -106.98522024526730     0.00453526476640
    2     0.00477039027341  -106.98443189097748



  ## Heff (Symmetrized) Singlet A1 (Symmetry 0) ##
  Irrep: 1 Size: 2 x 2

                 1                   2

    1  -106.98522024526730     0.00465282751990
    2     0.00465282751990  -106.98443189097748



  ## U of Heff (Symmetrized) with eigenvalues ##
 Irrep: 1

           1           2

    1  -0.7363475  -0.6766035
    2   0.6766035  -0.7363475

     -106.9894956-106.9801566



  ==> Multi-State DSRG-MRPT2 Energy Summary <==

    Multi.  Irrep.  No.    DSRG-MRPT2 Energy
    -----------------------------------------
       1      A1     0      -106.989495562694
       1      A1     1      -106.980156573551
    -----------------------------------------

  ==> DSRG_TIME for Computing Commutators in Seconds <==

    ==================================
    Time for [A1,B1] -> C0:      0.005
    Time for [A1,B2] -> C0:      0.013
    Time for [A2,B1] -> C0:      0.015
    Time for [A2,B2] -> C0:      0.541
    Time for [A1,B1] -> C1:      0.004
    Time for [A1,B2] -> C1:      0.037
    Time for [A2,B1] -> C1:      0.024
    Time for [A2,B2] -> C1:      0.609
    Time for [A1,B2] -> C2:      0.037
    Time for [A2,B1] -> C2:      0.035
    Time for [A2,B2] -> C2:      0.227
    Time for [A2,B2] -> C3:      1.518
    ==================================
==> !! XMS !! <==

*** tstart() called on dhcp189-132.emerson.emory.edu
*** at Fri Mar 30 20:54:19 2018

   => Loading Basis Set <=

    Name: ANONYMOUS104B7F82
    Role: ORBITAL
    Keyword: BASIS
    atoms 1 entry LI         line     5 inputblock li-cc-pvdz 
    atoms 2 entry F          line   286 file /Users/york/src/psi4new/psi4/share/psi4/basis/aug-cc-pvdz.gbs 


         ---------------------------------------------------------
                                   SCF
            by Justin Turney, Rob Parrish, Andy Simmonett
                             and Daniel Smith
                              RHF Reference
                        1 Threads,    500 MiB Core
         ---------------------------------------------------------

  ==> Geometry <==

    Molecular point group: c2v
    Full point group: C_inf_v

    Geometry (in Bohr), charge = 0, multiplicity = 1:

       Center              X                  Y                   Z               Mass       
    ------------   -----------------  -----------------  -----------------  -----------------
          LI          0.000000000000     0.000000000000    -7.303031224277     7.016004548000
           F          0.000000000000     0.000000000000     2.696968775723    18.998403224000

  Running in c2v symmetry.

  Rotational constants: A = ************  B =      0.11749  C =      0.11749 [cm^-1]
  Rotational constants: A = ************  B =   3522.26409  C =   3522.26409 [MHz]
  Nuclear repulsion =    2.700000000000000

  Charge       = 0
  Multiplicity = 1
  Electrons    = 12
  Nalpha       = 6
  Nbeta        = 6

  ==> Algorithm <==

  SCF Algorithm Type is OUT_OF_CORE.
  DIIS enabled.
  MOM disabled.
  Fractional occupation disabled.
  Guess Type is SAD.
  Energy threshold   = 1.00e-10
  Density threshold  = 1.00e-10
  Integral threshold = 0.00e+00

  ==> Primary Basis <==

  Basis Set: ANONYMOUS104B7F82
    Blend: AUG-CC-PVDZ + LI-CC-PVDZ
    Number of shells: 15
    Number of basis function: 37
    Number of Cartesian functions: 40
    Spherical Harmonics?: true
    Max angular momentum: 2

  ==> Pre-Iterations <==

   -------------------------------------------------------
    Irrep   Nso     Nmo     Nalpha   Nbeta   Ndocc  Nsocc
   -------------------------------------------------------
     A1        18      18       4       4       4       0
     A2         3       3       0       0       0       0
     B1         8       8       1       1       1       0
     B2         8       8       1       1       1       0
   -------------------------------------------------------
    Total      37      37       6       6       6       0
   -------------------------------------------------------

  ==> Integral Setup <==

  ==> DiskJK: Disk-Based J/K Matrices <==

    J tasked:                  Yes
    K tasked:                  Yes
    wK tasked:                  No
    Memory (MB):               375
    Schwarz Cutoff:          1E-12

  Minimum eigenvalue in the overlap matrix is 8.8020111411E-02.
  Using Symmetric Orthogonalization.

  SCF Guess: Superposition of Atomic Densities via on-the-fly atomic UHF.

  ==> Iterations <==

                        Total Energy        Delta E     RMS |[F,P]|

   @RHF iter   0:  -106.46629982219140   -1.06466e+02   4.32681e-03 
   @RHF iter   1:  -106.67409764913671   -2.07798e-01   2.16236e-02 
   @RHF iter   2:  -105.52704242274709    1.14706e+00   6.05206e-02 DIIS
   @RHF iter   3:  -106.74559059579336   -1.21855e+00   9.34588e-03 DIIS
   @RHF iter   4:  -106.76361235466882   -1.80218e-02   1.98973e-03 DIIS
   @RHF iter   5:  -106.76470687941089   -1.09452e-03   6.54783e-04 DIIS
   @RHF iter   6:  -106.76484240087204   -1.35521e-04   2.01429e-04 DIIS
   @RHF iter   7:  -106.76485561897489   -1.32181e-05   4.24278e-05 DIIS
   @RHF iter   8:  -106.76485633713995   -7.18165e-07   4.20165e-06 DIIS
   @RHF iter   9:  -106.76485635100335   -1.38634e-08   1.56161e-06 DIIS
   @RHF iter  10:  -106.76485635164607   -6.42729e-10   5.38256e-07 DIIS
   @RHF iter  11:  -106.76485635173182   -8.57483e-11   1.27445e-07 DIIS
   @RHF iter  12:  -106.76485635173839   -6.56541e-12   6.54154e-09 DIIS
   @RHF iter  13:  -106.76485635173842   -2.84217e-14   1.19194e-09 DIIS
   @RHF iter  14:  -106.76485635173850   -8.52651e-14   3.49205e-10 DIIS
   @RHF iter  15:  -106.76485635173840    9.94760e-14   8.49745e-11 DIIS

  ==> Post-Iterations <==

    Orbital Energies (a.u.)
    -----------------------

    Doubly Occupied:                                                      

       1A1   -25.949822     2A1    -2.691664     3A1    -1.181713  
       1B1    -0.282869     1B2    -0.282869     4A1    -0.281733  

    Virtual:                                                              

       5A1    -0.102315     2B1    -0.034308     2B2    -0.034308  
       6A1    -0.017926     7A1     0.059038     3B1     0.069758  
       3B2     0.069758     8A1     0.115169     9A1     0.230550  
       1A2     0.230550    10A1     0.235491     4B1     0.236544  
       4B2     0.236544     5B1     0.414969     5B2     0.414969  
      11A1     0.434294    12A1     0.463808    13A1     1.634017  
       6B2     1.634417     6B1     1.634417    14A1     1.636003  
       2A2     1.636003     7B1     1.968778     7B2     1.968778  
      15A1     1.981773    16A1     2.604672    17A1     5.197522  
       8B2     5.197552     8B1     5.197552    18A1     5.198222  
       3A2     5.198222  

    Final Occupation by Irrep:
             A1    A2    B1    B2 
    DOCC [     4,    0,    1,    1 ]

  Energy converged.

  @RHF Final Energy:  -106.76485635173840

   => Energetics <=

    Nuclear Repulsion Energy =              2.7000000000000002
    One-Electron Energy =                -157.5883761461957704
    Two-Electron Energy =                  48.1235197944573798
    Total Energy =                       -106.7648563517384019



Properties will be evaluated at   0.000000,   0.000000,   0.000000 Bohr

Properties computed using the SCF density matrix

  Nuclear Dipole Moment: (a.u.)
     X:     0.0000      Y:     0.0000      Z:     2.3636

  Electronic Dipole Moment: (a.u.)
     X:     0.0000      Y:     0.0000      Z:   -12.2800

  Dipole Moment: (a.u.)
     X:     0.0000      Y:     0.0000      Z:    -9.9163     Total:     9.9163

  Dipole Moment: (Debye)
     X:     0.0000      Y:     0.0000      Z:   -25.2048     Total:    25.2048


*** tstop() called on dhcp189-132.emerson.emory.edu at Fri Mar 30 20:54:21 2018
Module time:
	user time   =       0.92 seconds =       0.02 minutes
	system time =       0.11 seconds =       0.00 minutes
	total time  =          2 seconds =       0.03 minutes
Total time:
	user time   =      20.50 seconds =       0.34 minutes
	system time =       1.47 seconds =       0.02 minutes
	total time  =         25 seconds =       0.42 minutes
 MINTS: Wrapper to libmints.
   by Justin Turney

   Calculation information:
      Number of threads:                 1
      Number of atoms:                   2
      Number of AO shells:              15
      Number of SO shells:              15
      Number of primitives:             47
      Number of atomic orbitals:        40
      Number of basis functions:        37

      Number of irreps:                  4
      Integral cutoff                 1.00e-12
      Number of functions per irrep: [  18    3    8    8 ]

 OEINTS: Overlap, kinetic, potential, dipole, and quadrupole integrals
         stored in file 35.

      Computing two-electron integrals...done
      Computed 54201 non-zero two-electron integrals.
        Stored in file 33.


         ---------------------------------------------------------
                Multi-Configurational Self-Consistent Field
                            (a 'D E T C I' module)

                 Daniel G. A. Smith, C. David Sherrill, and
                              Matt L. Leininger
         ---------------------------------------------------------


   ==> Parameters <==

    EX LEVEL       =        2      H0 BLOCKSIZE  =     1000
    VAL EX LEVEL   =        0      H0 GUESS SIZE =     1000
    H0COUPLINGSIZE =        0      H0 COUPLING   =       NO
    MAXITER        =       12      NUM PRINT     =       20
    NUM ROOTS      =        2      ICORE         =        1
    PRINT LVL      =        1      FCI           =      YES
    R CONV         = 1.00e-07      MIXED         =      YES
    E CONV         = 1.00e-10      MIXED4        =      YES
    R4S            =       NO      REPL OTF      =       NO
    DIAG METHOD    =      SEM      FOLLOW ROOT   =        2
    PRECONDITIONER = DAVIDSON      UPDATE        = DAVIDSON
    S              =   0.0000      Ms0           =      YES
    GUESS VECTOR   =  H0BLOCK      OPENTYPE      =     NONE
    COLLAPSE SIZE  =        1      HD AVG        = EVANGELISTI
    MAX NUM VECS   =       26      REF SYM       =     AUTO
    IOPEN        =       NO

    EX ALLOW       =  1  1 
    STATE AVERAGE  =  0(0.50)  1(0.50) 

   ==> CI Orbital and Space information <==

   ------------------------------------------------------
               Space    Total    A1    A2    B1    B2
   ------------------------------------------------------
                 Nso       37    18     3     8     8
                 Nmo       37    18     3     8     8
               Ndocc        6     4     0     1     1
               Nsocc        0     0     0     0     0
   ------------------------------------------------------
                        MCSCF Spaces
   ------------------------------------------------------
         Frozen DOCC        0     0     0     0     0
     Restricted DOCC        5     3     0     1     1
              Active        2     2     0     0     0
     Restricted UOCC       30    13     3     7     7
         Frozen UOCC        0     0     0     0     0
   ------------------------------------------------------

   ==> Setting up CI strings <==

    There are 2 alpha and 2 beta strings
    The CI space requires 4 (4.00E+00) determinants and 1 blocks

   ==> Setting up MCSCF integrals <==

  ==> DiskJK: Disk-Based J/K Matrices <==

    J tasked:                  Yes
    K tasked:                  Yes
    wK tasked:                  No
    Memory (MB):              3200
    Schwarz Cutoff:          1E-12


   ==> Starting MCSCF iterations <==

        Iter         Total Energy       Delta E   Orb RMS    CI RMS  NCI NORB
(sem_iter): H0block_->H0b_diag[1][1] - H0block_->H0b_diag[2][1] = -0.707107 - 0.707107 = -1.414214 > 1.0E-8
   @MCSCF  1:   -106.719655499276    4.5201e-02  7.73e-02  1.99e-09    1    1  Initial CI
   @MCSCF  2:   -106.743591142829   -2.3936e-02  4.80e-02  3.88e-11    1    1  TS
   @MCSCF  3:   -106.749720768574   -6.1296e-03  2.62e-02  1.05e-10    1    1  TS
   @MCSCF  4:   -106.751831448192   -2.1107e-03  1.47e-02  7.59e-11    1    1  TS
   @MCSCF  5:   -106.752507378908   -6.7593e-04  8.16e-03  8.42e-11    1    1  TS
   @MCSCF  6:   -106.752745372631   -2.3799e-04  4.54e-03  8.04e-11    1    1  TS
   @MCSCF  7:   -106.752830377663   -8.5005e-05  2.53e-03  8.27e-11    1    1  TS, DIIS
   @MCSCF  8:   -106.752862680638   -3.2303e-05  1.41e-03  8.16e-11    1    1  TS, DIIS
   @MCSCF  9:   -106.752859178718    3.5019e-06  2.51e-03  8.30e-11    1    1  TS, DIIS
   @MCSCF 10:   -106.752877029992   -1.7851e-05  1.46e-03  8.20e-11    2    1  TS, DIIS
   @MCSCF 11:   -106.752884415015   -7.3850e-06  4.11e-04  8.25e-11    1    1  TS, DIIS
   @MCSCF 12:   -106.752885012057   -5.9704e-07  1.12e-04  8.24e-11    1    1  TS, DIIS
   @MCSCF 13:   -106.752885060652   -4.8595e-08  7.10e-07  8.24e-11    1    1  TS, DIIS
   @MCSCF 14:   -106.752885060649    2.6574e-12  1.11e-06  8.24e-11    1    1  TS, DIIS
   @MCSCF 15:   -106.752885060654   -4.6185e-12  3.42e-09  8.23e-11    1    1  TS, DIIS

          @MCSCF has converged!

   @MCSCF Final Energy: -106.752885060653568

   Computing CI Semicanonical Orbitals

   ==> Energetics <==

    SCF energy =         -106.764856351738402
    Total MCSCF energy = -106.752885060653568

   ==> MCSCF root 0 information <==

    MCSCF Root 0 energy =  -106.772344531345411

   Active Space Natural occupation numbers:

        A1   1.177995        A1   0.822005

   The 4 most important determinants:

    *   1   -0.699843  (    1,    0)  4A1B 5A1A 
    *   2   -0.699843  (    0,    1)  4A1A 5A1B 
    *   3   -0.142097  (    0,    0)  4A1X 
    *   4    0.015730  (    1,    1)  5A1X 


   ==> MCSCF root 1 information <==

    MCSCF Root 1 energy =  -106.733425589961357

   Active Space Natural occupation numbers:

        A1   1.999870        A1   0.000130

   The 4 most important determinants:

    *   1   -0.989853  (    0,    0)  4A1X 
    *   2    0.100467  (    1,    0)  4A1B 5A1A 
    *   3    0.100467  (    0,    1)  4A1A 5A1B 
    *   4   -0.002053  (    1,    1)  5A1X 



Properties will be evaluated at   0.000000,   0.000000,   0.000000 Bohr

Properties computed using the CASSCF density matrix

  Nuclear Dipole Moment: (a.u.)
     X:     0.0000      Y:     0.0000      Z:     2.3636

  Electronic Dipole Moment: (a.u.)
     X:     0.0000      Y:     0.0000      Z:    -7.3349

  Dipole Moment: (a.u.)
     X:     0.0000      Y:     0.0000      Z:    -4.9713     Total:     4.9713

  Dipole Moment: (Debye)
     X:     0.0000      Y:     0.0000      Z:   -12.6357     Total:    12.6357

   => Loading Basis Set <=

    Name: STO-3G
    Role: ORBITAL
    Keyword: MINAO_BASIS
    atoms 1 entry LI         line    31 file /Users/york/src/psi4new/psi4/share/psi4/basis/sto-3g.gbs 
    atoms 2 entry F          line    91 file /Users/york/src/psi4new/psi4/share/psi4/basis/sto-3g.gbs 


Reading options from the FORTE block
Calling plugin forte.so.



  Forte
  ----------------------------------------------------------------------------
  A suite of quantum chemistry methods for strongly correlated electrons

    git branch: dwsa-dsrg-pt - git commit: 5258b91f

  Developed by:
    Francesco A. Evangelista, Chenyang Li, Kevin P. Hannon,
    Jeffrey B. Schriber, Tianyuan Zhang, Chenxi Cai
  ----------------------------------------------------------------------------

  Size of Determinant class: 32

  ==> MO Space Information <==

  Read options for space FROZEN_DOCC
  Read options for space RESTRICTED_DOCC
  Read options for space ACTIVE
 Removing orbital 0
 Removing orbital 1
  -------------------------------------------------
                       A1    A2    B1    B2   Sum
  -------------------------------------------------
    FROZEN_DOCC         2     0     0     0     2
    RESTRICTED_DOCC     1     0     0     0     1
    ACTIVE              3     0     2     2     7
    RESTRICTED_UOCC    12     3     6     6    27
    FROZEN_UOCC         0     0     0     0     0
    Total              18     3     8     8    37
  -------------------------------------------------

  ==> Integral Transformation <==

  Number of molecular orbitals:               37
  Number of correlated molecular orbitals:    35
  Number of frozen occupied orbitals:          2
  Number of frozen unoccupied orbitals:        0


  Overall Conventional Integrals timings

	Presorting SO-basis two-electron integrals.
	Sorting File: SO Ints (nn|nn) nbuckets = 1
	Transforming the one-electron integrals and constructing Fock matrices
	Starting first half-transformation.
	Sorting half-transformed integrals.
	First half integral transformation complete.
	Starting second half-transformation.
	Two-electron integral transformation complete.

  Integral transformation done. 0.14304900 s
  Reading the two-electron integrals from disk
  Size of two-electron integrals:   0.041891 GB
  Frozen-core energy            -84.713599407175 a.u.

  FrozenOneBody Operator takes  0.40745600 s
  Resorting integrals after freezing core.
  Conventional integrals take 1.17520300 s

              ---------------------------------------------------
                Complete Active Space Configuration Interaction
                                  Chenyang Li
              ---------------------------------------------------


  ==> Input Summary <==

    No. a electrons in active      =     3
    No. b electrons in active      =     3
    multiplicity                   =     1
    spin ms (2 * Sz)               =     0

  ==> Orbital Spaces <==

    TOTAL MO                      [   18     3     8     8 ]
    FROZEN CORE                   [    2     0     0     0 ]
    FROZEN VIRTUAL                [    0     0     0     0 ]
    CORRELATED MO                 [   16     3     8     8 ]
    CORE                          [    1     0     0     0 ]
    ACTIVE                        [    3     0     2     2 ]
    VIRTUAL                       [   12     3     6     6 ]

  ==> State Averaging Summary <==

    Irrep.  Multi.  Nstates      Weights
    ------------------------------------
      A1       1        2    0.500 0.500
    ------------------------------------
    Total number of states: 2
    ------------------------------------

  Forming alpha and beta strings      ...  Done. Timing        0.000110 s
  Forming determinants                ...  Done. Timing        0.000140 s

  ==> Determinants Summary <==

    number of alpha active electrons         =     3
    number of beta active electrons          =     3
    root symmetry (zero based)               =     0
    number of determinants                   =   321

  Diagonalizing Hamiltonian           ...

  ==> Computing Coupling Lists <==
  --------------------------------
        α          0.001429 s
        β          0.001372 s
        αα         0.001862 s
        ββ         0.001155 s
        αβ         0.003858 s
  --------------------------------

  Davidson-Liu solver algorithm
  Using SPARSE sigma builder
  Initial guess space is incomplete!
  Trying to add 25 determinant(s).  25 determinant(s) added.
  Initial guess found 89 solutions with 2S+1 = 1 *
  Initial guess found 103 solutions with 2S+1 = 3  
  Initial guess found 30 solutions with 2S+1 = 5  
  Initial guess found 3 solutions with 2S+1 = 7  
  Adding guess 0 (multiplicity = 1.000000)
  Adding guess 1 (multiplicity = 1.000000)
  Adding guess 2 (multiplicity = 1.000000)
  Adding guess 3 (multiplicity = 1.000000)

  ==> Diagonalizing Hamiltonian <==

  ----------------------------------------
    Iter.      Avg. Energy       Delta_E
  ----------------------------------------
      1      -97.331220979546  -9.733e+01
      2      -97.331220979546  -5.826e-13
  ----------------------------------------
  The Davidson-Liu algorithm converged in 3 iterations.
  Davidson-Liu procedure took  0.404378 s  Done. Timing        0.416901 s

  * * * * * * * * * * * * * * * * *
  *  CI Vectors & Configurations  *
  * * * * * * * * * * * * * * * * *

  ==> Root No. 0 <==

    ba0 20 20          0.6992227066
    ab0 20 20          0.6992227066
    200 20 20          0.1460778803

    Total Energy:   -106.772573835138886


  ==> Root No. 1 <==

    200 20 20          0.9609078851
    b0a 20 20          0.1530225596
    a0b 20 20          0.1530225596
    ba0 20 20         -0.1034192683
    ab0 20 20         -0.1034192683

    Total Energy:   -106.735798150978823



  ==> Permanent Dipole Moments (A1) <==

  Only print nonzero (> 1.0e-5) elements.
  Permanent dipole moments (a.u.) 0 -> 0:  X:  0.0000  Y:  0.0000  Z: -0.2189  Total:  0.2189
  Permanent dipole moments (a.u.) 1 -> 1:  X:  0.0000  Y:  0.0000  Z: -8.9753  Total:  8.9753


  ==> Transition Dipole Moments (A1 -> A1) <==

  Only print nonzero (> 1.0e-5) elements.
  Transition dipole moments (a.u.) 0 -> 1:  X:  0.0000  Y:  0.0000  Z: -1.7577  Total:  1.7577


  ==> Oscillator Strength (A1 -> A1) <==

  Only print nonzero (> 1.0e-5) elements.
  Oscillator strength (a.u.) 0 -> 1:  X:  0.0000  Y:  0.0000  Z:  0.0757  Total:  0.0757

  Total Energy (averaged over 2 states): -106.754185993058854


  ==> Compute State-Averaged Cumulants <==

  Computing  1RDM (0-0) of Singlet A1 ... Done. Timing        0.005011 s
  Computing  2RDM (0-0) of Singlet A1 ... Done. Timing        0.009752 s
  Computing  3RDM (0-0) of Singlet A1 ... Done. Timing        0.032659 s
  Computing  1RDM (1-1) of Singlet A1 ... Done. Timing        0.006580 s
  Computing  2RDM (1-1) of Singlet A1 ... Done. Timing        0.007675 s
  Computing  3RDM (1-1) of Singlet A1 ... Done. Timing        0.030687 s
  Adding wedge product for 2-cumulants ... Done. Timing        0.001947 s
  Adding wedge product for 3-cumulants ... Done. Timing        0.384891 s

  ==> Multireference Driven Similarity Renormalization Group <==

    Reading DSRG options ............................ Done
    Setting ambit MO space .......................... Done
    Preparing tensors for density cumulants ......... Done
    Building Fock matrix ............................ Done
    Checking reference energy ....................... Done

              ----------------------------------------------------
                    MR-DSRG Second-Order Perturbation Theory
                Chenyang Li, Kevin Hannon, Francesco Evangelista
              ----------------------------------------------------

    References:
      u-DSRG-MRPT2:    J. Chem. Theory Comput. 2015, 11, 2097.
      (pr-)DSRG-MRPT2: J. Chem. Phys. 2017, 146, 124132.

  ==> Calculation Information <==

    ntamp                                                 15
    flow parameter                                 5.000e-01
    taylor expansion threshold                     1.000e-03
    intruder_tamp                                  1.000e-01
    int_type                                    CONVENTIONAL
    source operator                                 STANDARD
    reference relaxation                                NONE
    state_type                                   MULTI-STATE
    multi-state type                                     XMS
    form Hbar3                                         FALSE

  ==> Build Effective Hamiltonian (Singlet A1) <==



  ==> Perform XMS Rotation to Reference States <==

  ## Fock (Symmetry 0) ##
  Irrep: 1 Size: 2 x 2

                 1                   2

    1    -2.46501187079638    -0.03396033375681
    2    -0.03396033375681    -2.68634334119536



  ## Fock Evec with eigenvalues ##
 Irrep: 1

           1           2

    1   0.1483259  -0.9889385
    2   0.9889385   0.1483259

       -2.6914369  -2.4599183



  ==> Compute DSRG-MRPT2 Energy of State 0 <==


  ==> Checking Semicanonical Orbitals <==

    Abs. max of Fock core, active, virtual blocks (Fij, i != j)
                  core          active         virtual
    --------------------------------------------------
    Fα    0.0000000000    0.0211894279    0.0527795001
    Fβ    0.0000000000    0.0211894279    0.0527795001
    --------------------------------------------------

    1-Norm of Fock core, active, virtual blocks (Fij, i != j)
                  core          active         virtual
    --------------------------------------------------
    Fα    0.0000000000    0.1203867324    1.4599282709
    Fβ    0.0000000000    0.1203867324    1.4599282709
    --------------------------------------------------

    Warning! Orbitals are not semi-canonicalized!
    Orbital invariant formalism will be employed for DSRG-MRPT2.

  ==> Computing DSRG-MRPT2 ... <==

    Computing T2 amplitudes                  ...  Done. Timing        0.623991 s
    Computing T1 amplitudes                  ...  Done. Timing        0.034087 s
    Renormalizing two-electron integrals     ...  Done. Timing        0.665631 s
    Renormalizing Fock matrix elements       ...  Done. Timing        0.032823 s
    Computing <[F, T1]>                      ...  Done. Timing        0.001994 s
    Computing <[F, T2]>                      ...  Done. Timing        0.008280 s
    Computing <[V, T1]>                      ...  Done. Timing        0.007766 s
    Computing <[V, T2]> (C_2)^4              ...  Done. Timing        0.041143 s
    Computing <[V, T2]> C_4 (C_2)^2 HH       ...  Done. Timing        0.008539 s
    Computing <[V, T2]> C_4 (C_2)^2 PP       ...  Done. Timing        0.011298 s
    Computing <[V, T2]> C_4 (C_2)^2 PH       ...  Done. Timing        0.043033 s
    Computing <[V, T2]> C_6 C_2              ...  Done. Timing        0.157395 s

  ==> Excitation Amplitudes Summary <==

    Active Indices:    1    2    3   19   20   27   28 
    Largest T1 amplitudes for spin case A:
       i       a                  i       a                  i       a               
    --------------------------------------------------------------------------------
    [ 19      25    ] 0.030843 [ 27      33    ] 0.030843 [  1      12    ] 0.023826 
    [  0      13    ]-0.015680 [ 19      23    ]-0.013129 [ 27      31    ]-0.013129 
    [  0       8    ] 0.012205 [  0       9    ]-0.010827 [  1       9    ] 0.009004 
    [  1       8    ] 0.006926 [  1       6    ]-0.005784 [ 19      22    ] 0.003860 
    [ 27      30    ] 0.003860 [  0       6    ] 0.002825 [  0       5    ]-0.002497 
    --------------------------------------------------------------------------------
    Norm of T1A vector: (nonzero elements: 75)                    0.059684731108784.
    --------------------------------------------------------------------------------
    Largest T1 amplitudes for spin case B:
       _       _                  _       _                  _       _               
       i       a                  i       a                  i       a               
    --------------------------------------------------------------------------------
    [ 19      25    ] 0.030843 [ 27      33    ] 0.030843 [  1      12    ] 0.023826 
    [  0      13    ]-0.015680 [ 19      23    ]-0.013129 [ 27      31    ]-0.013129 
    [  0       8    ] 0.012205 [  0       9    ]-0.010827 [  1       9    ] 0.009004 
    [  1       8    ] 0.006926 [  1       6    ]-0.005784 [ 19      22    ] 0.003860 
    [ 27      30    ] 0.003860 [  0       6    ] 0.002825 [  0       5    ]-0.002497 
    --------------------------------------------------------------------------------
    Norm of T1B vector: (nonzero elements: 75)                    0.059684731108784.
    --------------------------------------------------------------------------------
    Largest T2 amplitudes for spin case AA:
       i   j   a   b              i   j   a   b              i   j   a   b           
    --------------------------------------------------------------------------------
    [ 19  27  25  27] 0.073061 [ 19  27  19  33] 0.073061 [  1  27  12  27] 0.072203 
    [  1  19  12  19] 0.072203 [  1  27   1  33] 0.070497 [  1  19   1  25] 0.070497 
    [  0  27  13  27]-0.035173 [  0  19  13  19]-0.035173 [  0   1   1  13] 0.033934 
    [ 19  27  19  31]-0.030359 [ 19  27  23  27]-0.030359 [  1  27   1  31]-0.029519 
    [  1  19   1  23]-0.029519 [  0  27   8  27] 0.027055 [  0  19   8  19] 0.027055 
    --------------------------------------------------------------------------------
    Norm of T2AA vector: (nonzero elements: 18643)                0.469566253058275.
    --------------------------------------------------------------------------------
    Largest T2 amplitudes for spin case AB:
           _       _                  _       _                  _       _           
       i   j   a   b              i   j   a   b              i   j   a   b           
    --------------------------------------------------------------------------------
    [ 27  27  27  33] 0.086764 [ 19  19  19  25] 0.086764 [  1   1   1  12] 0.082146 
    [ 19  27  25  27] 0.077629 [ 19  27  19  33] 0.077629 [  1  27  12  27] 0.076836 
    [  1  19  12  19] 0.076836 [  0   0  27  27]-0.076415 [  0   0  19  19]-0.076415 
    [  1  19   1  25] 0.074595 [  1  27   1  33] 0.074595 [  0   0   1   1]-0.074052 
    [  0  27  13  27]-0.041728 [  0  19  13  19]-0.041728 [ 27  27  27  31]-0.037662 
    --------------------------------------------------------------------------------
    Norm of T2AB vector: (nonzero elements: 19007)                0.487196159921592.
    --------------------------------------------------------------------------------
    Largest T2 amplitudes for spin case BB:
       _   _   _   _              _   _   _   _              _   _   _   _           
       i   j   a   b              i   j   a   b              i   j   a   b           
    --------------------------------------------------------------------------------
    [ 19  27  25  27] 0.073061 [ 19  27  19  33] 0.073061 [  1  27  12  27] 0.072203 
    [  1  19  12  19] 0.072203 [  1  19   1  25] 0.070497 [  1  27   1  33] 0.070497 
    [  0  27  13  27]-0.035173 [  0  19  13  19]-0.035173 [  0   1   1  13] 0.033934 
    [ 19  27  19  31]-0.030359 [ 19  27  23  27]-0.030359 [  1  27   1  31]-0.029519 
    [  1  19   1  23]-0.029519 [  0  27   8  27] 0.027055 [  0  19   8  19] 0.027055 
    --------------------------------------------------------------------------------
    Norm of T2BB vector: (nonzero elements: 18643)                0.469566253058275.
    --------------------------------------------------------------------------------

  ==> Possible Intruders <==

    T1 amplitudes larger than 0.1000 for spin case A: NULL
    T1 amplitudes larger than 0.1000 for spin case B: NULL
    T2 amplitudes larger than 0.1000 for spin case AA: NULL
    T2 amplitudes larger than 0.1000 for spin case AB: NULL
    T2 amplitudes larger than 0.1000 for spin case BB: NULL

  ==> DSRG-MRPT2 Energy Summary <==

    E0 (reference)                 =   -106.736607236601174
    <[F, T1]>                      =     -0.022838282169017
    <[F, T2]>                      =      0.000044422542082
    <[V, T1]>                      =      0.000042964499737
    <[V, T2]> (C_2)^4              =     -0.226635051457220
    <[V, T2]> C_4 (C_2)^2 HH       =      0.000014315156740
    <[V, T2]> C_4 (C_2)^2 PP       =      0.000040192783441
    <[V, T2]> C_4 (C_2)^2 PH       =      0.000194049612680
    <[V, T2]> C_6 C_2              =      0.000004614479913
    <[V, T2]>                      =     -0.226381879424445
    DSRG-MRPT2 correlation energy  =     -0.249132774551643
    DSRG-MRPT2 total energy        =   -106.985740011152814
    max(T1)                        =      0.030842782004891
    max(T2)                        =      0.086763994552828
    ||T1||                         =      0.084406956200634
    ||T2||                         =      1.179162976433605

  Energy took      1.726 s


  ==> Compute Couplings with State 0 <==

    Computing coupling of <1|H|0>            ...  Done. Timing        0.002193 s
    Computing coupling of <1|HT|0>           ...  Done. Timing        0.638326 s

  ==> Compute DSRG-MRPT2 Energy of State 1 <==


  ==> Checking Semicanonical Orbitals <==

    Abs. max of Fock core, active, virtual blocks (Fij, i != j)
                  core          active         virtual
    --------------------------------------------------
    Fα    0.0000000000    0.0044293511    0.0595218182
    Fβ    0.0000000000    0.0044293511    0.0595218182
    --------------------------------------------------

    1-Norm of Fock core, active, virtual blocks (Fij, i != j)
                  core          active         virtual
    --------------------------------------------------
    Fα    0.0000000000    0.0318212433    1.6984333622
    Fβ    0.0000000000    0.0318212433    1.6984333622
    --------------------------------------------------

    Warning! Orbitals are not semi-canonicalized!
    Orbital invariant formalism will be employed for DSRG-MRPT2.

  ==> Computing DSRG-MRPT2 ... <==

    Computing T2 amplitudes                  ...  Done. Timing        0.783089 s
    Computing T1 amplitudes                  ...  Done. Timing        0.037615 s
    Renormalizing two-electron integrals     ...  Done. Timing        0.690286 s
    Renormalizing Fock matrix elements       ...  Done. Timing        0.033194 s
    Computing <[F, T1]>                      ...  Done. Timing        0.001916 s
    Computing <[F, T2]>                      ...  Done. Timing        0.006032 s
    Computing <[V, T1]>                      ...  Done. Timing        0.007720 s
    Computing <[V, T2]> (C_2)^4              ...  Done. Timing        0.042344 s
    Computing <[V, T2]> C_4 (C_2)^2 HH       ...  Done. Timing        0.006594 s
    Computing <[V, T2]> C_4 (C_2)^2 PP       ...  Done. Timing        0.013406 s
    Computing <[V, T2]> C_4 (C_2)^2 PH       ...  Done. Timing        0.041693 s
    Computing <[V, T2]> C_6 C_2              ...  Done. Timing        0.134613 s

  ==> Excitation Amplitudes Summary <==

    Active Indices:    1    2    3   19   20   27   28 
    Largest T1 amplitudes for spin case A:
       i       a                  i       a                  i       a               
    --------------------------------------------------------------------------------
    [ 19      25    ]-0.035036 [ 27      33    ]-0.035036 [ 19      23    ] 0.021291 
    [ 27      31    ] 0.021291 [  0      13    ] 0.018461 [  0       8    ]-0.014501 
    [  1      12    ]-0.014163 [  0       9    ] 0.012473 [ 19      22    ]-0.006319 
    [ 27      30    ]-0.006319 [  1       9    ]-0.005791 [  1       8    ]-0.003901 
    [  1       6    ] 0.003722 [  0       6    ]-0.003077 [  0       5    ] 0.002941 
    --------------------------------------------------------------------------------
    Norm of T1A vector: (nonzero elements: 75)                    0.066842826224140.
    --------------------------------------------------------------------------------
    Largest T1 amplitudes for spin case B:
       _       _                  _       _                  _       _               
       i       a                  i       a                  i       a               
    --------------------------------------------------------------------------------
    [ 19      25    ]-0.035036 [ 27      33    ]-0.035036 [ 19      23    ] 0.021291 
    [ 27      31    ] 0.021291 [  0      13    ] 0.018461 [  0       8    ]-0.014501 
    [  1      12    ]-0.014163 [  0       9    ] 0.012473 [ 19      22    ]-0.006319 
    [ 27      30    ]-0.006319 [  1       9    ]-0.005791 [  1       8    ]-0.003901 
    [  1       6    ] 0.003722 [  0       6    ]-0.003077 [  0       5    ] 0.002941 
    --------------------------------------------------------------------------------
    Norm of T1B vector: (nonzero elements: 75)                    0.066842826224140.
    --------------------------------------------------------------------------------
    Largest T2 amplitudes for spin case AA:
       i   j   a   b              i   j   a   b              i   j   a   b           
    --------------------------------------------------------------------------------
    [  1  27  12  27] 0.074684 [  1  19  12  19] 0.074684 [ 19  27  25  27] 0.070813 
    [ 19  27  19  33] 0.070813 [  1  27   1  33] 0.068330 [  1  19   1  25] 0.068330 
[...]
  Initial guess space is incomplete!
  Trying to add 25 determinant(s).  25 determinant(s) added.
  Initial guess found 89 solutions with 2S+1 = 1 *
  Initial guess found 103 solutions with 2S+1 = 3  
  Initial guess found 30 solutions with 2S+1 = 5  
  Initial guess found 3 solutions with 2S+1 = 7  
  Adding guess 0 (multiplicity = 1.000000)
  Adding guess 1 (multiplicity = 1.000000)
  Adding guess 2 (multiplicity = 1.000000)
  Adding guess 3 (multiplicity = 1.000000)

  ==> Diagonalizing Hamiltonian <==

  ----------------------------------------
    Iter.      Avg. Energy       Delta_E
  ----------------------------------------
      1      -97.331220979504  -9.733e+01
      2      -97.331220979505  -5.684e-13
  ----------------------------------------
  The Davidson-Liu algorithm converged in 3 iterations.
  Davidson-Liu procedure took  0.394095 s  Done. Timing        0.405552 s

  * * * * * * * * * * * * * * * * *
  *  CI Vectors & Configurations  *
  * * * * * * * * * * * * * * * * *

  ==> Root No. 0 <==

    ba0 20 20          0.6992227066
    ab0 20 20          0.6992227066
    200 20 20          0.1460778802

    Total Energy:   -106.772573835152585


  ==> Root No. 1 <==

    200 20 20         -0.9609078851
    b0a 20 20         -0.1530225597
    a0b 20 20         -0.1530225597
    ba0 20 20          0.1034192683
    ab0 20 20          0.1034192683

    Total Energy:   -106.735798150966943



  ==> Permanent Dipole Moments (A1) <==

  Only print nonzero (> 1.0e-5) elements.
  Permanent dipole moments (a.u.) 0 -> 0:  X:  0.0000  Y:  0.0000  Z: -0.2189  Total:  0.2189
  Permanent dipole moments (a.u.) 1 -> 1:  X:  0.0000  Y:  0.0000  Z: -8.9753  Total:  8.9753


  ==> Transition Dipole Moments (A1 -> A1) <==

  Only print nonzero (> 1.0e-5) elements.
  Transition dipole moments (a.u.) 0 -> 1:  X:  0.0000  Y:  0.0000  Z:  1.7577  Total:  1.7577


  ==> Oscillator Strength (A1 -> A1) <==

  Only print nonzero (> 1.0e-5) elements.
  Oscillator strength (a.u.) 0 -> 1:  X:  0.0000  Y:  0.0000  Z:  0.0757  Total:  0.0757

  Total Energy (averaged over 2 states): -106.754185993059764


  ==> Compute State-Averaged Cumulants <==

  Computing  1RDM (0-0) of Singlet A1 ... Done. Timing        0.005655 s
  Computing  2RDM (0-0) of Singlet A1 ... Done. Timing        0.008215 s
  Computing  3RDM (0-0) of Singlet A1 ... Done. Timing        0.028441 s
  Computing  1RDM (1-1) of Singlet A1 ... Done. Timing        0.004050 s
  Computing  2RDM (1-1) of Singlet A1 ... Done. Timing        0.007388 s
  Computing  3RDM (1-1) of Singlet A1 ... Done. Timing        0.031443 s
  Adding wedge product for 2-cumulants ... Done. Timing        0.003368 s
  Adding wedge product for 3-cumulants ... Done. Timing        0.286804 s

       -----------------------------------------------------------------
                            Semi-Canonical Orbitals
         Chenyang Li, Jeffrey B. Schriber and Francesco A. Evangelista
       -----------------------------------------------------------------

  Took 0.007067 s to build Fock matrix

  ==> Checking Fock Matrix Diagonal Blocks <==

    Off-Diag. Elements       Max           2-Norm
    ------------------------------------------------
    Fa actv              0.0121026513   0.0209836207
    Fb actv              0.0121026513   0.0209836207
    ------------------------------------------------
    Fa core              0.0000000000   0.0000000000
    Fb core              0.0000000000   0.0000000000
    ------------------------------------------------
    Fa virt              0.0035447896   0.0172040969
    Fb virt              0.0035447896   0.0172040969
    ------------------------------------------------

  ==> Integral Transformation to Semicanonical Basis <==

 Integrals are about to be computed.	Presorting SO-basis two-electron integrals.
	Sorting File: SO Ints (nn|nn) nbuckets = 1
	Transforming the one-electron integrals and constructing Fock matrices
	Starting first half-transformation.
	Sorting half-transformed integrals.
	First half integral transformation complete.
	Starting second half-transformation.
	Two-electron integral transformation complete.

  Integral transformation done. 0.09244600 s
  Reading the two-electron integrals from disk
  Size of two-electron integrals:   0.041891 GB
 Integrals are about to be updated.
  Frozen-core energy            -84.713599407175 a.u.

  FrozenOneBody Operator takes  0.50085100 s
  Resorting integrals after freezing core.
  Frozen Orbitals takes     0.589 s.

  ==> Reference Transformation to Semicanonical Basis <==

    Transformed 1 cumulants.
    Transformed 2 cumulants and RDMs.
    Transformed 3 cumulants.
  SemiCanonicalize takes 3.707554 s.

  ==> Multireference Driven Similarity Renormalization Group <==

    Reading DSRG options ............................ Done
    Setting ambit MO space .......................... Done
    Preparing tensors for density cumulants ......... Done
    Building Fock matrix ............................ Done
    Checking reference energy ....................... Done

              ----------------------------------------------------
                    MR-DSRG Second-Order Perturbation Theory
                Chenyang Li, Kevin Hannon, Francesco Evangelista
              ----------------------------------------------------

    References:
      u-DSRG-MRPT2:    J. Chem. Theory Comput. 2015, 11, 2097.
      (pr-)DSRG-MRPT2: J. Chem. Phys. 2017, 146, 124132.

  ==> Calculation Information <==

    ntamp                                                 15
    flow parameter                                 5.000e-01
    taylor expansion threshold                     1.000e-03
    intruder_tamp                                  1.000e-01
    int_type                                    CONVENTIONAL
    source operator                                 STANDARD
    reference relaxation                                NONE
    state_type                                   MULTI-STATE
    multi-state type                                 SA_FULL
    form Hbar3                                         FALSE

  ==> Checking Semicanonical Orbitals <==

    Abs. max of Fock core, active, virtual blocks (Fij, i != j)
                  core          active         virtual
    --------------------------------------------------
    Fα    0.0000000000    0.0000000000    0.0000000000
    Fβ    0.0000000000    0.0000000000    0.0000000000
    --------------------------------------------------

    1-Norm of Fock core, active, virtual blocks (Fij, i != j)
                  core          active         virtual
    --------------------------------------------------
    Fα    0.0000000000    0.0000000000    0.0000000000
    Fβ    0.0000000000    0.0000000000    0.0000000000
    --------------------------------------------------

    Orbitals are semi-canonicalized.

  ==> Computing DSRG-MRPT2 ... <==

    Computing T2 amplitudes                  ...  Done. Timing        0.059226 s
    Computing T1 amplitudes                  ...  Done. Timing        0.008528 s
    Renormalizing two-electron integrals     ...  Done. Timing        0.048465 s
    Renormalizing Fock matrix elements       ...  Done. Timing        0.009169 s
    Computing <[F, T1]>                      ...  Done. Timing        0.002881 s
    Computing <[F, T2]>                      ...  Done. Timing        0.007750 s
    Computing <[V, T1]>                      ...  Done. Timing        0.007331 s
    Computing <[V, T2]> (C_2)^4              ...  Done. Timing        0.049323 s
    Computing <[V, T2]> C_4 (C_2)^2 HH       ...  Done. Timing        0.008885 s
    Computing <[V, T2]> C_4 (C_2)^2 PP       ...  Done. Timing        0.013533 s
    Computing <[V, T2]> C_4 (C_2)^2 PH       ...  Done. Timing        0.043180 s
    Computing <[V, T2]> C_6 C_2              ...  Done. Timing        0.154058 s

  ==> Excitation Amplitudes Summary <==

    Active Indices:    1    2    3   19   20   27   28 
    Largest T1 amplitudes for spin case A:
       i       a                  i       a                  i       a               
    --------------------------------------------------------------------------------
    [  1      12    ] 0.005138 [ 27      33    ]-0.002617 [ 19      25    ]-0.002617 
    [  1       9    ]-0.001954 [  1       6    ] 0.001702 [  1       8    ] 0.001619 
    [  0      13    ]-0.001403 [ 27      31    ] 0.001260 [ 19      23    ] 0.001260 
    [  0       8    ] 0.001168 [  2       5    ]-0.001065 [  0       1    ] 0.000981 
    [  2      12    ]-0.000954 [  0       9    ] 0.000815 [  2       4    ]-0.000733 
    --------------------------------------------------------------------------------
    Norm of T1A vector: (nonzero elements: 66)                    0.007876012137763.
    --------------------------------------------------------------------------------
    Largest T1 amplitudes for spin case B:
       _       _                  _       _                  _       _               
       i       a                  i       a                  i       a               
    --------------------------------------------------------------------------------
    [  1      12    ] 0.005138 [ 27      33    ]-0.002617 [ 19      25    ]-0.002617 
    [  1       9    ]-0.001954 [  1       6    ] 0.001702 [  1       8    ] 0.001619 
    [  0      13    ]-0.001403 [ 27      31    ] 0.001260 [ 19      23    ] 0.001260 
    [  0       8    ] 0.001168 [  2       5    ]-0.001065 [  0       1    ] 0.000981 
    [  2      12    ]-0.000954 [  0       9    ] 0.000815 [  2       4    ]-0.000733 
    --------------------------------------------------------------------------------
    Norm of T1B vector: (nonzero elements: 66)                    0.007876012137763.
    --------------------------------------------------------------------------------
    Largest T2 amplitudes for spin case AA:
       i   j   a   b              i   j   a   b              i   j   a   b           
    --------------------------------------------------------------------------------
    [  1  27  12  27] 0.073404 [  1  19  12  19] 0.073404 [ 19  27  25  27] 0.071671 
    [ 19  27  19  33] 0.071671 [  1  19   1  25] 0.069017 [  1  27   1  33] 0.069017 
    [ 19  27  19  31]-0.036101 [ 19  27  23  27]-0.036101 [  1  27   1  31]-0.035062 
    [  1  19   1  23]-0.035062 [  0  27  13  27] 0.035028 [  0  19  13  19] 0.035028 
    [  0   1   1  13]-0.033742 [  0  27   8  27]-0.028115 [  0  19   8  19]-0.028115 
    --------------------------------------------------------------------------------
    Norm of T2AA vector: (nonzero elements: 14656)                0.477648276434151.
    --------------------------------------------------------------------------------
    Largest T2 amplitudes for spin case AB:
           _       _                  _       _                  _       _           
       i   j   a   b              i   j   a   b              i   j   a   b           
    --------------------------------------------------------------------------------
    [ 19  19  19  25] 0.085087 [ 27  27  27  33] 0.085087 [  1   1   1  12] 0.083303 
    [  1  27  12  27] 0.078103 [  1  19  12  19] 0.078103 [  0   0  27  27]-0.076411 
    [  0   0  19  19]-0.076411 [ 19  27  25  27] 0.076143 [ 19  27  19  33] 0.076143 
    [  1  19   1  25] 0.073018 [  1  27   1  33] 0.073018 [  0   0   1   1]-0.069979 
    [ 27  27  27  31]-0.044814 [ 19  19  19  23]-0.044814 [  0  27  13  27] 0.041567 
    --------------------------------------------------------------------------------
    Norm of T2AB vector: (nonzero elements: 17913)                0.494238539847947.
    --------------------------------------------------------------------------------
    Largest T2 amplitudes for spin case BB:
       _   _   _   _              _   _   _   _              _   _   _   _           
       i   j   a   b              i   j   a   b              i   j   a   b           
    --------------------------------------------------------------------------------
    [  1  27  12  27] 0.073404 [  1  19  12  19] 0.073404 [ 19  27  25  27] 0.071671 
    [ 19  27  19  33] 0.071671 [  1  19   1  25] 0.069017 [  1  27   1  33] 0.069017 
    [ 19  27  19  31]-0.036101 [ 19  27  23  27]-0.036101 [  1  27   1  31]-0.035062 
    [  1  19   1  23]-0.035062 [  0  27  13  27] 0.035028 [  0  19  13  19] 0.035028 
    [  0   1   1  13]-0.033742 [  0  27   8  27]-0.028115 [  0  19   8  19]-0.028115 
    --------------------------------------------------------------------------------
    Norm of T2BB vector: (nonzero elements: 14656)                0.477648276434152.
    --------------------------------------------------------------------------------

  ==> Possible Intruders <==

    T1 amplitudes larger than 0.1000 for spin case A: NULL
    T1 amplitudes larger than 0.1000 for spin case B: NULL
    T2 amplitudes larger than 0.1000 for spin case AA: NULL
    T2 amplitudes larger than 0.1000 for spin case AB: NULL
    T2 amplitudes larger than 0.1000 for spin case BB: NULL

  ==> DSRG-MRPT2 Energy Summary <==

    E0 (reference)                 =   -106.754185993059764
    <[F, T1]>                      =     -0.000345301242436
    <[F, T2]>                      =      0.000293904290498
    <[V, T1]>                      =      0.000300891968480
    <[V, T2]> (C_2)^4              =     -0.246574894619711
    <[V, T2]> C_4 (C_2)^2 HH       =      0.000911300098089
    <[V, T2]> C_4 (C_2)^2 PP       =      0.002971826787223
    <[V, T2]> C_4 (C_2)^2 PH       =      0.010722939998933
    <[V, T2]> C_6 C_2              =      0.000099207735671
    <[V, T2]>                      =     -0.231869619999796
    DSRG-MRPT2 correlation energy  =     -0.231620124983254
    DSRG-MRPT2 total energy        =   -106.985806118043016
    max(T1)                        =      0.005138439991066
    max(T2)                        =      0.085086550650681
    ||T1||                         =      0.011138363182640
    ||T2||                         =      1.197239612210168

  Energy took      0.597 s


  ==> De-Normal-Order DSRG Transformed Hamiltonian <==

    Computing the scalar term                ... Done. Timing    0.004 s
    Computing the 1-body term                ... Done. Timing    0.002 s

  ==> Rotate DSRG Transformed Hamiltonian back to Original Basis <==

    Rotating 1-body term to original basis   ... Done. Timing    0.001 s
    Rotating 2-body term to original basis   ... Done. Timing    0.027 s

              ---------------------------------------------------
                Complete Active Space Configuration Interaction
                                  Chenyang Li
              ---------------------------------------------------


  ==> Input Summary <==

    No. a electrons in active      =     3
    No. b electrons in active      =     3
    multiplicity                   =     1
    spin ms (2 * Sz)               =     0

  ==> Orbital Spaces <==

    TOTAL MO                      [   18     3     8     8 ]
    FROZEN CORE                   [    2     0     0     0 ]
    FROZEN VIRTUAL                [    0     0     0     0 ]
    CORRELATED MO                 [   16     3     8     8 ]
    CORE                          [    1     0     0     0 ]
    ACTIVE                        [    3     0     2     2 ]
    VIRTUAL                       [   12     3     6     6 ]

  ==> State Averaging Summary <==

    Irrep.  Multi.  Nstates      Weights
    ------------------------------------
      A1       1        2    0.500 0.500
    ------------------------------------
    Total number of states: 2
    ------------------------------------

  Forming alpha and beta strings      ...  Done. Timing        0.000149 s
  Forming determinants                ...  Done. Timing        0.000198 s

  ==> Determinants Summary <==

    number of alpha active electrons         =     3
    number of beta active electrons          =     3
    root symmetry (zero based)               =     0
    number of determinants                   =   321

  Diagonalizing Hamiltonian           ...

  ==> Computing Coupling Lists <==
  --------------------------------
        α          0.001763 s
        β          0.001919 s
        αα         0.001827 s
        ββ         0.001520 s
        αβ         0.004582 s
  --------------------------------

  Davidson-Liu solver algorithm
  Using SPARSE sigma builder
  Initial guess space is incomplete!
  Trying to add 13 determinant(s).  13 determinant(s) added.
  Initial guess found 85 solutions with 2S+1 = 1 *
  Initial guess found 97 solutions with 2S+1 = 3  
  Initial guess found 28 solutions with 2S+1 = 5  
  Initial guess found 3 solutions with 2S+1 = 7  
  Adding guess 0 (multiplicity = 1.000000)
  Adding guess 1 (multiplicity = 1.000000)
  Adding guess 2 (multiplicity = 1.000000)
  Adding guess 3 (multiplicity = 1.000000)

  ==> Diagonalizing Hamiltonian <==

  ----------------------------------------
    Iter.      Avg. Energy       Delta_E
  ----------------------------------------
      1      -94.730154660960  -9.473e+01
      2      -94.730154660962  -2.274e-12
  ----------------------------------------
  The Davidson-Liu algorithm converged in 3 iterations.
  Davidson-Liu procedure took  0.410498 s  Done. Timing        0.425784 s

  * * * * * * * * * * * * * * * * *
  *  CI Vectors & Configurations  *
  * * * * * * * * * * * * * * * * *

  ==> Root No. 0 <==

    200 20 20         -0.8017651508
    ba0 20 20         -0.4169828188
    ab0 20 20         -0.4169828188

    Total Energy:   -106.990992385735339


  ==> Root No. 1 <==

    200 20 20          0.5846195366
    ba0 20 20         -0.5708690723
    ab0 20 20         -0.5708690723

    Total Energy:   -106.981903286977300



  ==> Permanent Dipole Moments (A1) <==

  Only print nonzero (> 1.0e-5) elements.
  Permanent dipole moments (a.u.) 0 -> 0:  X:  0.0000  Y:  0.0000  Z: -6.4817  Total:  6.4817
  Permanent dipole moments (a.u.) 1 -> 1:  X:  0.0000  Y:  0.0000  Z: -2.7270  Total:  2.7270


  ==> Transition Dipole Moments (A1 -> A1) <==

  Only print nonzero (> 1.0e-5) elements.
  Transition dipole moments (a.u.) 0 -> 1:  X:  0.0000  Y:  0.0000  Z:  4.9225  Total:  4.9225


  ==> Oscillator Strength (A1 -> A1) <==

  Only print nonzero (> 1.0e-5) elements.
  Oscillator strength (a.u.) 0 -> 1:  X:  0.0000  Y:  0.0000  Z:  0.1468  Total:  0.1468

  Total Energy (averaged over 2 states): -106.986447836356319


  ==> Multi-State DSRG-MRPT2 Energy Summary <==

    Multi.  Irrep.  No.    DSRG-MRPT2 Energy
    -----------------------------------------
       1      A1     0      -106.990992385735
       1      A1     1      -106.981903286977
    -----------------------------------------

  ==> Total Timings (s) for Computing Commutators <==

             [H1, T1]    [H1, T2]    [H2, T1]    [H2, T2]
    -----------------------------------------------------
    -> C0       0.003       0.008       0.007       0.292
    -> C1       0.002       0.014       0.008       0.249
    -> C2                   0.012       0.010       0.092
    -----------------------------------------------------

  ==> Ground State Comparison <==

              Ref. Values        Real Values       Delta   
  ---------------------------------------------------------
  SA-SUB   -106.990277098987  -106.990277098962   2.538e-11
  SA-FULL  -106.990992385754  -106.990992385735   1.866e-11
  MS       -106.989495562679  -106.989495562694  -1.471e-11
  XMS      -106.989466062352  -106.989466062346   6.409e-12
  ---------------------------------------------------------

	SA-DSRG-MRPT2 SUB energy root 0...................................PASSED
	SA-DSRG-MRPT2 FULL energy root 0..................................PASSED
	MS-DSRG-MRPT2 energy root 0.......................................PASSED
	XMS-DSRG-MRPT2 energy root 0......................................PASSED

*** Psi4 exiting successfully. Buy a developer a beer!
