
    -----------------------------------------------------------------------
          Psi4: An Open-Source Ab Initio Electronic Structure Package
                               Psi4 1.2a1.dev263 

                         Git: Rev {master} ae466b2 


    R. M. Parrish, L. A. Burns, D. G. A. Smith, A. C. Simmonett,
    A. E. DePrince III, E. G. Hohenstein, U. Bozkaya, A. Yu. Sokolov,
    R. Di Remigio, R. M. Richard, J. F. Gonthier, A. M. James,
    H. R. McAlexander, A. Kumar, M. Saitow, X. Wang, B. P. Pritchard,
    P. Verma, H. F. Schaefer III, K. Patkowski, R. A. King, E. F. Valeev,
    F. A. Evangelista, J. M. Turney, T. D. Crawford, and C. D. Sherrill,
    J. Chem. Theory Comput. in press (2017).
    (doi: 10.1021/acs.jctc.7b00174)

    -----------------------------------------------------------------------


    Psi4 started on: Monday, 05 June 2017 01:19PM

    Process ID:  22713
    PSIDATADIR: /Users/york/src/psi4new/psi4/share/psi4
    Memory:     500.0 MiB
    Threads:    1
    
  ==> Input File <==

--------------------------------------------------------------------------
#! Generated using commit GITCOMMIT

import forte

refmcscf   = -106.752885060582
refpt2sub  = -106.990277098987
refpt2full = -106.990992385754
refpt2ms   = -106.986872321455
refpt2xms  = -106.989915738225
refvalues  = [refpt2sub, refpt2full, refpt2ms, refpt2xms]

molecule {
  0 1
  Li
  F  1 R
  R = 10.000

  units bohr
}

basis {
  assign Li cc-pvdz
  assign F  aug-cc-pvdz
}

set globals{
  reference           rhf
  scf_type            out_of_core
  maxiter             300
  e_convergence       10
  d_convergence       10
  docc                [4,0,1,1]
  restricted_docc     [3,0,1,1]
  active              [2,0,0,0]
  mcscf_r_convergence 8
  mcscf_e_convergence 10
  mcscf_maxiter       250
  mcscf_diis_start    6
  num_roots           2
  follow_root         2
  avg_states          [0,1]
}

set forte{
  job_type           dsrg-mrpt2
  frozen_docc        [2,0,0,0]
  restricted_docc    [1,0,0,0]
  active             [3,0,2,2]
  dsrg_s             0.5
  maxiter            500
  dl_maxiter         1000
  e_convergence      10
  cas_type           cas
  avg_state          [[0,1,2]]
  semi_canonical     false
}

Emcscf, wfn = energy('casscf', return_wfn=True)
compare_values(refmcscf,Emcscf,8,"SA-CASSCF energy")

# MS
set forte{
  dsrg_multi_state   ms
}
Ems = energy('forte', ref_wfn=wfn)

# XMS
set forte{
  dsrg_multi_state   xms
}
Exms = energy('forte', ref_wfn=wfn)

# SA SUB
set forte{
  dsrg_multi_state   sa_sub
  semi_canonical     true
}
Esub = energy('forte', ref_wfn=wfn)

# SA FULL
set forte{
  dsrg_multi_state   sa_full
}
Efull = energy('forte', ref_wfn=wfn)

names = ["SA-SUB", "SA-FULL", "MS", "XMS"]
values = [Esub, Efull, Ems, Exms]

psi4.print_out("\n  ==> Ground State Comparison <==\n")
psi4.print_out("\n           {0:^17}  {1:^17}  {2:^10}".format("Ref. Values", "Real Values", "Delta"))
psi4.print_out("\n  " + "-" * 57)
for i in range(4):
    psi4.print_out("\n  {0:7s}  {1:17.12f}  {2:17.12f}  {3:10.3e}".format(names[i],refvalues[i],values[i],values[i]-refvalues[i]))
psi4.print_out("\n  " + "-" * 57 + "\n\n")

compare_values(refpt2sub,Esub,8,"SA-DSRG-MRPT2 SUB energy root 0")
compare_values(refpt2full,Efull,8,"SA-DSRG-MRPT2 FULL energy root 0")
compare_values(refpt2ms,Ems,8,"MS-DSRG-MRPT2 energy root 0")
compare_values(refpt2xms,Exms,8,"XMS-DSRG-MRPT2 energy root 0")
--------------------------------------------------------------------------

*** tstart() called on Yorks-Mac.local
*** at Mon Jun  5 13:19:17 2017

   => Loading Basis Set <=

    Name: ANONYMOUSE253CD7B
    Role: ORBITAL
    Keyword: BASIS
    atoms 1 entry LI         line    41 file /Users/york/src/psi4new/psi4/share/psi4/basis/cc-pvdz.gbs 
    atoms 2 entry F          line   280 file /Users/york/src/psi4new/psi4/share/psi4/basis/aug-cc-pvdz.gbs 


         ---------------------------------------------------------
                                   SCF
            by Justin Turney, Rob Parrish, Andy Simmonett
                             and Daniel Smith
                              RHF Reference
                        1 Threads,    500 MiB Core
         ---------------------------------------------------------

  ==> Geometry <==

    Molecular point group: c2v
    Full point group: C_inf_v

    Geometry (in Bohr), charge = 0, multiplicity = 1:

       Center              X                  Y                   Z               Mass       
    ------------   -----------------  -----------------  -----------------  -----------------
          LI          0.000000000000     0.000000000000    -7.303031224277     7.016004548000
           F          0.000000000000     0.000000000000     2.696968775723    18.998403224000

  Running in c2v symmetry.

  Rotational constants: A = ************  B =      0.11749  C =      0.11749 [cm^-1]
  Rotational constants: A = ************  B =   3522.26409  C =   3522.26409 [MHz]
  Nuclear repulsion =    2.700000000000000

  Charge       = 0
  Multiplicity = 1
  Electrons    = 12
  Nalpha       = 6
  Nbeta        = 6

  ==> Algorithm <==

  SCF Algorithm Type is OUT_OF_CORE.
  DIIS enabled.
  MOM disabled.
  Fractional occupation disabled.
  Guess Type is SAD.
  Energy threshold   = 1.00e-10
  Density threshold  = 1.00e-10
  Integral threshold = 0.00e+00

  ==> Primary Basis <==

  Basis Set: ANONYMOUSE253CD7B
    Blend: AUG-CC-PVDZ + CC-PVDZ
    Number of shells: 15
    Number of basis function: 37
    Number of Cartesian functions: 40
    Spherical Harmonics?: true
    Max angular momentum: 2

  ==> Pre-Iterations <==

   -------------------------------------------------------
    Irrep   Nso     Nmo     Nalpha   Nbeta   Ndocc  Nsocc
   -------------------------------------------------------
     A1        18      18       4       4       4       0
     A2         3       3       0       0       0       0
     B1         8       8       1       1       1       0
     B2         8       8       1       1       1       0
   -------------------------------------------------------
    Total      37      37       6       6       6       0
   -------------------------------------------------------

  ==> Integral Setup <==

  ==> DiskJK: Disk-Based J/K Matrices <==

    J tasked:                  Yes
    K tasked:                  Yes
    wK tasked:                  No
    Memory (MB):               375
    Schwarz Cutoff:          1E-12

  Minimum eigenvalue in the overlap matrix is 8.8020111411E-02.
  Using Symmetric Orthogonalization.

  SCF Guess: Superposition of Atomic Densities via on-the-fly atomic UHF.

  ==> Iterations <==

                        Total Energy        Delta E     RMS |[F,P]|

   @RHF iter   0:  -106.46629982219139   -1.06466e+02   4.32681e-03 
   @RHF iter   1:  -106.67409764913674   -2.07798e-01   2.16236e-02 
   @RHF iter   2:  -105.52704242274716    1.14706e+00   6.05206e-02 DIIS
   @RHF iter   3:  -106.74559059579333   -1.21855e+00   9.34588e-03 DIIS
   @RHF iter   4:  -106.76361235466879   -1.80218e-02   1.98973e-03 DIIS
   @RHF iter   5:  -106.76470687941102   -1.09452e-03   6.54783e-04 DIIS
   @RHF iter   6:  -106.76484240087203   -1.35521e-04   2.01429e-04 DIIS
   @RHF iter   7:  -106.76485561897485   -1.32181e-05   4.24278e-05 DIIS
   @RHF iter   8:  -106.76485633713990   -7.18165e-07   4.20165e-06 DIIS
   @RHF iter   9:  -106.76485635100332   -1.38634e-08   1.56161e-06 DIIS
   @RHF iter  10:  -106.76485635164605   -6.42729e-10   5.38256e-07 DIIS
   @RHF iter  11:  -106.76485635173169   -8.56488e-11   1.27445e-07 DIIS
   @RHF iter  12:  -106.76485635173825   -6.55120e-12   6.54154e-09 DIIS
   @RHF iter  13:  -106.76485635173833   -8.52651e-14   1.19194e-09 DIIS
   @RHF iter  14:  -106.76485635173853   -1.98952e-13   3.49205e-10 DIIS
   @RHF iter  15:  -106.76485635173840    1.27898e-13   8.49745e-11 DIIS

  ==> Post-Iterations <==

    Orbital Energies (a.u.)
    -----------------------

    Doubly Occupied:                                                      

       1A1   -25.949822     2A1    -2.691664     3A1    -1.181713  
       1B1    -0.282869     1B2    -0.282869     4A1    -0.281733  

    Virtual:                                                              

       5A1    -0.102315     2B1    -0.034308     2B2    -0.034308  
       6A1    -0.017926     7A1     0.059038     3B1     0.069758  
       3B2     0.069758     8A1     0.115169     1A2     0.230550  
       9A1     0.230550    10A1     0.235491     4B1     0.236544  
       4B2     0.236544     5B1     0.414969     5B2     0.414969  
      11A1     0.434294    12A1     0.463808    13A1     1.634017  
       6B2     1.634417     6B1     1.634417    14A1     1.636003  
       2A2     1.636003     7B1     1.968778     7B2     1.968778  
      15A1     1.981773    16A1     2.604672    17A1     5.197522  
       8B2     5.197552     8B1     5.197552    18A1     5.198222  
       3A2     5.198222  

    Final Occupation by Irrep:
             A1    A2    B1    B2 
    DOCC [     4,    0,    1,    1 ]

  Energy converged.

  @RHF Final Energy:  -106.76485635173840

   => Energetics <=

    Nuclear Repulsion Energy =              2.7000000000000002
    One-Electron Energy =                -157.5883761461957988
    Two-Electron Energy =                  48.1235197944574082
    PCM Polarization Energy =               0.0000000000000000
    Total Energy =                       -106.7648563517384019

    Alert: EFP and PCM quantities not currently incorporated into SCF psivars.

Properties will be evaluated at   0.000000,   0.000000,   0.000000 Bohr

Properties computed using the SCF density matrix

  Nuclear Dipole Moment: (a.u.)
     X:     0.0000      Y:     0.0000      Z:     2.3636

  Electronic Dipole Moment: (a.u.)
     X:     0.0000      Y:     0.0000      Z:   -12.2800

  Dipole Moment: (a.u.)
     X:     0.0000      Y:     0.0000      Z:    -9.9163     Total:     9.9163

  Dipole Moment: (Debye)
     X:     0.0000      Y:     0.0000      Z:   -25.2048     Total:    25.2048


*** tstop() called on Yorks-Mac.local at Mon Jun  5 13:19:17 2017
Module time:
	user time   =       0.40 seconds =       0.01 minutes
	system time =       0.04 seconds =       0.00 minutes
	total time  =          0 seconds =       0.00 minutes
Total time:
	user time   =       0.40 seconds =       0.01 minutes
	system time =       0.04 seconds =       0.00 minutes
	total time  =          0 seconds =       0.00 minutes
 MINTS: Wrapper to libmints.
   by Justin Turney

   Calculation information:
      Number of threads:                 1
      Number of atoms:                   2
      Number of AO shells:              15
      Number of SO shells:              15
      Number of primitives:             47
      Number of atomic orbitals:        40
      Number of basis functions:        37

      Number of irreps:                  4
      Integral cutoff                 1.00e-12
      Number of functions per irrep: [  18    3    8    8 ]

 OEINTS: Overlap, kinetic, potential, dipole, and quadrupole integrals
         stored in file 35.

      Computing two-electron integrals...done
      Computed 54201 non-zero two-electron integrals.
        Stored in file 33.


         ---------------------------------------------------------
                Multi-Configurational Self-Consistent Field
                            (a 'D E T C I' module)

                 Daniel G. A. Smith, C. David Sherrill, and
                              Matt L. Leininger
         ---------------------------------------------------------


   ==> Parameters <==

    EX LEVEL       =        2      H0 BLOCKSIZE  =     1000
    VAL EX LEVEL   =        0      H0 GUESS SIZE =     1000
    H0COUPLINGSIZE =        0      H0 COUPLING   =       NO
    MAXITER        =       12      NUM PRINT     =       20
    NUM ROOTS      =        2      ICORE         =        1
    PRINT LVL      =        1      FCI           =      YES
    R CONV         = 1.00e-07      MIXED         =      YES
    E CONV         = 1.00e-10      MIXED4        =      YES
    R4S            =       NO      REPL OTF      =       NO
    DIAG METHOD    =      SEM      FOLLOW ROOT   =        2
    PRECONDITIONER = DAVIDSON      UPDATE        = DAVIDSON
    S              =   0.0000      Ms0           =      YES
    GUESS VECTOR   =  H0BLOCK      OPENTYPE      =     NONE
    COLLAPSE SIZE  =        1      HD AVG        = EVANGELISTI
    MAX NUM VECS   =       26      REF SYM       =     AUTO
    IOPEN        =       NO

    EX ALLOW       =  1  1 
    STATE AVERAGE  =  0(0.50)  1(0.50) 

   ==> CI Orbital and Space information <==

   ------------------------------------------------------
               Space    Total    A1    A2    B1    B2
   ------------------------------------------------------
                 Nso       37    18     3     8     8
                 Nmo       37    18     3     8     8
               Ndocc        6     4     0     1     1
               Nsocc        0     0     0     0     0
   ------------------------------------------------------
                        MCSCF Spaces
   ------------------------------------------------------
         Frozen DOCC        0     0     0     0     0
     Restricted DOCC        5     3     0     1     1
              Active        2     2     0     0     0
     Restricted UOCC       30    13     3     7     7
         Frozen UOCC        0     0     0     0     0
   ------------------------------------------------------

   ==> Setting up CI strings <==

    There are 2 alpha and 2 beta strings
    The CI space requires 4 (4.00E+00) determinants and 1 blocks

   ==> Setting up MCSCF integrals <==

  ==> DiskJK: Disk-Based J/K Matrices <==

    J tasked:                  Yes
    K tasked:                  Yes
    wK tasked:                  No
    Memory (MB):              3200
    Schwarz Cutoff:          1E-12


   ==> Starting MCSCF iterations <==

        Iter         Total Energy       Delta E   Orb RMS    CI RMS  NCI NORB
(sem_iter): H0block_->H0b_diag[1][1] - H0block_->H0b_diag[2][1] = -0.707107 - 0.707107 = -1.414214 > 1.0E-8
   @MCSCF  1:   -106.719655499369    4.5201e-02  7.73e-02  5.67e-09    1    1  Initial CI
   @MCSCF  2:   -106.743591142927   -2.3936e-02  4.80e-02  1.25e-10    1    1  TS
   @MCSCF  3:   -106.749720768275   -6.1296e-03  2.62e-02  3.36e-10    1    1  TS
   @MCSCF  4:   -106.751831447903   -2.1107e-03  1.47e-02  2.44e-10    1    1  TS
   @MCSCF  5:   -106.752507378604   -6.7593e-04  8.16e-03  2.71e-10    1    1  TS
   @MCSCF  6:   -106.752745372326   -2.3799e-04  4.54e-03  2.59e-10    1    1  TS
   @MCSCF  7:   -106.752830377356   -8.5005e-05  2.53e-03  2.66e-10    1    1  TS, DIIS
   @MCSCF  8:   -106.752862680331   -3.2303e-05  1.41e-03  2.62e-10    1    1  TS, DIIS
   @MCSCF  9:   -106.752859178411    3.5019e-06  2.51e-03  2.67e-10    1    1  TS, DIIS
   @MCSCF 10:   -106.752877029684   -1.7851e-05  1.46e-03  2.64e-10    2    1  TS, DIIS
   @MCSCF 11:   -106.752884414707   -7.3850e-06  4.11e-04  2.65e-10    1    1  TS, DIIS
   @MCSCF 12:   -106.752885011749   -5.9704e-07  1.12e-04  2.65e-10    1    1  TS, DIIS
   @MCSCF 13:   -106.752885060344   -4.8595e-08  7.10e-07  2.65e-10    1    1  TS, DIIS
   @MCSCF 14:   -106.752885060341    2.7001e-12  1.11e-06  2.65e-10    1    1  TS, DIIS
   @MCSCF 15:   -106.752885060346   -4.6612e-12  3.42e-09  2.65e-10    1    1  TS, DIIS

          @MCSCF has converged!

   @MCSCF Final Energy: -106.752885060345548

   Computing CI Semicanonical Orbitals
   (n = 4): 0  0  0  0  
   (n = 4): 3  0  1  1  
   (n = 4): 3  0  1  1  
   (n = 4): 5  0  1  1  
   (n = 4): 5  0  1  1  
   (n = 4): 18  3  8  8  

   ==> Energetics <==

    SCF energy =         -106.764856351738402
    Total MCSCF energy = -106.752885060345548

   ==> MCSCF root 0 information <==

    MCSCF Root 0 energy =  -106.772344530753983

   Active Space Natural occupation numbers:

        A1   1.177995        A1   0.822005

   The 4 most important determinants:

    *   1   -0.699843  (    0,    1)  4A1A 5A1B 
    *   2   -0.699843  (    1,    0)  4A1B 5A1A 
    *   3   -0.142097  (    0,    0)  4A1X 
    *   4    0.015730  (    1,    1)  5A1X 


   ==> MCSCF root 1 information <==

    MCSCF Root 1 energy =  -106.733425589938207

   Active Space Natural occupation numbers:

        A1   1.999870        A1   0.000130

   The 4 most important determinants:

    *   1   -0.989853  (    0,    0)  4A1X 
    *   2    0.100467  (    0,    1)  4A1A 5A1B 
    *   3    0.100467  (    1,    0)  4A1B 5A1A 
    *   4   -0.002053  (    1,    1)  5A1X 



Properties will be evaluated at   0.000000,   0.000000,   0.000000 Bohr

Properties computed using the CASSCF density matrix

  Nuclear Dipole Moment: (a.u.)
     X:     0.0000      Y:     0.0000      Z:     2.3636

  Electronic Dipole Moment: (a.u.)
     X:     0.0000      Y:     0.0000      Z:    -7.3349

  Dipole Moment: (a.u.)
     X:     0.0000      Y:     0.0000      Z:    -4.9713     Total:     4.9713

  Dipole Moment: (Debye)
     X:     0.0000      Y:     0.0000      Z:   -12.6357     Total:    12.6357

	SA-CASSCF energy..................................................PASSED
   => Loading Basis Set <=

    Name: STO-3G
    Role: ORBITAL
    Keyword: MINAO_BASIS
    atoms 1 entry LI         line    31 file /Users/york/src/psi4new/psi4/share/psi4/basis/sto-3g.gbs 
    atoms 2 entry F          line    91 file /Users/york/src/psi4new/psi4/share/psi4/basis/sto-3g.gbs 


Reading options from the FORTE block
Calling plugin forte.so.




  ==> MO Space Information <==

  Read options for space FROZEN_DOCC
  Read options for space RESTRICTED_DOCC
  Read options for space ACTIVE
 Removing orbital 0
 Removing orbital 1
  -------------------------------------------------
                       A1    A2    B1    B2   Sum
  -------------------------------------------------
    FROZEN_DOCC         2     0     0     0     2
    RESTRICTED_DOCC     1     0     0     0     1
    ACTIVE              3     0     2     2     7
    RESTRICTED_UOCC    12     3     6     6    27
    FROZEN_UOCC         0     0     0     0     0
    Total              18     3     8     8    37
  -------------------------------------------------

  ==> Integral Transformation <==

  Number of molecular orbitals:               37
  Number of correlated molecular orbitals:    35
  Number of frozen occupied orbitals:          2
  Number of frozen unoccupied orbitals:        0


  Overall Conventional Integrals timings

   (n = 4): 0  0  0  0  
  SOs per irrep (n = 4): 18  3  8  8  
  Frozen core orbitals per irrep (n = 4): 0  0  0  0  
  Frozen core orbitals per irrep (n = 4): 18  3  8  8  
	Presorting SO-basis two-electron integrals.
	Sorting File: SO Ints (nn|nn) nbuckets = 1
	Transforming the one-electron integrals and constructing Fock matrices
	Starting first half-transformation.
	Sorting half-transformed integrals.
	First half integral transformation complete.
	Starting second half-transformation.
	Two-electron integral transformation complete.

  Integral transformation done. 0.03959200 s
  Reading the two-electron integrals from disk
  Size of two-electron integrals:   0.041891 GB
  Frozen-core energy            -84.713599407175 a.u.

  FrozenOneBody Operator takes  0.08186600 s
  Resorting integrals after freezing core.
  Conventional integrals take 0.41064800 s

              ---------------------------------------------------
                Complete Active Space Configuration Interaction
                                  Chenyang Li
              ---------------------------------------------------


  ==> Input Summary <==

    number of atoms                =     2
    number of electrons            =    12
    molecular charge               =     0
    number of alpha electrons      =     6
    number of beta electrons       =     6
    multiplicity                   =     1
    ms (2 * Sz)                    =     0
    number of molecular orbitals   =    37

  ==> Orbital Spaces <==

    TOTAL MO                      [   18     3     8     8 ]
    FROZEN CORE                   [    2     0     0     0 ]
    FROZEN VIRTUAL                [    0     0     0     0 ]
    CORRELATED MO                 [   16     3     8     8 ]
    CORE                          [    1     0     0     0 ]
    ACTIVE                        [    3     0     2     2 ]
    VIRTUAL                       [   12     3     6     6 ]

  ==> State Averaging Summary <==

    Irrep.  Multi.  Nstates      Weights
    ------------------------------------
      A1       1        2    0.500 0.500
    ------------------------------------
    Total number of states: 2
    ------------------------------------

  Forming alpha and beta strings      ...  Done. Timing        0.000096 s
  Forming determinants                ...  Done. Timing        0.000136 s

  ==> Determinants Summary <==

    number of alpha active electrons    =     3
    number of beta active electrons     =     3
    root symmetry (zero based)          =     0
    number of determinants              =   321

  Diagonalizing Hamiltonian           ...
  Time spent building a_list   0.002979 s
  Time spent building b_list   0.001661 s
  Time spent building aa_list  0.001473 s
  Time spent building bb_list  0.001776 s
 Memory for AB_ann: 0.017 MB
  Time spent building ab_list  0.003032 s

  Davidson-Liu solver algorithm
  Using SPARSE sigma builder
  Initial guess space is incomplete.
  Trying to add 25 determinant(s).  25 determinant(s) added.
  Initial guess found 89 solutions with 2S+1 = 1 *
  Initial guess found 103 solutions with 2S+1 = 3  
  Initial guess found 30 solutions with 2S+1 = 5  
  Initial guess found 3 solutions with 2S+1 = 7  
  Adding guess 0 (multiplicity = 1.000000)
  Adding guess 1 (multiplicity = 1.000000)
  Adding guess 2 (multiplicity = 1.000000)
  Adding guess 3 (multiplicity = 1.000000)

  ==> Diagonalizing Hamiltonian <==

  ----------------------------------------
    Iter.      Avg. Energy       Delta_E
  ----------------------------------------
      1      -97.331220979499  -9.733e+01
      2      -97.331220979499  -5.542e-13
  ----------------------------------------
  The Davidson-Liu algorithm converged in 3 iterations.
  Davidson-Liu procedure took  0.104915 s  Done. Timing        0.119042 s

  * * * * * * * * * * * * * * * * *
  *  CI Vectors & Configurations  *
  * * * * * * * * * * * * * * * * *

  ==> Root No. 0 <==

    ba0 20 20          0.6992227066
    ab0 20 20          0.6992227066
    200 20 20          0.1460778802

    Total Energy:   -106.772573835155413


  ==> Root No. 1 <==

    200 20 20          0.9609078851
    b0a 20 20          0.1530225597
    a0b 20 20          0.1530225597
    ba0 20 20         -0.1034192683
    ab0 20 20         -0.1034192683

    Total Energy:   -106.735798150965877



  ==> Permanent Dipole Moments (A1) <==

  Only print nonzero (> 1.0e-5) elements.
  Permanent dipole moments (a.u.) 0 -> 0:  X:  0.0000  Y:  0.0000  Z: -0.2189  Total:  0.2189
  Permanent dipole moments (a.u.) 1 -> 1:  X:  0.0000  Y:  0.0000  Z: -8.9753  Total:  8.9753


  ==> Transition Dipole Moments (A1 -> A1) <==

  Only print nonzero (> 1.0e-5) elements.
  Transition dipole moments (a.u.) 0 -> 1:  X:  0.0000  Y:  0.0000  Z: -1.7577  Total:  1.7577


  ==> Oscillator Strength (A1 -> A1) <==

  Only print nonzero (> 1.0e-5) elements.
  Oscillator strength (a.u.) 0 -> 1:  X:  0.0000  Y:  0.0000  Z:  0.0757  Total:  0.0757

  Total Energy (averaged over 2 states): -106.754185993060645

  Forming generalized Fock matrix     ...  Done. Timing        0.001627 s

              ----------------------------------------------------
                 Driven Similarity Renormalization Group MBPT2
                Chenyang Li, Kevin Hannon, Francesco Evangelista
              ----------------------------------------------------

    Reference:
      J. Chem. Theory Comput. 2015, 11, 2097-2108.

  ==> Calculation Information <==

    ntamp                                                 15
    flow parameter                                 5.000e-01
    taylor expansion threshold                     1.000e-03
    intruder_tamp                                  1.000e-01
    int_type                                    CONVENTIONAL
    source operator                                 STANDARD
    reference relaxation                                NONE
    state_type                                   MULTI-STATE
    multi-state type                                      MS
    form Hbar3                                         FALSE

  ==> Build Effective Hamiltonian (Singlet A1) <==



  ==> Compute DSRG-MRPT2 Energy of State 0 <==

    Computing reference energy               ...  Done. Timing        0.002214 s

  ==> Checking Orbitals <==

    Checking if orbitals are semi-canonicalized ...
    Warning! Orbitals are not semi-canonicalized!
    Off-Diagonal norms of the core, active, virtual blocks of Fock matrix
                  core          active         virtual
    ---------------------------------------------------
    Fa    0.0000000000    0.0107234310    0.2397506322
    Fb    0.0000000000    0.0107234310    0.2397506322
    ---------------------------------------------------

    Orbital invariant formalism is employed for DSRG-MRPT2.

  ==> Computing DSRG-MRPT2 ... <==

    Computing T2 amplitudes                  ...  Done. Timing        0.499664 s
    Computing T1 amplitudes                  ...  Done. Timing        0.022273 s
    Renormalizing two-electron integrals     ...  Done. Timing        0.485815 s
    Renormalizing Fock matrix elements       ...  Done. Timing        0.022711 s
    Computing <[F, T1]>                      ...  Done. Timing        0.001579 s
    Computing <[F, T2]>                      ...  Done. Timing        0.005457 s
    Computing <[V, T1]>                      ...  Done. Timing        0.004791 s
    Computing <[V, T2]> (C_2)^4              ...  Done. Timing        0.030722 s
    Computing <[V, T2]> C_4 (C_2)^2 HH       ...  Done. Timing        0.005512 s
    Computing <[V, T2]> C_4 (C_2)^2 PP       ...  Done. Timing        0.008647 s
    Computing <[V, T2]> C_4 (C_2)^2 PH       ...  Done. Timing        0.031507 s
    Computing <[V, T2]> C_6 C_2              ...  Done. Timing        0.110633 s

  ==> Excitation Amplitudes Summary <==

    Active Indices:    1    2    3   19   20   27   28 
    Largest T1 amplitudes for spin case A:
       i       a                  i       a                  i       a               
    --------------------------------------------------------------------------------
    [ 19      25    ]-0.034108 [ 27      33    ]-0.034108 [ 19      23    ] 0.020600 
    [ 27      31    ] 0.020600 [  0      13    ] 0.017972 [  0       8    ]-0.014125 
    [  1      12    ]-0.013641 [  0       9    ] 0.012101 [ 27      30    ]-0.006098 
    [ 19      22    ]-0.006098 [  1       9    ]-0.005442 [  1       8    ]-0.003754 
    [  1       6    ] 0.003202 [  0       6    ]-0.002902 [  0       5    ] 0.002885 
    --------------------------------------------------------------------------------
    Norm of T1A vector: (nonzero elements: 75)                    0.064893854141588.
    --------------------------------------------------------------------------------
    Largest T1 amplitudes for spin case B:
       _       _                  _       _                  _       _               
       i       a                  i       a                  i       a               
    --------------------------------------------------------------------------------
    [ 19      25    ]-0.034108 [ 27      33    ]-0.034108 [ 19      23    ] 0.020600 
    [ 27      31    ] 0.020600 [  0      13    ] 0.017972 [  0       8    ]-0.014125 
    [  1      12    ]-0.013641 [  0       9    ] 0.012101 [ 27      30    ]-0.006098 
    [ 19      22    ]-0.006098 [  1       9    ]-0.005442 [  1       8    ]-0.003754 
    [  1       6    ] 0.003202 [  0       6    ]-0.002902 [  0       5    ] 0.002885 
    --------------------------------------------------------------------------------
    Norm of T1B vector: (nonzero elements: 75)                    0.064893854141588.
    --------------------------------------------------------------------------------
    Largest T2 amplitudes for spin case AA:
       i   j   a   b              i   j   a   b              i   j   a   b           
    --------------------------------------------------------------------------------
    [  1  27  12  27] 0.074646 [  1  19  12  19] 0.074646 [ 19  27  25  27] 0.070837 
    [ 19  27  19  33] 0.070837 [  1  27   1  33] 0.068352 [  1  19   1  25] 0.068352 
    [ 19  27  23  27]-0.042238 [ 19  27  19  31]-0.042238 [  1  19   1  23]-0.041097 
    [  1  27   1  31]-0.041097 [  0  27  13  27]-0.035079 [  0  19  13  19]-0.035079 
    [  0   1   1  13] 0.033901 [  0  27   8  27] 0.027166 [  0  19   8  19] 0.027166 
    --------------------------------------------------------------------------------
    Norm of T2AA vector: (nonzero elements: 18639)                0.484857361785620.
    --------------------------------------------------------------------------------
    Largest T2 amplitudes for spin case AB:
           _       _                  _       _                  _       _           
       i   j   a   b              i   j   a   b              i   j   a   b           
    --------------------------------------------------------------------------------
    [  1   1   1  12] 0.084872 [ 27  27  27  33] 0.084103 [ 19  19  19  25] 0.084103 
    [  1  27  12  27] 0.079421 [  1  19  12  19] 0.079421 [  0   0  27  27]-0.076415 
    [  0   0  19  19]-0.076415 [ 19  27  25  27] 0.075259 [ 19  27  19  33] 0.075259 
    [  1  27   1  33] 0.072319 [  1  19   1  25] 0.072319 [  0   0   1   1]-0.064913 
    [ 19  19  19  23]-0.052441 [ 27  27  27  31]-0.052441 [ 19  27  23  27]-0.045639 
    --------------------------------------------------------------------------------
    Norm of T2AB vector: (nonzero elements: 19007)                0.500534881319345.
    --------------------------------------------------------------------------------
    Largest T2 amplitudes for spin case BB:
       _   _   _   _              _   _   _   _              _   _   _   _           
       i   j   a   b              i   j   a   b              i   j   a   b           
    --------------------------------------------------------------------------------
    [  1  27  12  27] 0.074646 [  1  19  12  19] 0.074646 [ 19  27  19  33] 0.070837 
    [ 19  27  25  27] 0.070837 [  1  27   1  33] 0.068352 [  1  19   1  25] 0.068352 
    [ 19  27  23  27]-0.042238 [ 19  27  19  31]-0.042238 [  1  19   1  23]-0.041097 
    [  1  27   1  31]-0.041097 [  0  27  13  27]-0.035079 [  0  19  13  19]-0.035079 
    [  0   1   1  13] 0.033901 [  0  27   8  27] 0.027166 [  0  19   8  19] 0.027166 
    --------------------------------------------------------------------------------
    Norm of T2BB vector: (nonzero elements: 18635)                0.484857361785620.
    --------------------------------------------------------------------------------

  ==> Possible Intruders <==

    T1 amplitudes larger than 0.1000 for spin case A: NULL
    T1 amplitudes larger than 0.1000 for spin case B: NULL
    T2 amplitudes larger than 0.1000 for spin case AA: NULL
    T2 amplitudes larger than 0.1000 for spin case AB: NULL
    T2 amplitudes larger than 0.1000 for spin case BB: NULL

  ==> DSRG-MRPT2 Energy Summary <==

    E0 (reference)                 =   -106.772573835154091
    <[F, T1]>                      =     -0.025349234108825
    <[F, T2]>                      =     -0.002399498709746
    <[V, T1]>                      =     -0.002381027254494
    <[V, T2]> (C_2)^4              =     -0.238312825315656
    <[V, T2]> C_4 (C_2)^2 HH       =      0.002763052534134
    <[V, T2]> C_4 (C_2)^2 PP       =      0.013930087979357
    <[V, T2]> C_4 (C_2)^2 PH       =      0.039136488944771
    <[V, T2]> C_6 C_2              =     -0.000033454147830
    <[V, T2]>                      =     -0.182516650005224
    DSRG-MRPT2 correlation energy  =     -0.212646410078289
    DSRG-MRPT2 total energy        =   -106.985220245232384
    max(T1)                        =      0.034108128716547
    max(T2)                        =      0.084871808116240
    ||T1||                         =      0.091773768641696
    ||T2||                         =      1.213389464362084

  Energy took      1.307 s


  ==> Compute Couplings with State 0 <==

    Computing coupling of <1|H|0>            ...  Done. Timing        0.001623 s
    Computing coupling of <1|HT|0>           ...  Done. Timing        0.135831 s

  ==> Compute DSRG-MRPT2 Energy of State 1 <==

    Computing reference energy               ...  Done. Timing        0.002023 s

  ==> Checking Orbitals <==

    Checking if orbitals are semi-canonicalized ...
    Warning! Orbitals are not semi-canonicalized!
    Off-Diagonal norms of the core, active, virtual blocks of Fock matrix
                  core          active         virtual
    ---------------------------------------------------
    Fa    0.0000000000    0.0422678055    0.2056489758
    Fb    0.0000000000    0.0422678055    0.2056489758
    ---------------------------------------------------

    Orbital invariant formalism is employed for DSRG-MRPT2.

  ==> Computing DSRG-MRPT2 ... <==

    Computing T2 amplitudes                  ...  Done. Timing        0.472855 s
    Computing T1 amplitudes                  ...  Done. Timing        0.023833 s
    Renormalizing two-electron integrals     ...  Done. Timing        0.501750 s
    Renormalizing Fock matrix elements       ...  Done. Timing        0.023450 s
    Computing <[F, T1]>                      ...  Done. Timing        0.001603 s
    Computing <[F, T2]>                      ...  Done. Timing        0.005312 s
    Computing <[V, T1]>                      ...  Done. Timing        0.004858 s
    Computing <[V, T2]> (C_2)^4              ...  Done. Timing        0.028738 s
    Computing <[V, T2]> C_4 (C_2)^2 HH       ...  Done. Timing        0.005357 s
    Computing <[V, T2]> C_4 (C_2)^2 PP       ...  Done. Timing        0.012344 s
    Computing <[V, T2]> C_4 (C_2)^2 PH       ...  Done. Timing        0.031057 s
    Computing <[V, T2]> C_6 C_2              ...  Done. Timing        0.113454 s

  ==> Excitation Amplitudes Summary <==

    Active Indices:    1    2    3   19   20   27   28 
    Largest T1 amplitudes for spin case A:
       i       a                  i       a                  i       a               
    --------------------------------------------------------------------------------
    [ 27      33    ] 0.029839 [ 19      25    ] 0.029839 [  1      12    ] 0.023330 
    [  0      13    ]-0.015185 [ 27      31    ]-0.012793 [ 19      23    ]-0.012793 
    [  0       8    ] 0.011829 [  0       9    ]-0.010450 [  1       9    ] 0.008700 
    [  1       8    ] 0.006779 [  1       6    ]-0.005534 [ 27      30    ] 0.003770 
    [ 19      22    ] 0.003770 [  0       6    ] 0.002662 [  0       5    ]-0.002442 
    --------------------------------------------------------------------------------
    Norm of T1A vector: (nonzero elements: 75)                    0.057912742507953.
    --------------------------------------------------------------------------------
    Largest T1 amplitudes for spin case B:
       _       _                  _       _                  _       _               
       i       a                  i       a                  i       a               
    --------------------------------------------------------------------------------
    [ 27      33    ] 0.029839 [ 19      25    ] 0.029839 [  1      12    ] 0.023330 
    [  0      13    ]-0.015185 [ 27      31    ]-0.012793 [ 19      23    ]-0.012793 
    [  0       8    ] 0.011829 [  0       9    ]-0.010450 [  1       9    ] 0.008700 
    [  1       8    ] 0.006779 [  1       6    ]-0.005534 [ 27      30    ] 0.003770 
    [ 19      22    ] 0.003770 [  0       6    ] 0.002662 [  0       5    ]-0.002442 
    --------------------------------------------------------------------------------
    Norm of T1B vector: (nonzero elements: 75)                    0.057912742507953.
    --------------------------------------------------------------------------------
    Largest T2 amplitudes for spin case AA:
       i   j   a   b              i   j   a   b              i   j   a   b           
    --------------------------------------------------------------------------------
    [ 19  27  19  33] 0.073017 [ 19  27  25  27] 0.073017 [  1  27  12  27] 0.072256 
    [  1  19  12  19] 0.072256 [  1  27   1  33] 0.070455 [  1  19   1  25] 0.070455 
    [  0  27  13  27]-0.035170 [  0  19  13  19]-0.035170 [  0   1   1  13] 0.033932 
    [ 19  27  23  27]-0.030586 [ 19  27  19  31]-0.030586 [  1  19   1  23]-0.029745 
    [  1  27   1  31]-0.029745 [  0  19   8  19] 0.027072 [  0  27   8  27] 0.027072 
    --------------------------------------------------------------------------------
    Norm of T2AA vector: (nonzero elements: 18637)                0.469839468236937.
    --------------------------------------------------------------------------------
    Largest T2 amplitudes for spin case AB:
           _       _                  _       _                  _       _           
       i   j   a   b              i   j   a   b              i   j   a   b           
    --------------------------------------------------------------------------------
    [ 27  27  27  33] 0.086710 [ 19  19  19  25] 0.086710 [  1   1   1  12] 0.082206 
    [ 19  27  19  33] 0.077581 [ 19  27  25  27] 0.077581 [  1  27  12  27] 0.076892 
    [  1  19  12  19] 0.076892 [  0   0  19  19]-0.076415 [  0   0  27  27]-0.076415 
    [  1  27   1  33] 0.074551 [  1  19   1  25] 0.074551 [  0   0   1   1]-0.073967 
    [  0  27  13  27]-0.041726 [  0  19  13  19]-0.041726 [ 19  19  19  23]-0.037945 
    --------------------------------------------------------------------------------
    Norm of T2AB vector: (nonzero elements: 19007)                0.487437964859487.
    --------------------------------------------------------------------------------
    Largest T2 amplitudes for spin case BB:
       _   _   _   _              _   _   _   _              _   _   _   _           
       i   j   a   b              i   j   a   b              i   j   a   b           
    --------------------------------------------------------------------------------
    [ 19  27  19  33] 0.073017 [ 19  27  25  27] 0.073017 [  1  27  12  27] 0.072256 
    [  1  19  12  19] 0.072256 [  1  27   1  33] 0.070455 [  1  19   1  25] 0.070455 
    [  0  27  13  27]-0.035170 [  0  19  13  19]-0.035170 [  0   1   1  13] 0.033932 
    [ 19  27  23  27]-0.030586 [ 19  27  19  31]-0.030586 [  1  19   1  23]-0.029745 
    [  1  27   1  31]-0.029745 [  0  19   8  19] 0.027072 [  0  27   8  27] 0.027072 
    --------------------------------------------------------------------------------
    Norm of T2BB vector: (nonzero elements: 18637)                0.469839468236937.
    --------------------------------------------------------------------------------

  ==> Possible Intruders <==

    T1 amplitudes larger than 0.1000 for spin case A: NULL
    T1 amplitudes larger than 0.1000 for spin case B: NULL
    T2 amplitudes larger than 0.1000 for spin case AA: NULL
    T2 amplitudes larger than 0.1000 for spin case AB: NULL
    T2 amplitudes larger than 0.1000 for spin case BB: NULL

  ==> DSRG-MRPT2 Energy Summary <==

    E0 (reference)                 =   -106.735798150965778
    <[F, T1]>                      =     -0.021446551282607
    <[F, T2]>                      =      0.000053474860403
    <[V, T1]>                      =      0.000053913693018
    <[V, T2]> (C_2)^4              =     -0.227666218544017
    <[V, T2]> C_4 (C_2)^2 HH       =      0.000021205281509
    <[V, T2]> C_4 (C_2)^2 PP       =      0.000051493540073
    <[V, T2]> C_4 (C_2)^2 PH       =      0.000293295239155
    <[V, T2]> C_6 C_2              =      0.000005647215690
    <[V, T2]>                      =     -0.227294577267590
    DSRG-MRPT2 correlation energy  =     -0.248633739996776
    DSRG-MRPT2 total energy        =   -106.984431890962554
    max(T1)                        =      0.029839136873110
    max(T2)                        =      0.086710283808403
    ||T1||                         =      0.081900985888968
    ||T2||                         =      1.179780204178629

  Energy took      1.299 s


  ==> Compute Couplings with State 1 <==

    Computing coupling of <0|HT|1>           ...  Done. Timing        0.131030 s

  ==> Effective Hamiltonian Summary <==

  ## Heff Singlet A1 (Symmetry 0) ##
  Irrep: 1 Size: 2 x 2

                 1                   2

    1  -106.98522024523238    -0.00187802868595
    2    -0.00213782848692  -106.98443189096255



  ## Heff (Symmetrized) Singlet A1 (Symmetry 0) ##
  Irrep: 1 Size: 2 x 2

                 1                   2

    1  -106.98522024523238    -0.00200792858643
    2    -0.00200792858643  -106.98443189096255



  ## U of Heff (Symmetrized) with eigenvalues ##
 Irrep: 1

           1           2

    1  -0.7722155   0.6353607
    2  -0.6353607  -0.7722155

     -106.9868723-106.9827798



  ==> Multi-State DSRG-MRPT2 Energy Summary <==

    Multi.  Irrep.  No.    DSRG-MRPT2 Energy
    -----------------------------------------
       1      A1     0      -106.986872321460
       1      A1     1      -106.982779814735
    -----------------------------------------

  ==> Total Timings (s) for Computing Commutators <==

             [H1, T1]    [H1, T2]    [H2, T1]    [H2, T2]
    -----------------------------------------------------
    -> C0       0.003       0.011       0.010       0.378
    -> C1       0.000       0.000       0.000       0.000
    -> C2                   0.000       0.000       0.000
    -----------------------------------------------------


  Your calculation took 4.61474500 seconds
   => Loading Basis Set <=

    Name: STO-3G
    Role: ORBITAL
    Keyword: MINAO_BASIS
    atoms 1 entry LI         line    31 file /Users/york/src/psi4new/psi4/share/psi4/basis/sto-3g.gbs 
    atoms 2 entry F          line    91 file /Users/york/src/psi4new/psi4/share/psi4/basis/sto-3g.gbs 


Reading options from the FORTE block
Calling plugin forte.so.




  ==> MO Space Information <==

  Read options for space FROZEN_DOCC
  Read options for space RESTRICTED_DOCC
  Read options for space ACTIVE
 Removing orbital 0
 Removing orbital 1
  -------------------------------------------------
                       A1    A2    B1    B2   Sum
  -------------------------------------------------
    FROZEN_DOCC         2     0     0     0     2
    RESTRICTED_DOCC     1     0     0     0     1
    ACTIVE              3     0     2     2     7
    RESTRICTED_UOCC    12     3     6     6    27
    FROZEN_UOCC         0     0     0     0     0
    Total              18     3     8     8    37
  -------------------------------------------------

  ==> Integral Transformation <==

  Number of molecular orbitals:               37
  Number of correlated molecular orbitals:    35
  Number of frozen occupied orbitals:          2
  Number of frozen unoccupied orbitals:        0


  Overall Conventional Integrals timings

   (n = 4): 0  0  0  0  
  SOs per irrep (n = 4): 18  3  8  8  
  Frozen core orbitals per irrep (n = 4): 0  0  0  0  
  Frozen core orbitals per irrep (n = 4): 18  3  8  8  
	Presorting SO-basis two-electron integrals.
	Sorting File: SO Ints (nn|nn) nbuckets = 1
	Transforming the one-electron integrals and constructing Fock matrices
	Starting first half-transformation.
	Sorting half-transformed integrals.
	First half integral transformation complete.
	Starting second half-transformation.
	Two-electron integral transformation complete.

  Integral transformation done. 0.03314900 s
  Reading the two-electron integrals from disk
  Size of two-electron integrals:   0.041891 GB
  Frozen-core energy            -84.713599407175 a.u.

  FrozenOneBody Operator takes  0.08608400 s
  Resorting integrals after freezing core.
  Conventional integrals take 0.40442400 s

              ---------------------------------------------------
                Complete Active Space Configuration Interaction
                                  Chenyang Li
              ---------------------------------------------------


  ==> Input Summary <==

    number of atoms                =     2
    number of electrons            =    12
    molecular charge               =     0
    number of alpha electrons      =     6
    number of beta electrons       =     6
    multiplicity                   =     1
    ms (2 * Sz)                    =     0
    number of molecular orbitals   =    37

  ==> Orbital Spaces <==

    TOTAL MO                      [   18     3     8     8 ]
    FROZEN CORE                   [    2     0     0     0 ]
    FROZEN VIRTUAL                [    0     0     0     0 ]
    CORRELATED MO                 [   16     3     8     8 ]
    CORE                          [    1     0     0     0 ]
    ACTIVE                        [    3     0     2     2 ]
    VIRTUAL                       [   12     3     6     6 ]

  ==> State Averaging Summary <==

    Irrep.  Multi.  Nstates      Weights
    ------------------------------------
      A1       1        2    0.500 0.500
    ------------------------------------
    Total number of states: 2
    ------------------------------------

  Forming alpha and beta strings      ...  Done. Timing        0.000080 s
  Forming determinants                ...  Done. Timing        0.000130 s

  ==> Determinants Summary <==

    number of alpha active electrons    =     3
    number of beta active electrons     =     3
    root symmetry (zero based)          =     0
    number of determinants              =   321

  Diagonalizing Hamiltonian           ...
  Time spent building a_list   0.001201 s
  Time spent building b_list   0.001208 s
  Time spent building aa_list  0.001113 s
  Time spent building bb_list  0.001045 s
 Memory for AB_ann: 0.017 MB
  Time spent building ab_list  0.002819 s

  Davidson-Liu solver algorithm
  Using SPARSE sigma builder
  Initial guess space is incomplete.
  Trying to add 25 determinant(s).  25 determinant(s) added.
  Initial guess found 89 solutions with 2S+1 = 1 *
  Initial guess found 103 solutions with 2S+1 = 3  
  Initial guess found 30 solutions with 2S+1 = 5  
  Initial guess found 3 solutions with 2S+1 = 7  
  Adding guess 0 (multiplicity = 1.000000)
  Adding guess 1 (multiplicity = 1.000000)
  Adding guess 2 (multiplicity = 1.000000)
  Adding guess 3 (multiplicity = 1.000000)

  ==> Diagonalizing Hamiltonian <==

  ----------------------------------------
    Iter.      Avg. Energy       Delta_E
  ----------------------------------------
      1      -97.331220979499  -9.733e+01
      2      -97.331220979499  -5.542e-13
  ----------------------------------------
  The Davidson-Liu algorithm converged in 3 iterations.
  Davidson-Liu procedure took  0.096656 s  Done. Timing        0.106372 s

  * * * * * * * * * * * * * * * * *
  *  CI Vectors & Configurations  *
  * * * * * * * * * * * * * * * * *

  ==> Root No. 0 <==

    ba0 20 20          0.6992227066
    ab0 20 20          0.6992227066
    200 20 20          0.1460778802

    Total Energy:   -106.772573835155413


  ==> Root No. 1 <==

    200 20 20          0.9609078851
    b0a 20 20          0.1530225597
    a0b 20 20          0.1530225597
    ba0 20 20         -0.1034192683
    ab0 20 20         -0.1034192683

    Total Energy:   -106.735798150965877



  ==> Permanent Dipole Moments (A1) <==

  Only print nonzero (> 1.0e-5) elements.
  Permanent dipole moments (a.u.) 0 -> 0:  X:  0.0000  Y:  0.0000  Z: -0.2189  Total:  0.2189
  Permanent dipole moments (a.u.) 1 -> 1:  X:  0.0000  Y:  0.0000  Z: -8.9753  Total:  8.9753


  ==> Transition Dipole Moments (A1 -> A1) <==

  Only print nonzero (> 1.0e-5) elements.
  Transition dipole moments (a.u.) 0 -> 1:  X:  0.0000  Y:  0.0000  Z: -1.7577  Total:  1.7577


  ==> Oscillator Strength (A1 -> A1) <==

  Only print nonzero (> 1.0e-5) elements.
  Oscillator strength (a.u.) 0 -> 1:  X:  0.0000  Y:  0.0000  Z:  0.0757  Total:  0.0757

  Total Energy (averaged over 2 states): -106.754185993060645

  Forming generalized Fock matrix     ...  Done. Timing        0.001729 s

              ----------------------------------------------------
                 Driven Similarity Renormalization Group MBPT2
                Chenyang Li, Kevin Hannon, Francesco Evangelista
              ----------------------------------------------------

    Reference:
      J. Chem. Theory Comput. 2015, 11, 2097-2108.

  ==> Calculation Information <==

    ntamp                                                 15
    flow parameter                                 5.000e-01
    taylor expansion threshold                     1.000e-03
    intruder_tamp                                  1.000e-01
    int_type                                    CONVENTIONAL
    source operator                                 STANDARD
    reference relaxation                                NONE
    state_type                                   MULTI-STATE
    multi-state type                                     XMS
    form Hbar3                                         FALSE

  ==> Build Effective Hamiltonian (Singlet A1) <==



  ==> Perform XMS Rotation to Reference States <==

  ## Fock (Symmetry 0) ##
  Irrep: 1 Size: 2 x 2

                 1                   2

    1    -2.46501187084708    -0.03396033372834
    2    -0.03396033372834    -2.68634334120855



  ## Fock Evec (Symmetry 0) ##
  Irrep: 1 Size: 2 x 2

                 1                   2

    1     0.14832585523711    -0.98893854241211
    2     0.98893854241211     0.14832585523711





  ==> Compute DSRG-MRPT2 Energy of State 0 <==

    Computing reference energy               ...  Done. Timing        0.002857 s

  ==> Checking Orbitals <==

    Checking if orbitals are semi-canonicalized ...
    Warning! Orbitals are not semi-canonicalized!
    Off-Diagonal norms of the core, active, virtual blocks of Fock matrix
                  core          active         virtual
    ---------------------------------------------------
    Fa    0.0000000000    0.0444256735    0.2136468424
    Fb    0.0000000000    0.0444256735    0.2136468424
    ---------------------------------------------------

    Orbital invariant formalism is employed for DSRG-MRPT2.

  ==> Computing DSRG-MRPT2 ... <==

    Computing T2 amplitudes                  ...  Done. Timing        0.482505 s
    Computing T1 amplitudes                  ...  Done. Timing        0.026344 s
    Renormalizing two-electron integrals     ...  Done. Timing        0.491472 s
    Renormalizing Fock matrix elements       ...  Done. Timing        0.023794 s
    Computing <[F, T1]>                      ...  Done. Timing        0.001507 s
    Computing <[F, T2]>                      ...  Done. Timing        0.005280 s
    Computing <[V, T1]>                      ...  Done. Timing        0.005028 s
    Computing <[V, T2]> (C_2)^4              ...  Done. Timing        0.028906 s
    Computing <[V, T2]> C_4 (C_2)^2 HH       ...  Done. Timing        0.005475 s
    Computing <[V, T2]> C_4 (C_2)^2 PP       ...  Done. Timing        0.008463 s
    Computing <[V, T2]> C_4 (C_2)^2 PH       ...  Done. Timing        0.031964 s
    Computing <[V, T2]> C_6 C_2              ...  Done. Timing        0.113478 s

  ==> Excitation Amplitudes Summary <==

    Active Indices:    1    2    3   19   20   27   28 
    Largest T1 amplitudes for spin case A:
       i       a                  i       a                  i       a               
    --------------------------------------------------------------------------------
    [ 27      33    ] 0.030843 [ 19      25    ] 0.030843 [  1      12    ] 0.023826 
    [  0      13    ]-0.015680 [ 27      31    ]-0.013129 [ 19      23    ]-0.013129 
    [  0       8    ] 0.012205 [  0       9    ]-0.010827 [  1       9    ] 0.009004 
    [  1       8    ] 0.006926 [  1       6    ]-0.005784 [ 27      30    ] 0.003860 
    [ 19      22    ] 0.003860 [  0       6    ] 0.002825 [  0       5    ]-0.002497 
    --------------------------------------------------------------------------------
    Norm of T1A vector: (nonzero elements: 75)                    0.059684731108241.
    --------------------------------------------------------------------------------
    Largest T1 amplitudes for spin case B:
       _       _                  _       _                  _       _               
       i       a                  i       a                  i       a               
    --------------------------------------------------------------------------------
    [ 27      33    ] 0.030843 [ 19      25    ] 0.030843 [  1      12    ] 0.023826 
    [  0      13    ]-0.015680 [ 27      31    ]-0.013129 [ 19      23    ]-0.013129 
    [  0       8    ] 0.012205 [  0       9    ]-0.010827 [  1       9    ] 0.009004 
    [  1       8    ] 0.006926 [  1       6    ]-0.005784 [ 27      30    ] 0.003860 
    [ 19      22    ] 0.003860 [  0       6    ] 0.002825 [  0       5    ]-0.002497 
    --------------------------------------------------------------------------------
    Norm of T1B vector: (nonzero elements: 75)                    0.059684731108241.
    --------------------------------------------------------------------------------
    Largest T2 amplitudes for spin case AA:
       i   j   a   b              i   j   a   b              i   j   a   b           
    --------------------------------------------------------------------------------
    [ 19  27  19  33] 0.073061 [ 19  27  25  27] 0.073061 [  1  27  12  27] 0.072203 
    [  1  19  12  19] 0.072203 [  1  27   1  33] 0.070497 [  1  19   1  25] 0.070497 
    [  0  27  13  27]-0.035173 [  0  19  13  19]-0.035173 [  0   1   1  13] 0.033934 
    [ 19  27  23  27]-0.030359 [ 19  27  19  31]-0.030359 [  1  19   1  23]-0.029519 
    [  1  27   1  31]-0.029519 [  0  19   8  19] 0.027055 [  0  27   8  27] 0.027055 
    --------------------------------------------------------------------------------
    Norm of T2AA vector: (nonzero elements: 18637)                0.469566253060215.
    --------------------------------------------------------------------------------
    Largest T2 amplitudes for spin case AB:
           _       _                  _       _                  _       _           
       i   j   a   b              i   j   a   b              i   j   a   b           
    --------------------------------------------------------------------------------
    [ 27  27  27  33] 0.086764 [ 19  19  19  25] 0.086764 [  1   1   1  12] 0.082146 
    [ 19  27  19  33] 0.077629 [ 19  27  25  27] 0.077629 [  1  27  12  27] 0.076836 
    [  1  19  12  19] 0.076836 [  0   0  19  19]-0.076415 [  0   0  27  27]-0.076415 
    [  1  27   1  33] 0.074595 [  1  19   1  25] 0.074595 [  0   0   1   1]-0.074052 
    [  0  27  13  27]-0.041728 [  0  19  13  19]-0.041728 [ 19  19  19  23]-0.037662 
    --------------------------------------------------------------------------------
    Norm of T2AB vector: (nonzero elements: 19007)                0.487196159923682.
    --------------------------------------------------------------------------------
    Largest T2 amplitudes for spin case BB:
       _   _   _   _              _   _   _   _              _   _   _   _           
       i   j   a   b              i   j   a   b              i   j   a   b           
    --------------------------------------------------------------------------------
    [ 19  27  19  33] 0.073061 [ 19  27  25  27] 0.073061 [  1  27  12  27] 0.072203 
    [  1  19  12  19] 0.072203 [  1  27   1  33] 0.070497 [  1  19   1  25] 0.070497 
    [  0  27  13  27]-0.035173 [  0  19  13  19]-0.035173 [  0   1   1  13] 0.033934 
    [ 19  27  23  27]-0.030359 [ 19  27  19  31]-0.030359 [  1  19   1  23]-0.029519 
    [  1  27   1  31]-0.029519 [  0  19   8  19] 0.027055 [  0  27   8  27] 0.027055 
    --------------------------------------------------------------------------------
    Norm of T2BB vector: (nonzero elements: 18635)                0.469566253060215.
    --------------------------------------------------------------------------------

  ==> Possible Intruders <==

    T1 amplitudes larger than 0.1000 for spin case A: NULL
    T1 amplitudes larger than 0.1000 for spin case B: NULL
    T2 amplitudes larger than 0.1000 for spin case AA: NULL
    T2 amplitudes larger than 0.1000 for spin case AB: NULL
    T2 amplitudes larger than 0.1000 for spin case BB: NULL

  ==> DSRG-MRPT2 Energy Summary <==

    E0 (reference)                 =   -106.736607236587716
    <[F, T1]>                      =     -0.022838282167992
    <[F, T2]>                      =      0.000044422542210
    <[V, T1]>                      =      0.000042964499868
    <[V, T2]> (C_2)^4              =     -0.226635051463798
    <[V, T2]> C_4 (C_2)^2 HH       =      0.000014315156796
    <[V, T2]> C_4 (C_2)^2 PP       =      0.000040192783580
    <[V, T2]> C_4 (C_2)^2 PH       =      0.000194049613516
    <[V, T2]> C_6 C_2              =      0.000004614480071
    <[V, T2]>                      =     -0.226381879429834
    DSRG-MRPT2 correlation energy  =     -0.249132774555748
    DSRG-MRPT2 total energy        =   -106.985740011143463
    max(T1)                        =      0.030842782010560
    max(T2)                        =      0.086763994557792
    ||T1||                         =      0.084406956199865
    ||T2||                         =      1.179162976438604

  Energy took      1.311 s


  ==> Compute Couplings with State 0 <==

    Computing coupling of <1|H|0>            ...  Done. Timing        0.001643 s
    Computing coupling of <1|HT|0>           ...  Done. Timing        0.138957 s

  ==> Compute DSRG-MRPT2 Energy of State 1 <==

    Computing reference energy               ...  Done. Timing        0.002555 s

  ==> Checking Orbitals <==

    Checking if orbitals are semi-canonicalized ...
    Warning! Orbitals are not semi-canonicalized!
    Off-Diagonal norms of the core, active, virtual blocks of Fock matrix
                  core          active         virtual
    ---------------------------------------------------
    Fa    0.0000000000    0.0104263021    0.2477245116
    Fb    0.0000000000    0.0104263021    0.2477245116
    ---------------------------------------------------

    Orbital invariant formalism is employed for DSRG-MRPT2.

  ==> Computing DSRG-MRPT2 ... <==

    Computing T2 amplitudes                  ...  Done. Timing        0.473465 s
    Computing T1 amplitudes                  ...  Done. Timing        0.022347 s
    Renormalizing two-electron integrals     ...  Done. Timing        0.494985 s
    Renormalizing Fock matrix elements       ...  Done. Timing        0.029973 s
    Computing <[F, T1]>                      ...  Done. Timing        0.001543 s
    Computing <[F, T2]>                      ...  Done. Timing        0.005138 s
    Computing <[V, T1]>                      ...  Done. Timing        0.005126 s
    Computing <[V, T2]> (C_2)^4              ...  Done. Timing        0.031141 s
    Computing <[V, T2]> C_4 (C_2)^2 HH       ...  Done. Timing        0.005632 s
    Computing <[V, T2]> C_4 (C_2)^2 PP       ...  Done. Timing        0.008834 s
    Computing <[V, T2]> C_4 (C_2)^2 PH       ...  Done. Timing        0.032173 s
    Computing <[V, T2]> C_6 C_2              ...  Done. Timing        0.115797 s

  ==> Excitation Amplitudes Summary <==

    Active Indices:    1    2    3   19   20   27   28 
    Largest T1 amplitudes for spin case A:
       i       a                  i       a                  i       a               
    --------------------------------------------------------------------------------
    [ 19      25    ]-0.035036 [ 27      33    ]-0.035036 [ 19      23    ] 0.021291 
    [ 27      31    ] 0.021291 [  0      13    ] 0.018461 [  0       8    ]-0.014501 
    [  1      12    ]-0.014163 [  0       9    ] 0.012473 [ 27      30    ]-0.006319 
    [ 19      22    ]-0.006319 [  1       9    ]-0.005791 [  1       8    ]-0.003901 
    [  1       6    ] 0.003722 [  0       6    ]-0.003077 [  0       5    ] 0.002941 
    --------------------------------------------------------------------------------
    Norm of T1A vector: (nonzero elements: 75)                    0.066842826187072.
    --------------------------------------------------------------------------------
    Largest T1 amplitudes for spin case B:
       _       _                  _       _                  _       _               
       i       a                  i       a                  i       a               
    --------------------------------------------------------------------------------
    [ 19      25    ]-0.035036 [ 27      33    ]-0.035036 [ 19      23    ] 0.021291 
    [ 27      31    ] 0.021291 [  0      13    ] 0.018461 [  0       8    ]-0.014501 
    [  1      12    ]-0.014163 [  0       9    ] 0.012473 [ 27      30    ]-0.006319 
    [ 19      22    ]-0.006319 [  1       9    ]-0.005791 [  1       8    ]-0.003901 
    [  1       6    ] 0.003722 [  0       6    ]-0.003077 [  0       5    ] 0.002941 
    --------------------------------------------------------------------------------
    Norm of T1B vector: (nonzero elements: 75)                    0.066842826187072.
    --------------------------------------------------------------------------------
    Largest T2 amplitudes for spin case AA:
       i   j   a   b              i   j   a   b              i   j   a   b           
    --------------------------------------------------------------------------------
    [  1  27  12  27] 0.074684 [  1  19  12  19] 0.074684 [ 19  27  25  27] 0.070813 
    [ 19  27  19  33] 0.070813 [  1  27   1  33] 0.068330 [  1  19   1  25] 0.068330 
    [ 19  27  23  27]-0.042380 [ 19  27  19  31]-0.042380 [  1  19   1  23]-0.041241 
    [  1  27   1  31]-0.041241 [  0  27  13  27]-0.035079 [  0  19  13  19]-0.035079 
    [  0   1   1  13] 0.033902 [  0  19   8  19] 0.027156 [  0  27   8  27] 0.027156 
    --------------------------------------------------------------------------------
    Norm of T2AA vector: (nonzero elements: 18639)                0.485105158696731.
    --------------------------------------------------------------------------------
    Largest T2 amplitudes for spin case AB:
           _       _                  _       _                  _       _           
       i   j   a   b              i   j   a   b              i   j   a   b           
    --------------------------------------------------------------------------------
    [  1   1   1  12] 0.084916 [ 27  27  27  33] 0.084075 [ 19  19  19  25] 0.084075 
    [  1  27  12  27] 0.079460 [  1  19  12  19] 0.079460 [  0   0  19  19]-0.076415 
    [  0   0  27  27]-0.076415 [ 19  27  25  27] 0.075234 [ 19  27  19  33] 0.075234 
    [  1  27   1  33] 0.072295 [  1  19   1  25] 0.072295 [  0   0   1   1]-0.064731 
    [ 19  19  19  23]-0.052617 [ 27  27  27  31]-0.052617 [ 19  27  23  27]-0.045792 
    --------------------------------------------------------------------------------
    Norm of T2AB vector: (nonzero elements: 19007)                0.500753141467370.
    --------------------------------------------------------------------------------
    Largest T2 amplitudes for spin case BB:
       _   _   _   _              _   _   _   _              _   _   _   _           
       i   j   a   b              i   j   a   b              i   j   a   b           
    --------------------------------------------------------------------------------
    [  1  27  12  27] 0.074684 [  1  19  12  19] 0.074684 [ 19  27  25  27] 0.070813 
    [ 19  27  19  33] 0.070813 [  1  27   1  33] 0.068330 [  1  19   1  25] 0.068330 
    [ 19  27  23  27]-0.042380 [ 19  27  19  31]-0.042380 [  1  19   1  23]-0.041241 
    [  1  27   1  31]-0.041241 [  0  27  13  27]-0.035079 [  0  19  13  19]-0.035079 
    [  0   1   1  13] 0.033902 [  0  27   8  27] 0.027156 [  0  19   8  19] 0.027156 
    --------------------------------------------------------------------------------
    Norm of T2BB vector: (nonzero elements: 18639)                0.485105158696731.
    --------------------------------------------------------------------------------

  ==> Possible Intruders <==

    T1 amplitudes larger than 0.1000 for spin case A: NULL
    T1 amplitudes larger than 0.1000 for spin case B: NULL
    T2 amplitudes larger than 0.1000 for spin case AA: NULL
    T2 amplitudes larger than 0.1000 for spin case AB: NULL
    T2 amplitudes larger than 0.1000 for spin case BB: NULL

  ==> DSRG-MRPT2 Energy Summary <==

    E0 (reference)                 =   -106.771764749532153
    <[F, T1]>                      =     -0.026881547094285
    <[F, T2]>                      =     -0.002526963879712
    <[V, T1]>                      =     -0.002526739744681
    <[V, T2]> (C_2)^4              =     -0.237807060992486
    <[V, T2]> C_4 (C_2)^2 HH       =      0.002832637703295
    <[V, T2]> C_4 (C_2)^2 PP       =      0.014400755419497
    <[V, T2]> C_4 (C_2)^2 PH       =      0.040365051063513
    <[V, T2]> C_6 C_2              =      0.000006740025301
    <[V, T2]>                      =     -0.180201876780880
    DSRG-MRPT2 correlation energy  =     -0.212137127499559
    DSRG-MRPT2 total energy        =   -106.983901877031713
    max(T1)                        =      0.035035958967443
    max(T2)                        =      0.084916480358807
    ||T1||                         =      0.094530031341104
    ||T2||                         =      1.213947636739789

  Energy took      1.299 s


  ==> Compute Couplings with State 1 <==

    Computing coupling of <0|HT|1>           ...  Done. Timing        0.127941 s

  ==> Effective Hamiltonian Summary <==

  ## Heff Singlet A1 (Symmetry 0) ##
  Irrep: 1 Size: 2 x 2

                 1                   2

    1  -106.98574001114346     0.00496890026317
    2     0.00505352321524  -106.98390187703171



  ## Heff (Symmetrized) Singlet A1 (Symmetry 0) ##
  Irrep: 1 Size: 2 x 2

                 1                   2

    1  -106.98574001114346     0.00501121173921
    2     0.00501121173921  -106.98390187703171



  ## U of Heff (Symmetrized) with eigenvalues ##
 Irrep: 1

           1           2

    1  -0.7682426  -0.6401588
    2   0.6401588  -0.7682426

     -106.9899157-106.9797261



  ==> Multi-State DSRG-MRPT2 Energy Summary <==

    Multi.  Irrep.  No.    DSRG-MRPT2 Energy
    -----------------------------------------
       1      A1     0      -106.989915738229
       1      A1     1      -106.979726149946
    -----------------------------------------

  ==> Total Timings (s) for Computing Commutators <==

             [H1, T1]    [H1, T2]    [H2, T1]    [H2, T2]
    -----------------------------------------------------
    -> C0       0.003       0.010       0.010       0.382
    -> C1       0.000       0.000       0.000       0.000
    -> C2                   0.000       0.000       0.000
    -----------------------------------------------------


  Your calculation took 4.62581400 seconds
   => Loading Basis Set <=

    Name: STO-3G
    Role: ORBITAL
    Keyword: MINAO_BASIS
    atoms 1 entry LI         line    31 file /Users/york/src/psi4new/psi4/share/psi4/basis/sto-3g.gbs 
    atoms 2 entry F          line    91 file /Users/york/src/psi4new/psi4/share/psi4/basis/sto-3g.gbs 


Reading options from the FORTE block
Calling plugin forte.so.




  ==> MO Space Information <==

  Read options for space FROZEN_DOCC
  Read options for space RESTRICTED_DOCC
  Read options for space ACTIVE
 Removing orbital 0
 Removing orbital 1
  -------------------------------------------------
                       A1    A2    B1    B2   Sum
  -------------------------------------------------
    FROZEN_DOCC         2     0     0     0     2
    RESTRICTED_DOCC     1     0     0     0     1
    ACTIVE              3     0     2     2     7
    RESTRICTED_UOCC    12     3     6     6    27
    FROZEN_UOCC         0     0     0     0     0
    Total              18     3     8     8    37
  -------------------------------------------------

  ==> Integral Transformation <==

  Number of molecular orbitals:               37
  Number of correlated molecular orbitals:    35
  Number of frozen occupied orbitals:          2
  Number of frozen unoccupied orbitals:        0


  Overall Conventional Integrals timings

   (n = 4): 0  0  0  0  
  SOs per irrep (n = 4): 18  3  8  8  
  Frozen core orbitals per irrep (n = 4): 0  0  0  0  
  Frozen core orbitals per irrep (n = 4): 18  3  8  8  
	Presorting SO-basis two-electron integrals.
	Sorting File: SO Ints (nn|nn) nbuckets = 1
	Transforming the one-electron integrals and constructing Fock matrices
	Starting first half-transformation.
	Sorting half-transformed integrals.
	First half integral transformation complete.
	Starting second half-transformation.
	Two-electron integral transformation complete.

  Integral transformation done. 0.03818700 s
  Reading the two-electron integrals from disk
  Size of two-electron integrals:   0.041891 GB
  Frozen-core energy            -84.713599407175 a.u.

  FrozenOneBody Operator takes  0.08550500 s
  Resorting integrals after freezing core.
  Conventional integrals take 0.38523700 s

              ---------------------------------------------------
                Complete Active Space Configuration Interaction
                                  Chenyang Li
              ---------------------------------------------------


  ==> Input Summary <==

    number of atoms                =     2
    number of electrons            =    12
    molecular charge               =     0
    number of alpha electrons      =     6
    number of beta electrons       =     6
    multiplicity                   =     1
    ms (2 * Sz)                    =     0
    number of molecular orbitals   =    37

  ==> Orbital Spaces <==

    TOTAL MO                      [   18     3     8     8 ]
    FROZEN CORE                   [    2     0     0     0 ]
    FROZEN VIRTUAL                [    0     0     0     0 ]
    CORRELATED MO                 [   16     3     8     8 ]
    CORE                          [    1     0     0     0 ]
    ACTIVE                        [    3     0     2     2 ]
    VIRTUAL                       [   12     3     6     6 ]

  ==> State Averaging Summary <==

    Irrep.  Multi.  Nstates      Weights
    ------------------------------------
      A1       1        2    0.500 0.500
    ------------------------------------
    Total number of states: 2
    ------------------------------------

  Forming alpha and beta strings      ...  Done. Timing        0.000098 s
  Forming determinants                ...  Done. Timing        0.000129 s

  ==> Determinants Summary <==

    number of alpha active electrons    =     3
    number of beta active electrons     =     3
    root symmetry (zero based)          =     0
    number of determinants              =   321

  Diagonalizing Hamiltonian           ...
  Time spent building a_list   0.001193 s
  Time spent building b_list   0.001277 s
  Time spent building aa_list  0.002458 s
  Time spent building bb_list  0.001663 s
 Memory for AB_ann: 0.017 MB
  Time spent building ab_list  0.002813 s

  Davidson-Liu solver algorithm
  Using SPARSE sigma builder
  Initial guess space is incomplete.
  Trying to add 25 determinant(s).  25 determinant(s) added.
  Initial guess found 89 solutions with 2S+1 = 1 *
  Initial guess found 103 solutions with 2S+1 = 3  
  Initial guess found 30 solutions with 2S+1 = 5  
  Initial guess found 3 solutions with 2S+1 = 7  
  Adding guess 0 (multiplicity = 1.000000)
  Adding guess 1 (multiplicity = 1.000000)
  Adding guess 2 (multiplicity = 1.000000)
  Adding guess 3 (multiplicity = 1.000000)

  ==> Diagonalizing Hamiltonian <==

  ----------------------------------------
    Iter.      Avg. Energy       Delta_E
  ----------------------------------------
      1      -97.331220979499  -9.733e+01
      2      -97.331220979499  -5.542e-13
  ----------------------------------------
  The Davidson-Liu algorithm converged in 3 iterations.
  Davidson-Liu procedure took  0.109430 s  Done. Timing        0.121155 s

  * * * * * * * * * * * * * * * * *
  *  CI Vectors & Configurations  *
  * * * * * * * * * * * * * * * * *

  ==> Root No. 0 <==

    ba0 20 20          0.6992227066
    ab0 20 20          0.6992227066
    200 20 20          0.1460778802

    Total Energy:   -106.772573835155413


  ==> Root No. 1 <==

    200 20 20          0.9609078851
    b0a 20 20          0.1530225597
    a0b 20 20          0.1530225597
    ba0 20 20         -0.1034192683
    ab0 20 20         -0.1034192683

    Total Energy:   -106.735798150965877



  ==> Permanent Dipole Moments (A1) <==

  Only print nonzero (> 1.0e-5) elements.
  Permanent dipole moments (a.u.) 0 -> 0:  X:  0.0000  Y:  0.0000  Z: -0.2189  Total:  0.2189
  Permanent dipole moments (a.u.) 1 -> 1:  X:  0.0000  Y:  0.0000  Z: -8.9753  Total:  8.9753


  ==> Transition Dipole Moments (A1 -> A1) <==

  Only print nonzero (> 1.0e-5) elements.
  Transition dipole moments (a.u.) 0 -> 1:  X:  0.0000  Y:  0.0000  Z: -1.7577  Total:  1.7577


  ==> Oscillator Strength (A1 -> A1) <==

  Only print nonzero (> 1.0e-5) elements.
  Oscillator strength (a.u.) 0 -> 1:  X:  0.0000  Y:  0.0000  Z:  0.0757  Total:  0.0757

  Total Energy (averaged over 2 states): -106.754185993060645

  Forming generalized Fock matrix     ...  Done. Timing        0.001928 s
  Checking Fock matrices (Fa, Fb)     ...
  Nonzero criteria: > 1.00E-10
  Fa_CORE    block is diagonal.
  Fb_CORE    block is diagonal.
  Warning: Fa_ACTIVE  NOT diagonal!
  Nonzero off-diagonal:    10. Largest value:  0.012102651267105
  Warning: Fb_ACTIVE  NOT diagonal!
  Nonzero off-diagonal:    10. Largest value:  0.012102651267105
  Warning: Fa_VIRTUAL NOT diagonal!
  Nonzero off-diagonal:   144. Largest value:  0.003544789647891
  Warning: Fb_VIRTUAL NOT diagonal!
  Nonzero off-diagonal:   144. Largest value:  0.003544789647891
  Done checking Fock matrices.                   Timing        0.000066 s

  Use semi-canonical orbitals.

  Diagonalizing Fock                  ...  Done. Timing        0.000168 s



 Integrals are about to be computed.   (n = 4): 0  0  0  0  
  SOs per irrep (n = 4): 18  3  8  8  
  Frozen core orbitals per irrep (n = 4): 0  0  0  0  
  Frozen core orbitals per irrep (n = 4): 18  3  8  8  
	Presorting SO-basis two-electron integrals.
	Sorting File: SO Ints (nn|nn) nbuckets = 1
	Transforming the one-electron integrals and constructing Fock matrices
	Starting first half-transformation.
	Sorting half-transformed integrals.
	First half integral transformation complete.
	Starting second half-transformation.
	Two-electron integral transformation complete.

  Integral transformation done. 0.03618100 s
  Reading the two-electron integrals from disk
  Size of two-electron integrals:   0.041891 GB
 Integrals are about to be updated.
  Frozen-core energy            -84.713599407175 a.u.

  FrozenOneBody Operator takes  0.08283100 s
  Resorting integrals after freezing core.
  Frozen Orbitals takes     0.164 s.
  Forming alpha and beta strings      ...  Done. Timing        0.000087 s
  Forming determinants                ...  Done. Timing        0.000119 s

  ==> Determinants Summary <==

    number of alpha active electrons    =     3
    number of beta active electrons     =     3
    root symmetry (zero based)          =     0
    number of determinants              =   321

  Diagonalizing Hamiltonian           ...
  Time spent building a_list   0.001383 s
  Time spent building b_list   0.001223 s
  Time spent building aa_list  0.001048 s
  Time spent building bb_list  0.001167 s
 Memory for AB_ann: 0.017 MB
  Time spent building ab_list  0.002687 s

  Davidson-Liu solver algorithm
  Using SPARSE sigma builder
  Initial guess space is incomplete.
  Trying to add 13 determinant(s).  13 determinant(s) added.
  Initial guess found 85 solutions with 2S+1 = 1 *
  Initial guess found 97 solutions with 2S+1 = 3  
  Initial guess found 28 solutions with 2S+1 = 5  
  Initial guess found 3 solutions with 2S+1 = 7  
  Adding guess 0 (multiplicity = 1.000000)
  Adding guess 1 (multiplicity = 1.000000)
  Adding guess 2 (multiplicity = 1.000000)
  Adding guess 3 (multiplicity = 1.000000)

  ==> Diagonalizing Hamiltonian <==

  ----------------------------------------
    Iter.      Avg. Energy       Delta_E
  ----------------------------------------
      1      -97.331220979489  -9.733e+01
      2      -97.331220979499  -1.046e-11
  ----------------------------------------
  The Davidson-Liu algorithm converged in 3 iterations.
  Davidson-Liu procedure took  0.085344 s  Done. Timing        0.095307 s

  * * * * * * * * * * * * * * * * *
  *  CI Vectors & Configurations  *
  * * * * * * * * * * * * * * * * *

  ==> Root No. 0 <==

    ba0 20 20          0.6920313777
    ab0 20 20          0.6920313777
    200 20 20         -0.1530457791
    b0a 20 20          0.0911659507
    a0b 20 20          0.0911659507

    Total Energy:   -106.772573835155086


  ==> Root No. 1 <==

    200 20 20         -0.9671204522
    ba0 20 20         -0.1227651011
    ab0 20 20         -0.1227651011
    b0a 20 20          0.1164954168
    a0b 20 20          0.1164954168

    Total Energy:   -106.735798150965877



  ==> Permanent Dipole Moments (A1) <==

  Only print nonzero (> 1.0e-5) elements.
  Permanent dipole moments (a.u.) 0 -> 0:  X:  0.0000  Y:  0.0000  Z: -0.2189  Total:  0.2189
  Permanent dipole moments (a.u.) 1 -> 1:  X:  0.0000  Y:  0.0000  Z: -8.9753  Total:  8.9753


  ==> Transition Dipole Moments (A1 -> A1) <==

  Only print nonzero (> 1.0e-5) elements.
  Transition dipole moments (a.u.) 0 -> 1:  X:  0.0000  Y:  0.0000  Z: -1.7577  Total:  1.7577


  ==> Oscillator Strength (A1 -> A1) <==

  Only print nonzero (> 1.0e-5) elements.
  Oscillator strength (a.u.) 0 -> 1:  X:  0.0000  Y:  0.0000  Z:  0.0757  Total:  0.0757

  Total Energy (averaged over 2 states): -106.754185993060474

  Forming generalized Fock matrix     ...  Done. Timing        0.002174 s
  Checking Fock matrices (Fa, Fb)     ...
  Nonzero criteria: > 1.00E-10
  Fa_CORE    block is diagonal.
  Fb_CORE    block is diagonal.
  Warning: Fa_ACTIVE  NOT diagonal!
  Nonzero off-diagonal:     4. Largest value:  0.000000000113984
  Warning: Fb_ACTIVE  NOT diagonal!
  Nonzero off-diagonal:     4. Largest value:  0.000000000113984
  Fa_VIRTUAL block is diagonal.
  Fb_VIRTUAL block is diagonal.
  Done checking Fock matrices.                   Timing        0.000044 s


              ----------------------------------------------------
                 Driven Similarity Renormalization Group MBPT2
                Chenyang Li, Kevin Hannon, Francesco Evangelista
              ----------------------------------------------------

    Reference:
      J. Chem. Theory Comput. 2015, 11, 2097-2108.

  ==> Calculation Information <==

    ntamp                                                 15
    flow parameter                                 5.000e-01
    taylor expansion threshold                     1.000e-03
    intruder_tamp                                  1.000e-01
    int_type                                    CONVENTIONAL
    source operator                                 STANDARD
    reference relaxation                                ONCE
[...]
  Frozen core orbitals per irrep (n = 4): 18  3  8  8  
	Presorting SO-basis two-electron integrals.
	Sorting File: SO Ints (nn|nn) nbuckets = 1
	Transforming the one-electron integrals and constructing Fock matrices
	Starting first half-transformation.
	Sorting half-transformed integrals.
	First half integral transformation complete.
	Starting second half-transformation.
	Two-electron integral transformation complete.

  Integral transformation done. 0.03526200 s
  Reading the two-electron integrals from disk
  Size of two-electron integrals:   0.041891 GB
 Integrals are about to be updated.
  Frozen-core energy            -84.713599407175 a.u.

  FrozenOneBody Operator takes  0.08560000 s
  Resorting integrals after freezing core.
  Frozen Orbitals takes     0.175 s.
  Forming alpha and beta strings      ...  Done. Timing        0.000079 s
  Forming determinants                ...  Done. Timing        0.000120 s

  ==> Determinants Summary <==

    number of alpha active electrons    =     3
    number of beta active electrons     =     3
    root symmetry (zero based)          =     0
    number of determinants              =   321

  Diagonalizing Hamiltonian           ...
  Time spent building a_list   0.002414 s
  Time spent building b_list   0.001751 s
  Time spent building aa_list  0.001048 s
  Time spent building bb_list  0.001055 s
 Memory for AB_ann: 0.017 MB
  Time spent building ab_list  0.002730 s

  Davidson-Liu solver algorithm
  Using SPARSE sigma builder
  Initial guess space is incomplete.
  Trying to add 13 determinant(s).  13 determinant(s) added.
  Initial guess found 85 solutions with 2S+1 = 1 *
  Initial guess found 97 solutions with 2S+1 = 3  
  Initial guess found 28 solutions with 2S+1 = 5  
  Initial guess found 3 solutions with 2S+1 = 7  
  Adding guess 0 (multiplicity = 1.000000)
  Adding guess 1 (multiplicity = 1.000000)
  Adding guess 2 (multiplicity = 1.000000)
  Adding guess 3 (multiplicity = 1.000000)

  ==> Diagonalizing Hamiltonian <==

  ----------------------------------------
    Iter.      Avg. Energy       Delta_E
  ----------------------------------------
      1      -97.331220979489  -9.733e+01
      2      -97.331220979499  -1.047e-11
  ----------------------------------------
  The Davidson-Liu algorithm converged in 3 iterations.
  Davidson-Liu procedure took  0.080302 s  Done. Timing        0.091684 s

  * * * * * * * * * * * * * * * * *
  *  CI Vectors & Configurations  *
  * * * * * * * * * * * * * * * * *

  ==> Root No. 0 <==

    ba0 20 20          0.6920313777
    ab0 20 20          0.6920313777
    200 20 20          0.1530457792
    b0a 20 20          0.0911659507
    a0b 20 20          0.0911659507

    Total Energy:   -106.772573835155058


  ==> Root No. 1 <==

    200 20 20          0.9671204523
    ba0 20 20         -0.1227651012
    ab0 20 20         -0.1227651012
    b0a 20 20          0.1164954167
    a0b 20 20          0.1164954167

    Total Energy:   -106.735798150966033



  ==> Permanent Dipole Moments (A1) <==

  Only print nonzero (> 1.0e-5) elements.
  Permanent dipole moments (a.u.) 0 -> 0:  X:  0.0000  Y:  0.0000  Z: -0.2189  Total:  0.2189
  Permanent dipole moments (a.u.) 1 -> 1:  X:  0.0000  Y:  0.0000  Z: -8.9753  Total:  8.9753


  ==> Transition Dipole Moments (A1 -> A1) <==

  Only print nonzero (> 1.0e-5) elements.
  Transition dipole moments (a.u.) 0 -> 1:  X:  0.0000  Y:  0.0000  Z: -1.7577  Total:  1.7577


  ==> Oscillator Strength (A1 -> A1) <==

  Only print nonzero (> 1.0e-5) elements.
  Oscillator strength (a.u.) 0 -> 1:  X:  0.0000  Y:  0.0000  Z:  0.0757  Total:  0.0757

  Total Energy (averaged over 2 states): -106.754185993060545

  Forming generalized Fock matrix     ...  Done. Timing        0.001656 s
  Checking Fock matrices (Fa, Fb)     ...
  Nonzero criteria: > 1.00E-10
  Fa_CORE    block is diagonal.
  Fb_CORE    block is diagonal.
  Fa_ACTIVE  block is diagonal.
  Fb_ACTIVE  block is diagonal.
  Fa_VIRTUAL block is diagonal.
  Fb_VIRTUAL block is diagonal.
  Done checking Fock matrices.                   Timing        0.000039 s


              ----------------------------------------------------
                 Driven Similarity Renormalization Group MBPT2
                Chenyang Li, Kevin Hannon, Francesco Evangelista
              ----------------------------------------------------

    Reference:
      J. Chem. Theory Comput. 2015, 11, 2097-2108.

  ==> Calculation Information <==

    ntamp                                                 15
    flow parameter                                 5.000e-01
    taylor expansion threshold                     1.000e-03
    intruder_tamp                                  1.000e-01
    int_type                                    CONVENTIONAL
    source operator                                 STANDARD
    reference relaxation                                ONCE
    state_type                                   MULTI-STATE
    multi-state type                                 SA_FULL
    form Hbar3                                         FALSE

  ==> Checking Orbitals <==

    Checking if orbitals are semi-canonicalized ...     OK.
    Orbitals are semi-canonicalized.

  ==> Computing DSRG-MRPT2 ... <==

    Computing T2 amplitudes                  ...  Done. Timing        0.049574 s
    Computing T1 amplitudes                  ...  Done. Timing        0.004649 s
    Renormalizing two-electron integrals     ...  Done. Timing        0.048912 s
    Renormalizing Fock matrix elements       ...  Done. Timing        0.004861 s
    Computing <[F, T1]>                      ...  Done. Timing        0.001747 s
    Computing <[F, T2]>                      ...  Done. Timing        0.005065 s
    Computing <[V, T1]>                      ...  Done. Timing        0.004736 s
    Computing <[V, T2]> (C_2)^4              ...  Done. Timing        0.029419 s
    Computing <[V, T2]> C_4 (C_2)^2 HH       ...  Done. Timing        0.005440 s
    Computing <[V, T2]> C_4 (C_2)^2 PP       ...  Done. Timing        0.008818 s
    Computing <[V, T2]> C_4 (C_2)^2 PH       ...  Done. Timing        0.032129 s
    Computing <[V, T2]> C_6 C_2              ...  Done. Timing        0.113396 s

  ==> Excitation Amplitudes Summary <==

    Active Indices:    1    2    3   19   20   27   28 
    Largest T1 amplitudes for spin case A:
       i       a                  i       a                  i       a               
    --------------------------------------------------------------------------------
    [  1      12    ]-0.005138 [ 19      25    ]-0.002617 [ 27      33    ]-0.002617 
    [  1       9    ] 0.001954 [  1       6    ]-0.001702 [  1       8    ]-0.001619 
    [  0      13    ] 0.001403 [ 19      23    ]-0.001260 [ 27      31    ]-0.001260 
    [  0       8    ] 0.001168 [  2       5    ]-0.001065 [  0       1    ]-0.000981 
    [  2      12    ]-0.000954 [  0       9    ] 0.000815 [  2       4    ]-0.000733 
    --------------------------------------------------------------------------------
    Norm of T1A vector: (nonzero elements: 63)                    0.007876012134256.
    --------------------------------------------------------------------------------
    Largest T1 amplitudes for spin case B:
       _       _                  _       _                  _       _               
       i       a                  i       a                  i       a               
    --------------------------------------------------------------------------------
    [  1      12    ]-0.005138 [ 19      25    ]-0.002617 [ 27      33    ]-0.002617 
    [  1       9    ] 0.001954 [  1       6    ]-0.001702 [  1       8    ]-0.001619 
    [  0      13    ] 0.001403 [ 19      23    ]-0.001260 [ 27      31    ]-0.001260 
    [  0       8    ] 0.001168 [  2       5    ]-0.001065 [  0       1    ]-0.000981 
    [  2      12    ]-0.000954 [  0       9    ] 0.000815 [  2       4    ]-0.000733 
    --------------------------------------------------------------------------------
    Norm of T1B vector: (nonzero elements: 63)                    0.007876012134256.
    --------------------------------------------------------------------------------
    Largest T2 amplitudes for spin case AA:
       i   j   a   b              i   j   a   b              i   j   a   b           
    --------------------------------------------------------------------------------
    [  1  27  12  27]-0.073404 [  1  19  12  19]-0.073404 [ 19  27  25  27] 0.071671 
    [ 19  27  19  33] 0.071671 [  1  27   1  33] 0.069017 [  1  19   1  25] 0.069017 
    [ 19  27  23  27] 0.036101 [ 19  27  19  31] 0.036101 [  1  19   1  23] 0.035062 
    [  1  27   1  31] 0.035062 [  0  27  13  27]-0.035028 [  0  19  13  19]-0.035028 
    [  0   1   1  13] 0.033742 [  0  19   8  19]-0.028115 [  0  27   8  27]-0.028115 
    --------------------------------------------------------------------------------
    Norm of T2AA vector: (nonzero elements: 14604)                0.477648276430179.
    --------------------------------------------------------------------------------
    Largest T2 amplitudes for spin case AB:
           _       _                  _       _                  _       _           
       i   j   a   b              i   j   a   b              i   j   a   b           
    --------------------------------------------------------------------------------
    [ 27  27  27  33] 0.085087 [ 19  19  19  25] 0.085087 [  1   1   1  12]-0.083303 
    [  1  27  12  27]-0.078103 [  1  19  12  19]-0.078103 [  0   0  27  27]-0.076411 
    [  0   0  19  19]-0.076411 [ 19  27  25  27] 0.076143 [ 19  27  19  33] 0.076143 
    [  1  27   1  33] 0.073018 [  1  19   1  25] 0.073018 [  0   0   1   1]-0.069979 
    [ 19  19  19  23] 0.044814 [ 27  27  27  31] 0.044814 [  0  27  13  27]-0.041567 
    --------------------------------------------------------------------------------
    Norm of T2AB vector: (nonzero elements: 17855)                0.494238539844481.
    --------------------------------------------------------------------------------
    Largest T2 amplitudes for spin case BB:
       _   _   _   _              _   _   _   _              _   _   _   _           
       i   j   a   b              i   j   a   b              i   j   a   b           
    --------------------------------------------------------------------------------
    [  1  27  12  27]-0.073404 [  1  19  12  19]-0.073404 [ 19  27  25  27] 0.071671 
    [ 19  27  19  33] 0.071671 [  1  27   1  33] 0.069017 [  1  19   1  25] 0.069017 
    [ 19  27  23  27] 0.036101 [ 19  27  19  31] 0.036101 [  1  19   1  23] 0.035062 
    [  1  27   1  31] 0.035062 [  0  27  13  27]-0.035028 [  0  19  13  19]-0.035028 
    [  0   1   1  13] 0.033742 [  0  19   8  19]-0.028115 [  0  27   8  27]-0.028115 
    --------------------------------------------------------------------------------
    Norm of T2BB vector: (nonzero elements: 14604)                0.477648276430179.
    --------------------------------------------------------------------------------

  ==> Possible Intruders <==

    T1 amplitudes larger than 0.1000 for spin case A: NULL
    T1 amplitudes larger than 0.1000 for spin case B: NULL
    T2 amplitudes larger than 0.1000 for spin case AA: NULL
    T2 amplitudes larger than 0.1000 for spin case AB: NULL
    T2 amplitudes larger than 0.1000 for spin case BB: NULL

  ==> DSRG-MRPT2 Energy Summary <==

    E0 (reference)                 =   -106.754185993060545
    <[F, T1]>                      =     -0.000345301241965
    <[F, T2]>                      =      0.000293904290784
    <[V, T1]>                      =      0.000300891968822
    <[V, T2]> (C_2)^4              =     -0.246574894603199
    <[V, T2]> C_4 (C_2)^2 HH       =      0.000911300097729
    <[V, T2]> C_4 (C_2)^2 PP       =      0.002971826784593
    <[V, T2]> C_4 (C_2)^2 PH       =      0.010722939969947
    <[V, T2]> C_6 C_2              =      0.000099207725749
    <[V, T2]>                      =     -0.231869620025182
    DSRG-MRPT2 correlation energy  =     -0.231620125007540
    DSRG-MRPT2 total energy        =   -106.985806118068083
    max(T1)                        =      0.005138439998431
    max(T2)                        =      0.085086550651157
    ||T1||                         =      0.011138363177680
    ||T2||                         =      1.197239612201275

  Energy took      0.373 s


  ==> De-Normal-Order the DSRG Transformed Hamiltonian <==

    Computing the scalar term   ...      Done. Timing      0.002 s
    Computing the one-body term ...      Done. Timing      0.001 s
    Updating integrals          ...      Done. Timing      0.003 s

  ==> Scalar of the DSRG Hamiltonian (WRT True Vacuum) <==

    Scalar0                        =    -24.972206710892976
    Scalar1                        =      2.179755530193905
    Scalar2                        =      7.836158005355725
    Total Scalar W/O Frozen-Core   =    -14.956293175343347
    Total Scalar W/  Frozen-Core   =    -99.669892582518457

  ==> Test De-Normal-Ordered Hamiltonian <==

    One-Body Energy (after)        =     -9.929159339617685
    Two-Body Energy (after)        =     -0.086754195931944
    Total Energy (after)           =   -106.985806118068083
    Total Energy (before)          =   -106.985806118068083
  Frozen Orbitals takes     0.000 s.

  ==> Diagonalize Effective Hamiltonian (Singlet A1) <==

    Use string FCI code.

  ==> String Lists <==

  Number of alpha electrons     = 3
  Number of beta electrons      = 3
  Number of alpha strings       = 35
  Number of beta strings        = 35
  Number of alpha strings (N-3) = 1
  Number of beta strings (N-3)  = 1
  Timing for strings        =      0.000 s
  Timing for NN strings     =      0.000 s
  Timing for VO strings     =      0.002 s
  Timing for OO strings     =      0.000 s
  Timing for Knowles-Handy  =      0.000 s
  Timing for VVOO strings   =      0.002 s
  Timing for VOVO strings   =      0.000 s
  Timing for 1-hole strings =      0.000 s
  Timing for 2-hole strings =      0.000 s
  Timing for 3-hole strings =      0.001 s
  Total timing              =      0.004 s

  ==> FCI Solver <==

    Number of determinants                         321
    Symmetry                                         0
    Multiplicity                                     1
    Number of roots                                  1
    Target root                                      0
    Trial vectors per root                          10

  Allocating memory for the Hamiltonian algorithm. Size: 2 x 12 x 12.   Memory: 0.000002 GB

  ==> FCI Initial Guess <==

  ---------------------------------------------
    Root            Energy     <S^2>   Spin
  ---------------------------------------------
      0     -106.990571937995  0.000  singlet
      1     -106.984469351932  2.000  triplet
      2     -106.981190876293  0.000  singlet
      3     -106.939791776835  2.000  triplet
      4     -106.939668181862  2.000  triplet
      5     -106.939588087767  0.000  singlet
      6     -106.939271873550  0.000  singlet
      7     -106.909763694755  2.000  triplet
      8     -106.906580374899  0.000  singlet
      9     -106.448911398043  6.000  quintet
     10     -106.448774005740  6.000  quintet
     11     -106.447625203337  2.000  triplet
     12     -106.447606065074  2.000  triplet
     13     -106.447029809022  0.000  singlet
     14     -106.446944665695  0.000  singlet
     15     -106.392101065619  2.000  triplet
     16     -106.392039342709  2.000  triplet
     17     -106.371389528873  6.000  quintet
     18     -106.371245214685  6.000  quintet
     19     -106.369588363053  2.000  triplet
     20     -106.369581011099  2.000  triplet
     21     -106.368754963718  0.000  singlet
     22     -106.368749557103  0.000  singlet
     23     -106.366540549360  6.000  quintet
     24     -106.366331078317  2.000  triplet
     25     -106.366163466658  0.000  singlet
     26     -106.350106292943  2.000  triplet
     27     -106.350091508661  2.000  triplet
     28     -106.348656626591  2.000  triplet
     29     -106.344051270317  2.000  triplet
     30     -106.343982027351  2.000  triplet
     31     -106.307060674502  0.000  singlet
     32     -106.293837098183  0.000  singlet
     33     -106.293802714930  0.000  singlet
     34     -106.272320135563  2.000  triplet
     35     -106.272268080782  2.000  triplet
     36     -106.260186799176  2.000  triplet
     37     -106.246004928264  0.000  singlet
     38     -106.245954587907  0.000  singlet
     39     -106.242424046518  0.000  singlet
  ---------------------------------------------
  Timing for initial guess  =      0.046 s

  Projecting out root 1
  Projecting out root 3
  Projecting out root 4
  Projecting out root 7
  Projecting out root 9
  Projecting out root 10
  Projecting out root 11
  Projecting out root 12
  Projecting out root 15
  Projecting out root 16
  Projecting out root 17
  Projecting out root 18
  Projecting out root 19
  Projecting out root 20
  Projecting out root 23
  Projecting out root 24
  Projecting out root 26
  Projecting out root 27
  Projecting out root 28
  Projecting out root 29
  Projecting out root 30
  Projecting out root 34
  Projecting out root 35
  Projecting out root 36
  ==> Diagonalizing Hamiltonian <==

  ----------------------------------------
    Iter.      Avg. Energy       Delta_E
  ----------------------------------------
      1     -106.985881407144  -1.070e+02
      2     -106.986441650015  -5.602e-04
      3     -106.986447704274  -6.054e-06
      4     -106.986447835457  -1.312e-07
      5     -106.986447836373  -9.159e-10
      6     -106.986447836375  -2.458e-12
  ----------------------------------------
  The Davidson-Liu algorithm converged in 7 iterations.

  ==> Root No. 0 <==

    200 20 20     -0.80791409
    ba0 20 20     -0.40621525
    ab0 20 20     -0.40621525

    Total Energy:      -106.990992385757266

  ==> Root No. 1 <==

    200 20 20     -0.58125071
    ab0 20 20      0.57229807
    ba0 20 20      0.57229807

    Total Energy:      -106.981903286992662

  ==> Computing RDMs for Root No. 1 <==

    Timing for 1-RDM: 0.000 s

  ==> NATURAL ORBITALS <==

        1B2     1.999004      1B1     1.999004      1A1     1.763858  
        2A1     0.236143      2B1     0.000994      2B2     0.000994  
        3A1     0.000003  


  ==> Multi-State DSRG-MRPT2 Energy Summary <==

    Multi.  Irrep.  No.    DSRG-MRPT2 Energy
    -----------------------------------------
       1      A1     0      -106.990992385757
       1      A1     1      -106.981903286993
    -----------------------------------------

  ==> Total Timings (s) for Computing Commutators <==

             [H1, T1]    [H1, T2]    [H2, T1]    [H2, T2]
    -----------------------------------------------------
    -> C0       0.002       0.005       0.005       0.189
    -> C1       0.001       0.011       0.007       0.196
    -> C2                   0.012       0.010       0.081
    -----------------------------------------------------


  Your calculation took 2.24202400 seconds

  ==> Ground State Comparison <==

              Ref. Values        Real Values       Delta   
  ---------------------------------------------------------
  SA-SUB   -106.990277098987  -106.990277098991  -4.292e-12
  SA-FULL  -106.990992385754  -106.990992385757  -3.268e-12
  MS       -106.986872321455  -106.986872321460  -4.576e-12
  XMS      -106.989915738225  -106.989915738229  -4.491e-12
  ---------------------------------------------------------

	SA-DSRG-MRPT2 SUB energy root 0...................................PASSED
	SA-DSRG-MRPT2 FULL energy root 0..................................PASSED
	MS-DSRG-MRPT2 energy root 0.......................................PASSED
	XMS-DSRG-MRPT2 energy root 0......................................PASSED

*** Psi4 exiting successfully. Buy a developer a beer!
