    -----------------------------------------------------------------------
          Psi4: An Open-Source Ab Initio Electronic Structure Package
                              Psi4 0.1.233 Driver

                          Git: Rev {detached?} ced593a dirty

    J. M. Turney, A. C. Simmonett, R. M. Parrish, E. G. Hohenstein,
    F. A. Evangelista, J. T. Fermann, B. J. Mintz, L. A. Burns, J. J. Wilke,
    M. L. Abrams, N. J. Russ, M. L. Leininger, C. L. Janssen, E. T. Seidl,
    W. D. Allen, H. F. Schaefer, R. A. King, E. F. Valeev, C. D. Sherrill,
    and T. D. Crawford, WIREs Comput. Mol. Sci. 2, 556-565 (2012)
    (doi: 10.1002/wcms.93)

                         Additional Contributions by
    A. E. DePrince, M. Saitow, U. Bozkaya, A. Yu. Sokolov
    -----------------------------------------------------------------------


    Psi4 started on: 12-05-2015  03:24:49 PM EST

    Process ID:  98970
    PSI4DATADIR: /Users/kevinhannon/Programs/psi4cmake/psi4/lib
    Memory level set to 256.000 MB

  ==> Input File <==

--------------------------------------------------------------------------
#! Generated using commit GITCOMMIT
#! Perform a DF-DSRG-MRPT2 on the H4 molecule

import forte

refrhf       = -2.17907250154
refdsrgpt2   = -2.238709489537815

memory 500 mb

molecule H4{
  0 1
  H  0.0 0.0 0.0
  H  0.0 0.0 0.7
  H  0.0 1.4 0.0
  H  0.0 1.4 0.7
}

set globals{
   basis                   cc-pvdz
   df_basis_mp2            cc-pvdz-ri
   df_basis_scf            cc-pvdz-jkfit
   reference               rhf
   scf_type                df
   d_convergence           12
   e_convergence           15
   maxiter                 300
}

set forte{
   restricted_docc         [0,0,0,0,0,0,0,0]
   active                  [1,0,0,1,0,1,1,0]
   root_sym                0
   nroot                   1
   dsrg_s                  0.5
   threepdc                mk
   int_type                diskdf
   job_type                three-dsrg-mrpt2
}

scf = energy('scf')
compare_values(refrhf,scf,10,"SCF energy")
energy('forte')
compare_values(refdsrgpt2,get_variable("CURRENT ENERGY"),10,"DSRG-MRPT2 energy")

--------------------------------------------------------------------------
/Users/kevinhannon/Programs/forte/forte.so loaded.

  Memory set to 500.000 MiB by Python script.

*** tstart() called on Kevins-MacBook-Pro-2.local
*** at Sat Dec  5 15:24:49 2015


         ---------------------------------------------------------
                                   SCF
            by Justin Turney, Rob Parrish, and Andy Simmonett
                              RHF Reference
                        1 Threads,    500 MiB Core
         ---------------------------------------------------------

  ==> Geometry <==

    Molecular point group: d2h
    Full point group: D2h

    Geometry (in Angstrom), charge = 0, multiplicity = 1:

       Center              X                  Y                   Z       
    ------------   -----------------  -----------------  -----------------
           H          0.000000000000    -0.700000000000    -0.350000000000
           H          0.000000000000    -0.700000000000     0.350000000000
           H         -0.000000000000     0.700000000000    -0.350000000000
           H         -0.000000000000     0.700000000000     0.350000000000

  Running in d2h symmetry.

  Rotational constants: A =     34.13621  B =      8.53405  C =      6.82724 [cm^-1]
  Rotational constants: A = 1023377.76068  B = 255844.44017  C = 204675.55214 [MHz]
  Nuclear repulsion =    2.944060157129043

  Charge       = 0
  Multiplicity = 1
  Electrons    = 4
  Nalpha       = 2
  Nbeta        = 2

  ==> Algorithm <==

  SCF Algorithm Type is DF.
  DIIS enabled.
  MOM disabled.
  Fractional occupation disabled.
  Guess Type is CORE.
  Energy threshold   = 1.00e-15
  Density threshold  = 1.00e-12
  Integral threshold = 0.00e+00

  ==> Primary Basis <==

  Basis Set: CC-PVDZ
    Number of shells: 12
    Number of basis function: 20
    Number of Cartesian functions: 20
    Spherical Harmonics?: true
    Max angular momentum: 1

  ==> Pre-Iterations <==

   -------------------------------------------------------
    Irrep   Nso     Nmo     Nalpha   Nbeta   Ndocc  Nsocc
   -------------------------------------------------------
     Ag         4       4       0       0       0       0
     B1g        1       1       0       0       0       0
     B2g        1       1       0       0       0       0
     B3g        4       4       0       0       0       0
     Au         1       1       0       0       0       0
     B1u        4       4       0       0       0       0
     B2u        4       4       0       0       0       0
     B3u        1       1       0       0       0       0
   -------------------------------------------------------
    Total      20      20       2       2       2       0
   -------------------------------------------------------

 OEINTS: Overlap, kinetic, potential, dipole, and quadrupole integrals
         stored in file 35.

  ==> Integral Setup <==

  ==> DFJK: Density-Fitted J/K Matrices <==

    J tasked:                  Yes
    K tasked:                  Yes
    wK tasked:                  No
    OpenMP threads:              1
    Integrals threads:           1
    Memory (MB):               357
    Algorithm:                Core
    Integral Cache:           NONE
    Schwarz Cutoff:          1E-12
    Fitting Condition:       1E-12

   => Auxiliary Basis Set <=

  Basis Set: CC-PVDZ-JKFIT
    Number of shells: 36
    Number of basis function: 92
    Number of Cartesian functions: 100
    Spherical Harmonics?: true
    Max angular momentum: 2

  Minimum eigenvalue in the overlap matrix is 2.4975801198E-02.
  Using Symmetric Orthogonalization.
  SCF Guess: Core (One-Electron) Hamiltonian.

  ==> Iterations <==

                           Total Energy        Delta E     RMS |[F,P]|

   @DF-RHF iter   1:    -1.95292987017424   -1.95293e+00   6.19459e-02 
   @DF-RHF iter   2:    -2.17582780032457   -2.22898e-01   6.77175e-03 DIIS
   @DF-RHF iter   3:    -2.17904859752647   -3.22080e-03   6.61407e-04 DIIS
   @DF-RHF iter   4:    -2.17907233222067   -2.37347e-05   4.89893e-05 DIIS
   @DF-RHF iter   5:    -2.17907249980573   -1.67585e-07   5.36655e-06 DIIS
   @DF-RHF iter   6:    -2.17907250153058   -1.72485e-09   4.17443e-07 DIIS
   @DF-RHF iter   7:    -2.17907250154434   -1.37579e-11   9.17096e-09 DIIS
   @DF-RHF iter   8:    -2.17907250154434   -4.44089e-15   1.21254e-09 DIIS
   @DF-RHF iter   9:    -2.17907250154434   -2.66454e-15   8.69179e-12 DIIS
   @DF-RHF iter  10:    -2.17907250154434    8.88178e-16   1.01366e-12 DIIS
   @DF-RHF iter  11:    -2.17907250154434    1.77636e-15   3.09797e-15 DIIS
   @DF-RHF iter  12:    -2.17907250154434    1.77636e-15   5.72339e-16 DIIS
   @DF-RHF iter  13:    -2.17907250154434   -1.77636e-15   1.63037e-16 DIIS
   @DF-RHF iter  14:    -2.17907250154434    0.00000e+00   1.55728e-16 DIIS

  ==> Post-Iterations <==

    Orbital Energies (a.u.)
    -----------------------

    Doubly Occupied:                                                      

       1Ag    -0.731121     1B2u   -0.473178  

    Virtual:                                                              

       1B1u    0.149078     1B3g    0.311921     2Ag     0.467981  
       2B2u    0.487113     2B1u    0.888329     2B3g    1.029229  
       3Ag     1.093537     1B3u    1.157589     1B1g    1.442981  
       3B1u    1.883831     4Ag     1.903073     1B2g    1.931018  
       3B2u    1.999588     4B2u    2.161090     1Au     2.213830  
       3B3g    2.724149     4B1u    3.829729     4B3g    4.017691  

    Final Occupation by Irrep:
             Ag   B1g   B2g   B3g    Au   B1u   B2u   B3u 
    DOCC [     1,    0,    0,    0,    0,    0,    1,    0 ]

  Energy converged.

  @DF-RHF Final Energy:    -2.17907250154434

   => Energetics <=

    Nuclear Repulsion Energy =              2.9440601571290435
    One-Electron Energy =                  -7.8376684601799775
    Two-Electron Energy =                   2.7145358015065941
    DFT Exchange-Correlation Energy =       0.0000000000000000
    Empirical Dispersion Energy =           0.0000000000000000
    PCM Polarization Energy =               0.0000000000000000
    EFP Energy =                            0.0000000000000000
    Total Energy =                         -2.1790725015443400

    Alert: EFP and PCM quantities not currently incorporated into SCF psivars.

Properties will be evaluated at   0.000000,   0.000000,   0.000000 Bohr
  ==> Properties <==


Properties computed using the SCF density matrix

  Nuclear Dipole Moment: (a.u.)
     X:     0.0000      Y:     0.0000      Z:     0.0000

  Electronic Dipole Moment: (a.u.)
     X:     0.0000      Y:     0.0000      Z:     0.0000

  Dipole Moment: (a.u.)
     X:     0.0000      Y:     0.0000      Z:     0.0000     Total:     0.0000

  Dipole Moment: (Debye)
     X:     0.0000      Y:     0.0000      Z:     0.0000     Total:     0.0000


  Saving occupied orbitals to File 180.

*** tstop() called on Kevins-MacBook-Pro-2.local at Sat Dec  5 15:24:51 2015
Module time:
	user time   =       1.19 seconds =       0.02 minutes
	system time =       0.02 seconds =       0.00 minutes
	total time  =          2 seconds =       0.03 minutes
Total time:
	user time   =       1.19 seconds =       0.02 minutes
	system time =       0.02 seconds =       0.00 minutes
	total time  =          2 seconds =       0.03 minutes
Reading options from the FORTE block
Calling plugin /Users/kevinhannon/Programs/forte/forte.so.


  ==> MO Space Information <==

  Read options for space RESTRICTED_DOCC
  Read options for space ACTIVE
  -------------------------------------------------------------------------
                       Ag   B1g   B2g   B3g    Au   B1u   B2u   B3u   Sum
  -------------------------------------------------------------------------
    FROZEN_DOCC         0     0     0     0     0     0     0     0     0
    RESTRICTED_DOCC     0     0     0     0     0     0     0     0     0
    ACTIVE              1     0     0     1     0     1     1     0     4
    RESTRICTED_UOCC     3     1     1     3     1     3     3     1    16
    FROZEN_UOCC         0     0     0     0     0     0     0     0     0
    Total               4     1     1     4     1     4     4     1    20
  -------------------------------------------------------------------------

  ==> Integral Transformation <==

  Number of molecular orbitals:               20
  Number of correlated molecular orbitals:    20
  Number of frozen occupied orbitals:          0
  Number of frozen unoccupied orbitals:        0


  DISKDFIntegrals overall time
 Computing Density fitted integrals 

 Number of auxiliary basis functions:  56
 Need 0.000167 GB to store DF integrals

    Computing DF Integrals               ......Done. Timing        0.262962 s
  DISKDFIntegrals take      0.44110100 s
 Not using JK builder

                -----------------------------------------------
                  String-based Full Configuration Interaction
                          by Francesco A. Evangelista
                -----------------------------------------------

  Number of electrons: 4
  Charge: 0
  Multiplicity: 1
  Davidson subspace max dim: 8
  Davidson subspace min dim: 2
  M_s: 0

  ==> String Lists <==

  Number of alpha electrons     = 2
  Number of beta electrons      = 2
  Number of alpha strings       = 6
  Number of beta strings        = 6
  Timing for strings        =      0.000 s
  Timing for NN strings     =      0.000 s
  Timing for VO strings     =      0.001 s
  Timing for OO strings     =      0.000 s
  Timing for Knowles-Handy  =      0.000 s
  Timing for VVOO strings   =      0.000 s
  Timing for VOVO strings   =      0.000 s
  Timing for 1-hole strings =      0.000 s
  Timing for 2-hole strings =      0.000 s
  Timing for 3-hole strings =      0.000 s
  Total timing              =      0.001 s

  ==> FCI Solver <==

    Number of determinants                          12
    Symmetry                                         0
    Multiplicity                                     1
    Number of roots                                  1
    Target root                                      0
    Trial vectors per root                          10

 Not using JK builder
  Allocating memory for the Hamiltonian algorithm. Size: 2 x 2 x 2.   Memory: 0.000000 GB

  Determinant space is spin complete.

  ==> FCI Initial Guess <==

  ---------------------------------------------
    Root            Energy     <S^2>   Spin
  ---------------------------------------------
      0       -2.184653606470  0.000  singlet
      1       -1.497356840829  0.000  singlet
      2       -1.249102612961  6.000  quintet
      3       -1.143046710771  0.000  singlet
      4       -1.142494215566  2.000  triplet
      5       -1.085361601467  2.000  triplet
      6       -1.003976329667  0.000  singlet
      7       -0.904400229306  0.000  singlet
      8       -0.843151178388  2.000  triplet
      9       -0.706404700044  0.000  singlet
     10       -0.342012461664  0.000  singlet
     11        0.479092687507  0.000  singlet
  ---------------------------------------------
  Timing for initial guess  =      0.005 s

  Projecting out root 2
  Projecting out root 4
  Projecting out root 5
  Projecting out root 8
  ==> Diagonalizing Hamiltonian <==

  ----------------------------------------
    Iter.      Avg. Energy       Delta_E
  ----------------------------------------
      1       -2.184653606470  -2.185e+00
      2       -2.184653606470  -1.776e-15
      3       -2.184653606470  +3.553e-15
      4       -2.184653606470  -2.665e-15
      5       -2.184653606470  +8.882e-16
  ----------------------------------------
  The Davidson-Liu algorithm converged in 6 iterations.

  ==> Root No. 0 <==

    2 0 0 2     -0.99770540

    Total Energy:        -2.184653606470182

  ==> RDMs for Root No. 0 <==

                          ----------------------------
                            Semi-Canonical Orbitals
                            Francesco A. Evangelista
                          ----------------------------

 Making a fock matrix 

---------Blocking Information-------

  179200 / 375000000 = 0
  Block_size = 56 num_block = 1

  ==> Integral transformation <==

 Computing Density fitted integrals 

 Number of auxiliary basis functions:  56
 Need 0.000167 GB to store DF integrals

    Computing DF Integrals               ......Done. Timing        0.262469 s
 Make diagonal integrals in DISKDF took 0.000001 s
 Frozen Orbitals takes 0.00004500 s

                -----------------------------------------------
                  String-based Full Configuration Interaction
                          by Francesco A. Evangelista
                -----------------------------------------------

  Number of electrons: 4
  Charge: 0
  Multiplicity: 1
  Davidson subspace max dim: 8
  Davidson subspace min dim: 2
  M_s: 0

  ==> String Lists <==

  Number of alpha electrons     = 2
  Number of beta electrons      = 2
  Number of alpha strings       = 6
  Number of beta strings        = 6
  Timing for strings        =      0.000 s
  Timing for NN strings     =      0.000 s
  Timing for VO strings     =      0.001 s
  Timing for OO strings     =      0.000 s
  Timing for Knowles-Handy  =      0.000 s
  Timing for VVOO strings   =      0.000 s
  Timing for VOVO strings   =      0.000 s
  Timing for 1-hole strings =      0.000 s
  Timing for 2-hole strings =      0.000 s
  Timing for 3-hole strings =      0.000 s
  Total timing              =      0.001 s

  ==> FCI Solver <==

    Number of determinants                          12
    Symmetry                                         0
    Multiplicity                                     1
    Number of roots                                  1
    Target root                                      0
    Trial vectors per root                          10

 Not using JK builder
  Allocating memory for the Hamiltonian algorithm. Size: 2 x 2 x 2.   Memory: 0.000000 GB

  Determinant space is spin complete.

  ==> FCI Initial Guess <==

  ---------------------------------------------
    Root            Energy     <S^2>   Spin
  ---------------------------------------------
      0       -2.184653606470  0.000  singlet
      1       -1.497356840829  0.000  singlet
      2       -1.249102612961  6.000  quintet
      3       -1.143046710771  0.000  singlet
      4       -1.142494215566  2.000  triplet
      5       -1.085361601467  2.000  triplet
      6       -1.003976329667  0.000  singlet
      7       -0.904400229306  0.000  singlet
      8       -0.843151178388  2.000  triplet
      9       -0.706404700044  0.000  singlet
     10       -0.342012461664  0.000  singlet
     11        0.479092687507  0.000  singlet
  ---------------------------------------------
  Timing for initial guess  =      0.005 s

  Projecting out root 2
  Projecting out root 4
  Projecting out root 5
  Projecting out root 8
  ==> Diagonalizing Hamiltonian <==

  ----------------------------------------
    Iter.      Avg. Energy       Delta_E
  ----------------------------------------
      1       -2.184653606470  -2.185e+00
      2       -2.184653606470  -1.776e-15
      3       -2.184653606470  +3.553e-15
      4       -2.184653606470  -2.665e-15
      5       -2.184653606470  +8.882e-16
  ----------------------------------------
  The Davidson-Liu algorithm converged in 6 iterations.

  ==> Root No. 0 <==

    2 0 0 2     -0.99770540

    Total Energy:        -2.184653606470182

  ==> RDMs for Root No. 0 <==

	  ---------------------------------------------------------
	      DF/CD - Driven Similarity Renormalization Group MBPT2
	                   Kevin Hannon and Chenyang (York) Li
	                       1 thread(s) 
	  ---------------------------------------------------------
 Reference = RHF
  Reference Energy = -2.184653606470182
 Making a fock matrix 

---------Blocking Information-------

  179200 / 375000000 = 0
  Block_size = 56 num_block = 1

  ==> Calculation Information <==

    Flow parameter                           5.000e-01
    Cholesky Tolerance                       1.000e-06
    Taylor expansion threshold               1.000e-03
    int_type                                    DISKDF
    ccvv_algorithm                           FLY_AMBIT
    ccvv_source                                 NORMAL
    Computing T2                         ......Done. Timing        0.031653 s
    Computing V and Renormalizing        ......Done. Timing        0.029937 s
    Computing T1                         ......Done. Timing        0.005499 s
    Renormalizing F                      ......Done. Timing        0.006928 s
    Computing <[F, T1]>                  ......Done. Timing        0.009874 s
    Computing <[F, T2]>                  ......Done. Timing        0.005225 s
    Computing <[V, T1]>                  ......Done. Timing        0.004843 s
    Computing <[V, T2]> (C_2)^4 (no ccvv) ...

 CAVV computation takes 0.00153900

 Eacvv   =  0.00000000

 CCVA takes 0.00034700...Done. Timing        0.026398 s
    Computing <[V, T2]> (C_2)^4 ccvv     ......Done. Timing        0.000228 s
    Computing <[V, T2]> 4HH              ......Done. Timing        0.023540 s
    Computing <V, T2]> 4PP               ...  Done. Timing        0.033531 s
    Computing [V, T2] 4PH                ...  Done. Timing        0.095713 s
    Computing [V, T2] λ3                ......Done. Timing        0.037065 s

  ==> DSRG-MRPT2 Energy Summary <==

    E0 (reference)                 =     -2.184653606470182
    <[F, T1]>                      =     -0.000000327922113
    <[F, T2]>                      =     -0.000016110427920
    <[V, T1]>                      =     -0.000006067395982
    <[V, T2]> (C_2)^4              =     -0.053637014748798
    <[V, T2]> C_4 (C_2)^2 HH       =      0.000000000000000
    <[V, T2]> C_4 (C_2)^2 PP       =      0.002327242819483
    <[V, T2]> C_4 (C_2)^2 PH       =     -0.002619849091262
    <[V, T2]> C_6 C_2              =     -0.000103756301011
    <[V, T2]>                      =     -0.054033377321587
    DSRG-MRPT2 correlation energy  =     -0.054055883067602
    DSRG-MRPT2 total energy        =     -2.238709489537785
    max(T1)                        =      0.000621942879354
    ||T1||                         =      0.001158818126761


    CD/DF-DSRG-MRPT2 took   0.31198900 s.

  Your calculation took 1.90819500 seconds

*** PSI4 exiting successfully. Buy a developer a beer!
