
    -----------------------------------------------------------------------
          Psi4: An Open-Source Ab Initio Electronic Structure Package
                               Psi4 undefined 

                         Git: Rev {master} c27a5c4 dirty


    R. M. Parrish, L. A. Burns, D. G. A. Smith, A. C. Simmonett,
    A. E. DePrince III, E. G. Hohenstein, U. Bozkaya, A. Yu. Sokolov,
    R. Di Remigio, R. M. Richard, J. F. Gonthier, A. M. James,
    H. R. McAlexander, A. Kumar, M. Saitow, X. Wang, B. P. Pritchard,
    P. Verma, H. F. Schaefer III, K. Patkowski, R. A. King, E. F. Valeev,
    F. A. Evangelista, J. M. Turney, T. D. Crawford, and C. D. Sherrill,
    J. Chem. Theory Comput. 13(7) pp 3185--3197 (2017).
    (doi: 10.1021/acs.jctc.7b00174)


                         Additional Contributions by
    P. Kraus, H. Kruse, M. H. Lechner, M. C. Schieber, and R. A. Shaw

    -----------------------------------------------------------------------


    Psi4 started on: Sunday, 17 February 2019 01:17PM

    Process ID: 690
    Host:       DESKTOP-JOFFIR0
    PSIDATADIR: /home/zty/Source/psi4-github-bin-g++-7.3.0-opt-c++17/share/psi4
    Memory:     500.0 MiB
    Threads:    1
    
  ==> Input File <==

--------------------------------------------------------------------------
#! This tests the Adaptive Path-Integral FCI procedure with dynamic prescreening
#! Generated using commit GITCOMMIT

import forte

refscf = -14.6097447380899563 #TEST
refpci = -14.515843385662 #TEST

molecule li2{
   Li
   Li 1 2.0000
}

set {
  basis sto-3g
  scf_type pk
  e_convergence 12
}

set forte {
  active_space_solver ewci
  nroot 2
  PCI_GENERATOR dl
  pci_spawning_threshold 0.0001
  pci_e_convergence 8
  PCI_STOP_HIGHER_NEW_LOW true
  DL_MAXITER 1000
}

energy('scf')
compare_values(refscf, variable("CURRENT ENERGY"), 10, "SCF energy") #TEST

energy('forte')
compare_values(refpci, variable("EWCI ENERGY"), 6, "EWCI excited state energy") #TEST
--------------------------------------------------------------------------

*** tstart() called on DESKTOP-JOFFIR0
*** at Sun Feb 17 13:17:24 2019

   => Loading Basis Set <=

    Name: STO-3G
    Role: ORBITAL
    Keyword: BASIS
    atoms 1-2 entry LI         line    31 file /home/zty/Source/psi4-github-bin-g++-7.3.0-opt-c++17/share/psi4/basis/sto-3g.gbs 


         ---------------------------------------------------------
                                   SCF
            by Justin Turney, Rob Parrish, Andy Simmonett
                             and Daniel Smith
                              RHF Reference
                        1 Threads,    500 MiB Core
         ---------------------------------------------------------

  ==> Geometry <==

    Molecular point group: d2h
    Full point group: D_inf_h

    Geometry (in Angstrom), charge = 0, multiplicity = 1:

       Center              X                  Y                   Z               Mass       
    ------------   -----------------  -----------------  -----------------  -----------------
         LI           0.000000000000     0.000000000000    -1.000000000000     7.016003436600
         LI           0.000000000000     0.000000000000     1.000000000000     7.016003436600

  Running in d2h symmetry.

  Rotational constants: A = ************  B =      1.20137  C =      1.20137 [cm^-1]
  Rotational constants: A = ************  B =  36016.16030  C =  36016.16030 [MHz]
  Nuclear repulsion =    2.381297448014999

  Charge       = 0
  Multiplicity = 1
  Electrons    = 6
  Nalpha       = 3
  Nbeta        = 3

  ==> Algorithm <==

  SCF Algorithm Type is PK.
  DIIS enabled.
  MOM disabled.
  Fractional occupation disabled.
  Guess Type is SAD.
  Energy threshold   = 1.00e-12
  Density threshold  = 1.00e-06
  Integral threshold = 0.00e+00

  ==> Primary Basis <==

  Basis Set: STO-3G
    Blend: STO-3G
    Number of shells: 6
    Number of basis function: 10
    Number of Cartesian functions: 10
    Spherical Harmonics?: true
    Max angular momentum: 1

  ==> Pre-Iterations <==

   -------------------------------------------------------
    Irrep   Nso     Nmo     Nalpha   Nbeta   Ndocc  Nsocc
   -------------------------------------------------------
     Ag         3       3       0       0       0       0
     B1g        0       0       0       0       0       0
     B2g        1       1       0       0       0       0
     B3g        1       1       0       0       0       0
     Au         0       0       0       0       0       0
     B1u        3       3       0       0       0       0
     B2u        1       1       0       0       0       0
     B3u        1       1       0       0       0       0
   -------------------------------------------------------
    Total      10      10       3       3       3       0
   -------------------------------------------------------

  ==> Integral Setup <==

  Using in-core PK algorithm.
   Calculation information:
      Number of atoms:                   2
      Number of AO shells:               6
      Number of primitives:             18
      Number of atomic orbitals:        10
      Number of basis functions:        10

      Integral cutoff                 1.00e-12
      Number of threads:                 1

  Performing in-core PK
  Using 3080 doubles for integral storage.
  We computed 231 shell quartets total.
  Whereas there are 231 unique shell quartets.

  ==> DiskJK: Disk-Based J/K Matrices <==

    J tasked:                  Yes
    K tasked:                  Yes
    wK tasked:                  No
    Memory [MiB]:              375
    Schwarz Cutoff:          1E-12

    OpenMP threads:              1

  Minimum eigenvalue in the overlap matrix is 4.0289192732E-02.
  Using Symmetric Orthogonalization.

  SCF Guess: Superposition of Atomic Densities via on-the-fly atomic UHF.

  ==> Iterations <==

                        Total Energy        Delta E     RMS |[F,P]|

   @RHF iter   0:   -14.58573852679840   -1.45857e+01   6.38128e-02 
   @RHF iter   1:   -14.60879129707151   -2.30528e-02   3.90853e-03 
   @RHF iter   2:   -14.60956780353628   -7.76506e-04   1.49380e-03 DIIS
   @RHF iter   3:   -14.60974068441564   -1.72881e-04   2.15662e-04 DIIS
   @RHF iter   4:   -14.60974473615713   -4.05174e-06   4.32612e-06 DIIS
   @RHF iter   5:   -14.60974473808782   -1.93069e-09   1.41353e-07 DIIS
   @RHF iter   6:   -14.60974473808996   -2.13873e-12   3.63226e-09 DIIS
   @RHF iter   7:   -14.60974473808995    7.10543e-15   1.73382e-11 DIIS
  Energy converged.


  ==> Post-Iterations <==

    Orbital Energies [Eh]
    ---------------------

    Doubly Occupied:                                                      

       1Ag    -2.340313     1B1u   -2.335347     2Ag    -0.163839  

    Virtual:                                                              

       2B1u    0.093646     1B2u    0.108933     1B3u    0.108933  
       3Ag     0.176245     1B2g    0.275579     1B3g    0.275579  
       3B1u    0.645556  

    Final Occupation by Irrep:
             Ag   B1g   B2g   B3g    Au   B1u   B2u   B3u 
    DOCC [     2,    0,    0,    0,    0,    1,    0,    0 ]

  @RHF Final Energy:   -14.60974473808995

   => Energetics <=

    Nuclear Repulsion Energy =              2.3812974480149989
    One-Electron Energy =                 -24.3030864655733438
    Two-Electron Energy =                   7.3120442794683917
    Total Energy =                        -14.6097447380899546

Computation Completed


Properties will be evaluated at   0.000000,   0.000000,   0.000000 [a0]

Properties computed using the SCF density matrix

  Nuclear Dipole Moment: [e a0]
     X:     0.0000      Y:     0.0000      Z:     0.0000

  Electronic Dipole Moment: [e a0]
     X:     0.0000      Y:     0.0000      Z:     0.0000

  Dipole Moment: [e a0]
     X:     0.0000      Y:     0.0000      Z:     0.0000     Total:     0.0000

  Dipole Moment: [D]
     X:     0.0000      Y:     0.0000      Z:     0.0000     Total:     0.0000


*** tstop() called on DESKTOP-JOFFIR0 at Sun Feb 17 13:17:24 2019
Module time:
	user time   =       0.27 seconds =       0.00 minutes
	system time =       0.00 seconds =       0.00 minutes
	total time  =          0 seconds =       0.00 minutes
Total time:
	user time   =       0.27 seconds =       0.00 minutes
	system time =       0.00 seconds =       0.00 minutes
	total time  =          0 seconds =       0.00 minutes
	SCF energy........................................................PASSED

*** tstart() called on DESKTOP-JOFFIR0
*** at Sun Feb 17 13:17:24 2019

   => Loading Basis Set <=

    Name: STO-3G
    Role: ORBITAL
    Keyword: BASIS
    atoms 1-2 entry LI         line    31 file /home/zty/Source/psi4-github-bin-g++-7.3.0-opt-c++17/share/psi4/basis/sto-3g.gbs 


         ---------------------------------------------------------
                                   SCF
            by Justin Turney, Rob Parrish, Andy Simmonett
                             and Daniel Smith
                              RHF Reference
                        1 Threads,    500 MiB Core
         ---------------------------------------------------------

  ==> Geometry <==

    Molecular point group: d2h
    Full point group: D_inf_h

    Geometry (in Angstrom), charge = 0, multiplicity = 1:

       Center              X                  Y                   Z               Mass       
    ------------   -----------------  -----------------  -----------------  -----------------
         LI           0.000000000000     0.000000000000    -1.000000000000     7.016003436600
         LI           0.000000000000     0.000000000000     1.000000000000     7.016003436600

  Running in d2h symmetry.

  Rotational constants: A = ************  B =      1.20137  C =      1.20137 [cm^-1]
  Rotational constants: A = ************  B =  36016.16030  C =  36016.16030 [MHz]
  Nuclear repulsion =    2.381297448014998

  Charge       = 0
  Multiplicity = 1
  Electrons    = 6
  Nalpha       = 3
  Nbeta        = 3

  ==> Algorithm <==

  SCF Algorithm Type is PK.
  DIIS enabled.
  MOM disabled.
  Fractional occupation disabled.
  Guess Type is SAD.
  Energy threshold   = 1.00e-12
  Density threshold  = 1.00e-08
  Integral threshold = 0.00e+00

  ==> Primary Basis <==

  Basis Set: STO-3G
    Blend: STO-3G
    Number of shells: 6
    Number of basis function: 10
    Number of Cartesian functions: 10
    Spherical Harmonics?: true
    Max angular momentum: 1

  ==> Pre-Iterations <==

   -------------------------------------------------------
    Irrep   Nso     Nmo     Nalpha   Nbeta   Ndocc  Nsocc
   -------------------------------------------------------
     Ag         3       3       0       0       0       0
     B1g        0       0       0       0       0       0
     B2g        1       1       0       0       0       0
     B3g        1       1       0       0       0       0
     Au         0       0       0       0       0       0
     B1u        3       3       0       0       0       0
     B2u        1       1       0       0       0       0
     B3u        1       1       0       0       0       0
   -------------------------------------------------------
    Total      10      10       3       3       3       0
   -------------------------------------------------------

  ==> Integral Setup <==

  Using in-core PK algorithm.
   Calculation information:
      Number of atoms:                   2
      Number of AO shells:               6
      Number of primitives:             18
      Number of atomic orbitals:        10
      Number of basis functions:        10

      Integral cutoff                 1.00e-12
      Number of threads:                 1

  Performing in-core PK
  Using 3080 doubles for integral storage.
  We computed 231 shell quartets total.
  Whereas there are 231 unique shell quartets.

  ==> DiskJK: Disk-Based J/K Matrices <==

    J tasked:                  Yes
    K tasked:                  Yes
    wK tasked:                  No
    Memory [MiB]:              375
    Schwarz Cutoff:          1E-12

    OpenMP threads:              1

  Minimum eigenvalue in the overlap matrix is 4.0289192732E-02.
  Using Symmetric Orthogonalization.

  SCF Guess: Superposition of Atomic Densities via on-the-fly atomic UHF.

  ==> Iterations <==

                        Total Energy        Delta E     RMS |[F,P]|

   @RHF iter   0:   -14.58573852679840   -1.45857e+01   6.38128e-02 
   @RHF iter   1:   -14.60879129707151   -2.30528e-02   3.90853e-03 
   @RHF iter   2:   -14.60956780353629   -7.76506e-04   1.49380e-03 DIIS
   @RHF iter   3:   -14.60974068441565   -1.72881e-04   2.15662e-04 DIIS
   @RHF iter   4:   -14.60974473615713   -4.05174e-06   4.32612e-06 DIIS
   @RHF iter   5:   -14.60974473808782   -1.93069e-09   1.41353e-07 DIIS
   @RHF iter   6:   -14.60974473808996   -2.13696e-12   3.63226e-09 DIIS
   @RHF iter   7:   -14.60974473808996    1.77636e-15   1.73386e-11 DIIS
  Energy converged.


  ==> Post-Iterations <==

    Orbital Energies [Eh]
    ---------------------

    Doubly Occupied:                                                      

       1Ag    -2.340313     1B1u   -2.335347     2Ag    -0.163839  

    Virtual:                                                              

       2B1u    0.093646     1B2u    0.108933     1B3u    0.108933  
       3Ag     0.176245     1B2g    0.275579     1B3g    0.275579  
       3B1u    0.645556  

    Final Occupation by Irrep:
             Ag   B1g   B2g   B3g    Au   B1u   B2u   B3u 
    DOCC [     2,    0,    0,    0,    0,    1,    0,    0 ]

  @RHF Final Energy:   -14.60974473808996

   => Energetics <=

    Nuclear Repulsion Energy =              2.3812974480149980
    One-Electron Energy =                 -24.3030864655733474
    Two-Electron Energy =                   7.3120442794683917
    Total Energy =                        -14.6097447380899581

Computation Completed


Properties will be evaluated at   0.000000,   0.000000,   0.000000 [a0]

Properties computed using the SCF density matrix

  Nuclear Dipole Moment: [e a0]
     X:     0.0000      Y:     0.0000      Z:     0.0000

  Electronic Dipole Moment: [e a0]
     X:     0.0000      Y:     0.0000      Z:     0.0000

  Dipole Moment: [e a0]
     X:     0.0000      Y:     0.0000      Z:     0.0000     Total:     0.0000

  Dipole Moment: [D]
     X:     0.0000      Y:     0.0000      Z:     0.0000     Total:     0.0000


*** tstop() called on DESKTOP-JOFFIR0 at Sun Feb 17 13:17:24 2019
Module time:
	user time   =       0.22 seconds =       0.00 minutes
	system time =       0.03 seconds =       0.00 minutes
	total time  =          0 seconds =       0.00 minutes
Total time:
	user time   =       0.52 seconds =       0.01 minutes
	system time =       0.03 seconds =       0.00 minutes
	total time  =          0 seconds =       0.00 minutes
   => Loading Basis Set <=

    Name: STO-3G
    Role: ORBITAL
    Keyword: MINAO_BASIS
    atoms 1-2 entry LI         line    31 file /home/zty/Source/psi4-github-bin-g++-7.3.0-opt-c++17/share/psi4/basis/sto-3g.gbs 


  Forte
  ----------------------------------------------------------------------------
  A suite of quantum chemistry methods for strongly correlated electrons

    git branch: ci_framework - git commit: 8fb0f35

  Developed by:
    Francesco A. Evangelista, Chenyang Li, Kevin P. Hannon,
    Jeffrey B. Schriber, Tianyuan Zhang, Chenxi Cai,
    Nan He, Nicholas Stair, Shuhe Wang, Renke Huang
  ----------------------------------------------------------------------------

  Size of Determinant class: 16

  ==> MO Space Information <==

  -------------------------------------------------------------------------
                       Ag   B1g   B2g   B3g    Au   B1u   B2u   B3u   Sum
  -------------------------------------------------------------------------
    FROZEN_DOCC         0     0     0     0     0     0     0     0     0
    RESTRICTED_DOCC     0     0     0     0     0     0     0     0     0
    ACTIVE              3     0     1     1     0     3     1     1    10
    RESTRICTED_UOCC     0     0     0     0     0     0     0     0     0
    FROZEN_UOCC         0     0     0     0     0     0     0     0     0
    Total               3     0     1     1     0     3     1     1    10
  -------------------------------------------------------------------------

  ==> Integral Transformation <==

  Number of molecular orbitals:                    10
  Number of correlated molecular orbitals:         10
  Number of frozen occupied orbitals:               0
  Number of frozen unoccupied orbitals:             0
  Two-electron integral type:              Conventional


  Overall Conventional Integrals timings


  Conventional integrals take 0.11777710 s

  ==> Summary of Active Space Solver Input <==

    Irrep.  Multi.  Nstates
    -------------------------
      Ag       1        2
    -------------------------
    Total number of states: 2
    -------------------------

  Number of active alpha electrons: 3
  Number of active beta electrons: 3
  Maximum reference space size: 1000
  |2200020000>
  Number of active alpha electrons: 3
  Number of active beta electrons: 3
  Maximum reference space size: 1000
  |2200020000>

-------------------------------------------------------------------------------
               Selected Configuration Interaction Excited States
  written by Jeffrey B. Schriber, Tianyuan Zhang and Francesco A. Evangelista
-------------------------------------------------------------------------------

  ==> Reference Information <==

  ==> Calculation Information <==

  -----------------------------------------------------------------
    Multiplicity                             1    
    Symmetry                                 0    
    Number of roots                          2    
    Ms                                       0
    Excited Algorithm                        ROOT_ORTHOGONALIZE
  -----------------------------------------------------------------
  Using 1 threads
  Computing wavefunction for root 0

	  ---------------------------------------------------------
	              Element wise Configuration Interactionimplementation
	         by Francesco A. Evangelista and Tianyuan Zhang
	                      version Aug. 3 2017
	                       1 thread(s) 
	  ---------------------------------------------------------

  ==> Calculation Information <==

    Symmetry                                         0
    Multiplicity                                     1
    Number of roots                                  1
    Root used for properties                         0
    Maximum number of iterations                  1000
    Energy estimation frequency                      1
    Number of threads                                1
    Time step (beta)                         1.000e+00
    Spawning threshold                       1.000e-04
    Initial guess spawning threshold         1.000e-03
    Convergence threshold                    1.000e-08
    Energy estimate tollerance               1.000e-06
    Generator type                          Davidson-Liu by Tianyuan
    Importance functional                   |Hij|*max(|Ci|,|Cj|)
    Shift the energy                                NO
    Use intermediate normalization                  NO
    Fast variational estimate                       NO
    Result perturbation analysis                    NO
    Using OpenMP                                    NO

  ==> Initial Guess <==

  Initial guess size = 86
  Spin multiplicity of root 78 not close to integer (4.1231)
  Spin multiplicity of root 79 not close to integer (4.1231)
  Spin multiplicity of root 80 not close to integer (4.1231)
  Found 45 roots with 2S+1 = 1 *
  Found 33 roots with 2S+1 = 3
  Found 5 roots with 2S+1 = 5

  Initial guess energy (variational) =     -14.645947472327 Eh (root = 1)

  Most important contributions to the wave function:

    0         0.9337      0.871796           0 |2200020000000000000000000000000000000000000000000000000000000000>    -16.991042186105
    1      -0.231508     0.0535959           1 |2000020020000000000000000000000000000000000000000000000000000000>    -16.844531944287
    2      -0.231508     0.0535959           2 |2000020002000000000000000000000000000000000000000000000000000000>    -16.844531944287
    3      -0.113963     0.0129877           3 |2000022000000000000000000000000000000000000000000000000000000000>    -16.780684423917
    4     -0.0799895    0.00639832           4 |2020020000000000000000000000000000000000000000000000000000000000>    -16.722588679069
    5     -0.0250221   0.000626107           5 |200002-+00000000000000000000000000000000000000000000000000000000>    -16.358845134715
    6     -0.0250221   0.000626107           6 |200002+-00000000000000000000000000000000000000000000000000000000>    -16.358845134715
    7    -0.00824472   6.79755e-05           7 |2000020200000000000000000000000000000000000000000000000000000000>    -15.877818677698
    8     0.00468421   2.19418e-05           8 |2000220000000000000000000000000000000000000000000000000000000000>    -16.542435848077
    9     0.00468421   2.19418e-05           9 |2002020000000000000000000000000000000000000000000000000000000000>    -16.542435848077

  Spin State: S^2 = 0.000, S = 0.000, singlet (from 3 determinants,97.90%)

  ==> Estimate highest excitation energy <==
  Highest Excited determinant:
  |0002200200000000000000000000000000000000000000000000000000000000>
  Determinant Energy                    :  -2.581264114651
  Highest Energy Gershgorin circle Est. :  -0.994024721782

  ==> Characteristic Function <==
    f(x) = 
    with tau = 1.000000e+00, shift = -7.819986097055, range = 6.825961375273
    Initial guess: lambda_1= -14.645947472327
    Est. Highest eigenvalue= -0.994024721782

  ==> PCI Iterations <==

  --------------------------------------------------------------------------------------------------------------~
    Steps  Beta/Eh      Ndets      NoffDiag     Proj. Energy/Eh     dEp/dt      Approx. Energy/Eh   dEv/dt      ~
  --------------------------------------------------------------------------------------------------------------~

  Davidson-liu solver algorithm
  Found a guess vector with spin not close to integer value (4.123106)
  Found a guess vector with spin not close to integer value (4.123106)
  Initial guess found 82 solutions with 2S+1 = 1 *
  Initial guess found 101 solutions with 2S+1 = 3  
  Initial guess found 15 solutions with 2S+1 = 5  

  ==> Diagonalizing Hamiltonian <==

  ----------------------------------------
    Iter.      Avg. Energy       Delta_E
  ----------------------------------------
      1      -14.645960194143  -1.465e+01
      2      -14.646082442544  -1.222e-04
      3      -14.646095148366  -1.271e-05
      4      -14.646105575863  -1.043e-05
      5      -14.646108022163  -2.446e-06
      6      -14.646116886919  -8.865e-06
      7      -14.646124305293  -7.418e-06
      8      -14.646155091506  -3.079e-05
      9      -14.646164458132  -9.367e-06
     10      -14.646171694998  -7.237e-06
     11      -14.646175160990  -3.466e-06
     12      -14.646178837316  -3.676e-06
     13      -14.646180683720  -1.846e-06
     14      -14.646181268608  -5.849e-07
     15      -14.646181632311  -3.637e-07
     16      -14.646182017387  -3.851e-07
     17      -14.646182183117  -1.657e-07
     18      -14.646182230338  -4.722e-08
     19      -14.646182260045  -2.971e-08
     20      -14.646182291487  -3.144e-08
     21      -14.646182305308  -1.382e-08
     22      -14.646182309255  -3.947e-09
  ----------------------------------------
  The Davidson-Liu algorithm converged in 23 iterations.
        0       40        418          2080     -14.646177071573 -2.296e-04     -14.646182309255  1.000e+00     ~

  Davidson-liu solver algorithm
  Found a guess vector with spin not close to integer value (4.123106)
  Found a guess vector with spin not close to integer value (4.123106)
  Initial guess found 82 solutions with 2S+1 = 1 *
  Initial guess found 101 solutions with 2S+1 = 3  
  Initial guess found 15 solutions with 2S+1 = 5  

  ==> Diagonalizing Hamiltonian <==

  ----------------------------------------
    Iter.      Avg. Energy       Delta_E
  ----------------------------------------
      1      -14.646149434784  -1.465e+01
      2      -14.646155618673  -6.184e-06
      3      -14.646156757418  -1.139e-06
      4      -14.646157017594  -2.602e-07
      5      -14.646157105154  -8.756e-08
      6      -14.646157169172  -6.402e-08
      7      -14.646157194960  -2.579e-08
      8      -14.646157211642  -1.668e-08
      9      -14.646157220407  -8.766e-09
  ----------------------------------------
  The Davidson-Liu algorithm converged in 10 iterations.
        1       15        434          2406     -14.646153087774  2.398e-05     -14.646157220407  2.509e-05     ~

  Davidson-liu solver algorithm
  Found a guess vector with spin not close to integer value (4.123106)
  Found a guess vector with spin not close to integer value (4.123106)
  Initial guess found 82 solutions with 2S+1 = 1 *
  Initial guess found 101 solutions with 2S+1 = 3  
  Initial guess found 15 solutions with 2S+1 = 5  

  ==> Diagonalizing Hamiltonian <==

  ----------------------------------------
    Iter.      Avg. Energy       Delta_E
  ----------------------------------------
      1      -14.646156008187  -1.465e+01
      2      -14.646156071481  -6.329e-08
      3      -14.646156100456  -2.897e-08
      4      -14.646156108949  -8.494e-09
  ----------------------------------------
  The Davidson-Liu algorithm converged in 5 iterations.
        2        4        426          2336     -14.646159599286 -6.512e-06     -14.646156108949  1.111e-06     ~

  Davidson-liu solver algorithm
  Found a guess vector with spin not close to integer value (4.123106)
  Found a guess vector with spin not close to integer value (4.123106)
  Initial guess found 82 solutions with 2S+1 = 1 *
  Initial guess found 101 solutions with 2S+1 = 3  
  Initial guess found 15 solutions with 2S+1 = 5  

  ==> Diagonalizing Hamiltonian <==

  ----------------------------------------
    Iter.      Avg. Energy       Delta_E
  ----------------------------------------
      1      -14.646155768347  -1.465e+01
      2      -14.646155815261  -4.691e-08
      3      -14.646155823083  -7.821e-09
  ----------------------------------------
  The Davidson-Liu algorithm converged in 4 iterations.
        3        3        422          2340     -14.646158484968  1.114e-06     -14.646155823083  2.859e-07     ~

  Davidson-liu solver algorithm
  Found a guess vector with spin not close to integer value (4.123106)
  Found a guess vector with spin not close to integer value (4.123106)
  Initial guess found 82 solutions with 2S+1 = 1 *
  Initial guess found 101 solutions with 2S+1 = 3  
  Initial guess found 15 solutions with 2S+1 = 5  

  ==> Diagonalizing Hamiltonian <==

  ----------------------------------------
    Iter.      Avg. Energy       Delta_E
  ----------------------------------------
      1      -14.646156152355  -1.465e+01
      2      -14.646156185660  -3.330e-08
      3      -14.646156192909  -7.250e-09
  ----------------------------------------
  The Davidson-Liu algorithm converged in 4 iterations.
        4        3        422          2320     -14.646157735367  7.496e-07     -14.646156192909 -3.698e-07     ~

  Davidson-liu solver algorithm
  Found a guess vector with spin not close to integer value (4.123106)
  Found a guess vector with spin not close to integer value (4.123106)
  Initial guess found 82 solutions with 2S+1 = 1 *
  Initial guess found 101 solutions with 2S+1 = 3  
  Initial guess found 15 solutions with 2S+1 = 5  

  ==> Diagonalizing Hamiltonian <==

  ----------------------------------------
    Iter.      Avg. Energy       Delta_E
  ----------------------------------------
      1      -14.646155285871  -1.465e+01
      2      -14.646155322416  -3.655e-08
      3      -14.646155327104  -4.688e-09
  ----------------------------------------
  The Davidson-Liu algorithm converged in 4 iterations.
        5        3        422          2348     -14.646159390182 -1.655e-06     -14.646155327104  8.658e-07     ~
  --------------------------------------------------------------------------------------------------------------~

  Calculation stoped in appearance of higher new low.

  ==> Post-Iterations <==

  * Size of CI space                    = 422
  * Number of off-diagonal elements     = 2348
  * ElementwiseCI Approximate Energy    =   -14.646155327104 Eh
  * ElementwiseCI Projective  Energy    =   -14.646159390182 Eh

  Most important contributions to the wave function:

    0       0.933261      0.870976           0 |2200020000000000000000000000000000000000000000000000000000000000>    -16.991042186105
    1      -0.230261     0.0530201           1 |2000020002000000000000000000000000000000000000000000000000000000>    -16.844531944287
    2      -0.230261     0.0530201           2 |2000020020000000000000000000000000000000000000000000000000000000>    -16.844531944287
    3      -0.120384     0.0144923           3 |2000022000000000000000000000000000000000000000000000000000000000>    -16.780684423917
    4       -0.08036    0.00645773           4 |2020020000000000000000000000000000000000000000000000000000000000>    -16.722588679069
    5     -0.0245637   0.000603373           5 |200002-+00000000000000000000000000000000000000000000000000000000>    -16.358845134715
    6     -0.0245637   0.000603373           6 |200002+-00000000000000000000000000000000000000000000000000000000>    -16.358845134715
    7     -0.0145838   0.000212688           7 |2+-0020000000000000000000000000000000000000000000000000000000000>    -16.872775657949
    8     -0.0145838   0.000212688           8 |2-+0020000000000000000000000000000000000000000000000000000000000>    -16.872775657949
    9    -0.00777737   6.04875e-05           9 |2000020200000000000000000000000000000000000000000000000000000000>    -15.877818677698

  Spin State: S^2 = 0.000, S = 0.000, singlet (from 3 determinants,97.70%)
  ElementwiseCI (bitset) steps finished in  : 1.270474 s

  Variational energy estimated with 422 determinants to meet the max error 0.000000e+00

  ==> Computing Coupling Lists <==
  --------------------------------
        α          0.001553 s
        β          0.001589 s
        αα         0.001690 s
        ββ         0.001703 s
        αβ         0.004485 s
  --------------------------------
  * ElementwiseCI Variational Energy    =   -14.646160987743 Eh
  * ElementwiseCI Var. Corr.  Energy    =    -0.036416249653 Eh
  * 1st order perturbation   Energy     =    -0.000005660639 Eh

  ElementwiseCI (bitset) ran in  : 1.284969 s

  Saving the wave function:

  Saving root 0, ref_root is 0
  Number of old roots: 1
  Computing wavefunction for root 1

	  ---------------------------------------------------------
	              Element wise Configuration Interactionimplementation
	         by Francesco A. Evangelista and Tianyuan Zhang
	                      version Aug. 3 2017
	                       1 thread(s) 
	  ---------------------------------------------------------

  ==> Calculation Information <==

    Symmetry                                         0
    Multiplicity                                     1
    Number of roots                                  2
    Root used for properties                         1
    Maximum number of iterations                  1000
    Energy estimation frequency                      1
    Number of threads                                1
    Time step (beta)                         1.000e+00
    Spawning threshold                       1.000e-04
    Initial guess spawning threshold         1.000e-03
    Convergence threshold                    1.000e-08
    Energy estimate tollerance               1.000e-06
    Generator type                          Davidson-Liu by Tianyuan
    Importance functional                   |Hij|*max(|Ci|,|Cj|)
    Shift the energy                                NO
    Use intermediate normalization                  NO
    Fast variational estimate                       NO
    Result perturbation analysis                    NO
    Using OpenMP                                    NO

  ==> Initial Guess <==

  Initial guess size = 32
  Spin multiplicity of root 30 not close to integer (4.1231)
  Spin multiplicity of root 31 not close to integer (4.1231)
  Found 18 roots with 2S+1 = 1 *
  Found 12 roots with 2S+1 = 3

  Initial guess energy (variational) =     -14.486171974230 Eh (root = 2)

  Most important contributions to the wave function:

    0      -0.694852      0.482819           0 |2000020020000000000000000000000000000000000000000000000000000000>    -16.844531944287
    1       0.694852      0.482819           1 |2000020002000000000000000000000000000000000000000000000000000000>    -16.844531944287
    2       0.131023     0.0171669           2 |2000220000000000000000000000000000000000000000000000000000000000>    -16.542435848077
    3      -0.131023     0.0171669           3 |2002020000000000000000000000000000000000000000000000000000000000>    -16.542435848077
    4     0.00263461   6.94119e-06           4 |-+00020020000000000000000000000000000000000000000000000000000000>    -14.738584216061
    5     0.00263461   6.94119e-06           5 |+-00020020000000000000000000000000000000000000000000000000000000>    -14.738584216061
    6    -0.00263461   6.94119e-06           6 |+-00020002000000000000000000000000000000000000000000000000000000>    -14.738584216061
    7    -0.00263461   6.94119e-06           7 |-+00020002000000000000000000000000000000000000000000000000000000>    -14.738584216061
    8     1.2492e-13   1.56051e-26           8 |2000022000000000000000000000000000000000000000000000000000000000>    -16.780684423917
    9    1.39278e-14   1.93984e-28           9 |2200020000000000000000000000000000000000000000000000000000000000>    -16.991042186105

  Spin State: S^2 = 0.000, S = 0.000, singlet (from 2 determinants,96.56%)

  ==> Estimate highest excitation energy <==
  Highest Excited determinant:
  |0002200200000000000000000000000000000000000000000000000000000000>
  Determinant Energy                    :  -2.581264114651
  Highest Energy Gershgorin circle Est. :  -0.994024721782

  ==> Characteristic Function <==
    f(x) = 
    with tau = 1.000000e+00, shift = -7.740098348006, range = 6.746073626224
    Initial guess: lambda_1= -14.486171974230
    Est. Highest eigenvalue= -0.994024721782

  ==> PCI Iterations <==

  --------------------------------------------------------------------------------------------------------------~
    Steps  Beta/Eh      Ndets      NoffDiag     Proj. Energy/Eh     dEp/dt      Approx. Energy/Eh   dEv/dt      ~
  --------------------------------------------------------------------------------------------------------------~

  Davidson-liu solver algorithm
  Found a guess vector with spin not close to integer value (4.123106)
  Found a guess vector with spin not close to integer value (4.123106)
  Found a guess vector with spin not close to integer value (4.123106)
  Found a guess vector with spin not close to integer value (4.123106)
  Found a guess vector with spin not close to integer value (4.123106)
  Found a guess vector with spin not close to integer value (4.123106)
  Found a guess vector with spin not close to integer value (4.123106)
  Found a guess vector with spin not close to integer value (4.123106)
  Initial guess found 134 solutions with 2S+1 = 1 *
  Initial guess found 110 solutions with 2S+1 = 3  
  Initial guess found 20 solutions with 2S+1 = 5  

  ==> Diagonalizing Hamiltonian <==

  ----------------------------------------
    Iter.      Avg. Energy       Delta_E
  ----------------------------------------
      1       -7.243086103550  -7.243e+00
      2      -12.973972988296  -5.731e+00
      3      -13.099497940113  -1.255e-01
      4      -14.448084306931  -1.349e+00
      5      -14.457085635231  -9.001e-03
      6      -14.458482866492  -1.397e-03
      7      -14.468611573209  -1.013e-02
      8      -14.468900871851  -2.893e-04
      9      -14.469386177536  -4.853e-04
     10      -14.469423997450  -3.782e-05
     11      -14.469621729843  -1.977e-04
     12      -14.469719032476  -9.730e-05
     13      -14.469761882934  -4.285e-05
     14      -14.469792481651  -3.060e-05
     15      -14.469882210098  -8.973e-05
     16      -14.469916030696  -3.382e-05
     17      -14.469945938133  -2.991e-05
     18      -14.469959350898  -1.341e-05
     19      -14.470059953798  -1.006e-04
     20      -14.470169504656  -1.096e-04
     21      -14.470193482465  -2.398e-05
     22      -14.470219590902  -2.611e-05
     23      -14.470284123654  -6.453e-05
     24      -14.470331366370  -4.724e-05
     25      -14.470396204990  -6.484e-05
     26      -14.470439912067  -4.371e-05
     27      -14.470513356678  -7.344e-05
     28      -14.470567028508  -5.367e-05
     29      -14.470634017991  -6.699e-05
     30      -14.470684630203  -5.061e-05
     31      -14.470771164466  -8.653e-05
     32      -14.470826320068  -5.516e-05
     33      -14.470933508894  -1.072e-04
     34      -14.471024397328  -9.089e-05
     35      -14.471102653334  -7.826e-05
     36      -14.471148277156  -4.562e-05
     37      -14.471223094173  -7.482e-05
     38      -14.471226892571  -3.798e-06
     39      -14.471368770403  -1.419e-04
     40      -14.471395098674  -2.633e-05
     41      -14.471556595934  -1.615e-04
     42      -14.471585484648  -2.889e-05
     43      -14.471710977159  -1.255e-04
     44      -14.471714517301  -3.540e-06
     45      -14.471761089368  -4.657e-05
     46      -14.471762586000  -1.497e-06
     47      -14.471763024296  -4.383e-07
     48      -14.471763065367  -4.107e-08
     49      -14.471764886786  -1.821e-06
     50      -14.471765201272  -3.145e-07
  ----------------------------------------
  The Davidson-Liu algorithm converged in 51 iterations.
        0      190        272           796     -14.487566754336 -1.395e-03     -14.487567129204  1.000e+00     ~

  Davidson-liu solver algorithm
  Found a guess vector with spin not close to integer value (4.123106)
  Found a guess vector with spin not close to integer value (4.123106)
  Found a guess vector with spin not close to integer value (4.123106)
  Found a guess vector with spin not close to integer value (4.123106)
  Found a guess vector with spin not close to integer value (4.123106)
  Found a guess vector with spin not close to integer value (4.123106)
  Found a guess vector with spin not close to integer value (4.123106)
  Found a guess vector with spin not close to integer value (4.123106)
  Found a guess vector with spin not close to integer value (4.123106)
  Found a guess vector with spin not close to integer value (4.123106)
  Found a guess vector with spin not close to integer value (4.123106)
  Found a guess vector with spin not close to integer value (4.123106)
  Found a guess vector with spin not close to integer value (4.123106)
  Found a guess vector with spin not close to integer value (4.123106)
  Found a guess vector with spin not close to integer value (4.123106)
  Found a guess vector with spin not close to integer value (4.123106)
  Found a guess vector with spin not close to integer value (4.123106)
  Found a guess vector with spin not close to integer value (4.123106)
  Found a guess vector with spin not close to integer value (4.123106)
  Found a guess vector with spin not close to integer value (4.123106)
  Found a guess vector with spin not close to integer value (4.123106)
  Found a guess vector with spin not close to integer value (4.123106)
  Found a guess vector with spin not close to integer value (4.123106)
  Found a guess vector with spin not close to integer value (4.123106)
  Found a guess vector with spin not close to integer value (4.123106)
  Found a guess vector with spin not close to integer value (4.123106)
  Found a guess vector with spin not close to integer value (4.123106)
  Found a guess vector with spin not close to integer value (4.123106)
  Found a guess vector with spin not close to integer value (4.123106)
  Found a guess vector with spin not close to integer value (4.123106)
  Initial guess found 162 solutions with 2S+1 = 1 *
  Initial guess found 176 solutions with 2S+1 = 3  
  Initial guess found 32 solutions with 2S+1 = 5  

  ==> Diagonalizing Hamiltonian <==

  ----------------------------------------
    Iter.      Avg. Energy       Delta_E
  ----------------------------------------
      1       -7.243773022469  -7.244e+00
      2      -12.718735390251  -5.475e+00
      3      -13.700989080329  -9.823e-01
      4      -14.447537191906  -7.465e-01
      5      -14.467543425849  -2.001e-02
      6      -14.467888355627  -3.449e-04
      7      -14.467948925061  -6.057e-05
      8      -14.467989338557  -4.041e-05
      9      -14.468086881609  -9.754e-05
     10      -14.468149489459  -6.261e-05
     11      -14.468183688130  -3.420e-05
     12      -14.468206230229  -2.254e-05
     13      -14.468282158281  -7.593e-05
     14      -14.468339661933  -5.750e-05
     15      -14.468382465237  -4.280e-05
     16      -14.468415881600  -3.342e-05
     17      -14.468600138912  -1.843e-04
     18      -14.468743097261  -1.430e-04
     19      -14.469237323837  -4.942e-04
     20      -14.469571557702  -3.342e-04
     21      -14.469837714386  -2.662e-04
     22      -14.469965341459  -1.276e-04
     23      -14.471996848084  -2.032e-03
     24      -14.472126819759  -1.300e-04
     25      -14.480746522279  -8.620e-03
     26      -14.483356310080  -2.610e-03
     27      -14.484173173368  -8.169e-04
     28      -14.484710461746  -5.373e-04
     29      -14.485530507640  -8.200e-04
     30      -14.485727388310  -1.969e-04
     31      -14.486128126048  -4.007e-04
     32      -14.486266376250  -1.383e-04
     33      -14.486978119347  -7.117e-04
     34      -14.487193674679  -2.156e-04
     35      -14.487616550761  -4.229e-04
     36      -14.487751566897  -1.350e-04
     37      -14.488191642914  -4.401e-04
     38      -14.488418228329  -2.266e-04
     39      -14.488682283342  -2.641e-04
     40      -14.488795065829  -1.128e-04
     41      -14.489128833999  -3.338e-04
     42      -14.489338952557  -2.101e-04
     43      -14.489540308360  -2.014e-04
     44      -14.489640962401  -1.007e-04
     45      -14.489970001479  -3.290e-04
     46      -14.490170105435  -2.001e-04
     47      -14.490347388680  -1.773e-04
     48      -14.490439824410  -9.244e-05
     49      -14.490829261722  -3.894e-04
     50      -14.491045906098  -2.166e-04
     51      -14.491261297637  -2.154e-04
     52      -14.491376658772  -1.154e-04
     53      -14.492040728491  -6.641e-04
     54      -14.492373133097  -3.324e-04
     55      -14.493000160932  -6.270e-04
     56      -14.493045537395  -4.538e-05
     57      -14.493085245177  -3.971e-05
     58      -14.493098096952  -1.285e-05
     59      -14.493122219471  -2.412e-05
     60      -14.493132343366  -1.012e-05
     61      -14.493144608564  -1.227e-05
     62      -14.493151548690  -6.940e-06
     63      -14.493167669360  -1.612e-05
     64      -14.493177190094  -9.521e-06
     65      -14.493190450994  -1.326e-05
     66      -14.493198262743  -7.812e-06
     67      -14.493213378920  -1.512e-05
     68      -14.493222795836  -9.417e-06
     69      -14.493233842418  -1.105e-05
     70      -14.493240390210  -6.548e-06
     71      -14.493247814350  -7.424e-06
     72      -14.493254585404  -6.771e-06
     73      -14.493260641213  -6.056e-06
     74      -14.493265781723  -5.141e-06
     75      -14.493272412924  -6.631e-06
     76      -14.493278114234  -5.701e-06
     77      -14.493282084106  -3.970e-06
     78      -14.493285917163  -3.833e-06
     79      -14.493292162580  -6.245e-06
     80      -14.493297625842  -5.463e-06
     81      -14.493300082977  -2.457e-06
     82      -14.493301969221  -1.886e-06
     83      -14.493307787995  -5.819e-06
     84      -14.493312213198  -4.425e-06
     85      -14.493314073657  -1.860e-06
     86      -14.493315451850  -1.378e-06
     87      -14.493321409876  -5.958e-06
     88      -14.493325908130  -4.498e-06
     89      -14.493327671911  -1.764e-06
     90      -14.493329160353  -1.488e-06
     91      -14.493333872983  -4.713e-06
     92      -14.493337652043  -3.779e-06
     93      -14.493338941790  -1.290e-06
     94      -14.493339785834  -8.440e-07
     95      -14.493343474535  -3.689e-06
     96      -14.493346111490  -2.637e-06
     97      -14.493346601465  -4.900e-07
     98      -14.493346967974  -3.665e-07
     99      -14.493348366014  -1.398e-06
    100      -14.493349607384  -1.241e-06
    101      -14.493350763038  -1.156e-06
    102      -14.493351640720  -8.777e-07
    103      -14.493352865754  -1.225e-06
    104      -14.493353856279  -9.905e-07
    105      -14.493354561299  -7.050e-07
    106      -14.493355083307  -5.220e-07
    107      -14.493355810800  -7.275e-07
    108      -14.493356365499  -5.547e-07
    109      -14.493356988810  -6.233e-07
    110      -14.493357470155  -4.813e-07
    111      -14.493357963771  -4.936e-07
    112      -14.493358363972  -4.002e-07
    113      -14.493358892573  -5.286e-07
    114      -14.493359318384  -4.258e-07
    115      -14.493359665054  -3.467e-07
    116      -14.493359958452  -2.934e-07
    117      -14.493360372384  -4.139e-07
    118      -14.493360711134  -3.387e-07
    119      -14.493360964508  -2.534e-07
    120      -14.493361177608  -2.131e-07
    121      -14.493361499932  -3.223e-07
    122      -14.493361767617  -2.677e-07
    123      -14.493361948858  -1.812e-07
    124      -14.493362098771  -1.499e-07
    125      -14.493362353224  -2.545e-07
    126      -14.493362562367  -2.091e-07
    127      -14.493362691524  -1.292e-07
    128      -14.493362796702  -1.052e-07
    129      -14.493362999985  -2.033e-07
    130      -14.493363171711  -1.717e-07
    131      -14.493363261985  -9.027e-08
    132      -14.493363335317  -7.333e-08
    133      -14.493363496453  -1.611e-07
    134      -14.493363631226  -1.348e-07
    135      -14.493363694831  -6.360e-08
    136      -14.493363745468  -5.064e-08
    137      -14.493363872333  -1.269e-07
    138      -14.493363977359  -1.050e-07
    139      -14.493364021555  -4.420e-08
    140      -14.493364056193  -3.464e-08
    141      -14.493364155670  -9.948e-08
    142      -14.493364236984  -8.131e-08
    143      -14.493364267128  -3.014e-08
    144      -14.493364290488  -2.336e-08
    145      -14.493364368174  -7.769e-08
    146      -14.493364430336  -6.216e-08
    147      -14.493364450572  -2.024e-08
    148      -14.493364465934  -1.536e-08
    149      -14.493364526421  -6.049e-08
    150      -14.493364572922  -4.650e-08
    151      -14.493364586004  -1.308e-08
    152      -14.493364595545  -9.541e-09
    153      -14.493364641546  -4.600e-08
    154      -14.493364670454  -2.891e-08
    155      -14.493364680137  -9.683e-09
    156      -14.493364684410  -4.273e-09
  ----------------------------------------
  The Davidson-Liu algorithm converged in 157 iterations.
        1      614        465          2644     -14.463745455451  2.382e-02     -14.499170646591 -1.160e-02     ~

  Davidson-liu solver algorithm
  Found a guess vector with spin not close to integer value (2.236068)
  Found a guess vector with spin not close to integer value (2.236068)
  Found a guess vector with spin not close to integer value (4.123106)
  Found a guess vector with spin not close to integer value (4.123106)
  Found a guess vector with spin not close to integer value (4.123106)
  Found a guess vector with spin not close to integer value (4.123106)
  Found a guess vector with spin not close to integer value (4.123106)
  Found a guess vector with spin not close to integer value (4.123106)
  Found a guess vector with spin not close to integer value (4.123106)
  Found a guess vector with spin not close to integer value (4.123106)
  Found a guess vector with spin not close to integer value (4.123106)
  Found a guess vector with spin not close to integer value (4.123106)
  Found a guess vector with spin not close to integer value (4.123106)
  Found a guess vector with spin not close to integer value (4.123106)
  Found a guess vector with spin not close to integer value (4.123106)
  Found a guess vector with spin not close to integer value (4.123106)
  Found a guess vector with spin not close to integer value (4.123106)
  Found a guess vector with spin not close to integer value (4.123106)
  Found a guess vector with spin not close to integer value (4.123106)
  Found a guess vector with spin not close to integer value (4.123106)
  Found a guess vector with spin not close to integer value (4.123106)
  Found a guess vector with spin not close to integer value (4.123106)
  Found a guess vector with spin not close to integer value (4.123106)
  Found a guess vector with spin not close to integer value (4.123106)
  Found a guess vector with spin not close to integer value (4.123106)
  Found a guess vector with spin not close to integer value (4.123106)
  Found a guess vector with spin not close to integer value (4.123106)
  Found a guess vector with spin not close to integer value (4.123106)
  Found a guess vector with spin not close to integer value (4.123106)
  Found a guess vector with spin not close to integer value (4.123106)
  Found a guess vector with spin not close to integer value (4.123106)
  Found a guess vector with spin not close to integer value (5.744563)
  Found a guess vector with spin not close to integer value (5.744563)
  Initial guess found 167 solutions with 2S+1 = 1 *
  Initial guess found 177 solutions with 2S+1 = 3  
  Initial guess found 23 solutions with 2S+1 = 5  

  ==> Diagonalizing Hamiltonian <==

  ----------------------------------------
    Iter.      Avg. Energy       Delta_E
  ----------------------------------------
      1       -7.235772530352  -7.236e+00
      2      -14.138460705603  -6.903e+00
      3      -14.458907170250  -3.204e-01
      4      -14.478871213634  -1.996e-02
      5      -14.481084535552  -2.213e-03
      6      -14.481195396465  -1.109e-04
      7      -14.481277671342  -8.227e-05
      8      -14.481310771346  -3.310e-05
      9      -14.481331351981  -2.058e-05
     10      -14.481340169100  -8.817e-06
     11      -14.481357060608  -1.689e-05
     12      -14.481363662184  -6.602e-06
     13      -14.481376695829  -1.303e-05
     14      -14.481378315542  -1.620e-06
     15      -14.481379829707  -1.514e-06
     16      -14.481567922302  -1.881e-04
     17      -14.496487547454  -1.492e-02
     18      -14.500357065167  -3.870e-03
     19      -14.500527620875  -1.706e-04
     20      -14.500689532518  -1.619e-04
     21      -14.501307496207  -6.180e-04
     22      -14.501380868373  -7.337e-05
     23      -14.501413043342  -3.217e-05
     24      -14.501439284106  -2.624e-05
     25      -14.501585713219  -1.464e-04
     26      -14.501594914209  -9.201e-06
     27      -14.501598790360  -3.876e-06
     28      -14.501599646202  -8.558e-07
     29      -14.501602443765  -2.798e-06
     30      -14.501603065439  -6.217e-07
     31      -14.501603738418  -6.730e-07
     32      -14.501604003593  -2.652e-07
     33      -14.501604291109  -2.875e-07
     34      -14.501604432884  -1.418e-07
     35      -14.501604486062  -5.318e-08
     36      -14.501604520665  -3.460e-08
     37      -14.501604558891  -3.823e-08
     38      -14.501604584838  -2.595e-08
     39      -14.501604619991  -3.515e-08
     40      -14.501604663556  -4.356e-08
     41      -14.501604710097  -4.654e-08
     42      -14.501604714273  -4.176e-09
  ----------------------------------------
  The Davidson-Liu algorithm converged in 43 iterations.
        2      158        430          1702     -14.515754685295 -5.201e-02     -14.515740256894 -1.657e-02     ~

  Davidson-liu solver algorithm
  Found a guess vector with spin not close to integer value (2.013884)
  Found a guess vector with spin not close to integer value (2.013884)
  Found a guess vector with spin not close to integer value (2.236068)
  Found a guess vector with spin not close to integer value (2.236068)
  Found a guess vector with spin not close to integer value (4.123106)
  Found a guess vector with spin not close to integer value (4.123106)
  Found a guess vector with spin not close to integer value (4.123106)
  Found a guess vector with spin not close to integer value (4.123106)
  Found a guess vector with spin not close to integer value (4.123106)
  Found a guess vector with spin not close to integer value (4.123106)
  Found a guess vector with spin not close to integer value (4.123106)
  Found a guess vector with spin not close to integer value (4.123106)
  Found a guess vector with spin not close to integer value (4.123106)
  Found a guess vector with spin not close to integer value (4.123106)
  Found a guess vector with spin not close to integer value (4.123106)
  Found a guess vector with spin not close to integer value (4.123106)
  Found a guess vector with spin not close to integer value (4.123106)
  Found a guess vector with spin not close to integer value (4.123106)
  Found a guess vector with spin not close to integer value (4.123106)
  Found a guess vector with spin not close to integer value (4.123106)
  Found a guess vector with spin not close to integer value (4.123106)
  Found a guess vector with spin not close to integer value (4.123106)
  Found a guess vector with spin not close to integer value (4.123106)
  Found a guess vector with spin not close to integer value (4.123106)
  Found a guess vector with spin not close to integer value (4.684471)
  Found a guess vector with spin not close to integer value (4.684471)
  Found a guess vector with spin not close to integer value (6.082763)
  Found a guess vector with spin not close to integer value (6.082763)
  Initial guess found 163 solutions with 2S+1 = 1 *
  Initial guess found 182 solutions with 2S+1 = 3  
  Initial guess found 27 solutions with 2S+1 = 5  

  ==> Diagonalizing Hamiltonian <==

  ----------------------------------------
    Iter.      Avg. Energy       Delta_E
  ----------------------------------------
      1       -7.257907053986  -7.258e+00
      2      -13.406604256808  -6.149e+00
      3      -14.060071200300  -6.535e-01
      4      -14.450993456535  -3.909e-01
      5      -14.453255921280  -2.262e-03
      6      -14.453932861828  -6.769e-04
      7      -14.465345116276  -1.141e-02
      8      -14.471305222409  -5.960e-03
      9      -14.479837231879  -8.532e-03
     10      -14.480218239534  -3.810e-04
     11      -14.481212735083  -9.945e-04
     12      -14.481311808522  -9.907e-05
     13      -14.481339913109  -2.810e-05
     14      -14.481350963121  -1.105e-05
     15      -14.481410231594  -5.927e-05
     16      -14.481410450169  -2.186e-07
     17      -14.481413506985  -3.057e-06
     18      -14.481414654896  -1.148e-06
     19      -14.483367746016  -1.953e-03
     20      -14.483401752730  -3.401e-05
     21      -14.483769105738  -3.674e-04
     22      -14.484149037322  -3.799e-04
     23      -14.486336615869  -2.188e-03
     24      -14.486600847535  -2.642e-04
     25      -14.488199170640  -1.598e-03
     26      -14.488963776627  -7.646e-04
     27      -14.490289027301  -1.325e-03
     28      -14.494183906668  -3.895e-03
     29      -14.501198806721  -7.015e-03
     30      -14.501236538452  -3.773e-05
     31      -14.501472805129  -2.363e-04
     32      -14.501507381628  -3.458e-05
     33      -14.501522323940  -1.494e-05
     34      -14.501524588335  -2.264e-06
     35      -14.501535740176  -1.115e-05
     36      -14.501539445012  -3.705e-06
     37      -14.501579335188  -3.989e-05
     38      -14.501582424016  -3.089e-06
     39      -14.501586105753  -3.682e-06
     40      -14.501588884449  -2.779e-06
     41      -14.501591027807  -2.143e-06
     42      -14.501593192879  -2.165e-06
     43      -14.501595550574  -2.358e-06
     44      -14.501596828946  -1.278e-06
     45      -14.501600615628  -3.787e-06
     46      -14.501602245110  -1.629e-06
     47      -14.501605226292  -2.981e-06
     48      -14.501607835076  -2.609e-06
     49      -14.501609028011  -1.193e-06
     50      -14.501610256410  -1.228e-06
     51      -14.501612335611  -2.079e-06
     52      -14.501614254797  -1.919e-06
     53      -14.501615193363  -9.386e-07
     54      -14.501616181027  -9.877e-07
     55      -14.501617707012  -1.526e-06
     56      -14.501619141767  -1.435e-06
     57      -14.501619935194  -7.934e-07
     58      -14.501620763410  -8.282e-07
     59      -14.501621921754  -1.158e-06
     60      -14.501623024750  -1.103e-06
     61      -14.501623713416  -6.887e-07
     62      -14.501624431427  -7.180e-07
     63      -14.501625317504  -8.861e-07
     64      -14.501626172192  -8.547e-07
     65      -14.501626780125  -6.079e-07
     66      -14.501627416110  -6.360e-07
     67      -14.501628094877  -6.788e-07
     68      -14.501628757633  -6.628e-07
     69      -14.501629302309  -5.447e-07
     70      -14.501629874551  -5.722e-07
     71      -14.501630393362  -5.188e-07
     72      -14.501630904391  -5.110e-07
     73      -14.501631399694  -4.953e-07
     74      -14.501631920829  -5.211e-07
     75      -14.501632315598  -3.948e-07
     76      -14.501632704425  -3.888e-07
     77      -14.501633161927  -4.575e-07
     78      -14.501633641010  -4.791e-07
     79      -14.501633939981  -2.990e-07
     80      -14.501634228709  -2.887e-07
     81      -14.501634658418  -4.297e-07
     82      -14.501635101960  -4.435e-07
     83      -14.501635328442  -2.265e-07
     84      -14.501635533892  -2.055e-07
     85      -14.501635944738  -4.108e-07
     86      -14.501636357162  -4.124e-07
     87      -14.501636531951  -1.748e-07
     88      -14.501636667100  -1.351e-07
     89      -14.501637067056  -4.000e-07
     90      -14.501637450533  -3.835e-07
     91      -14.501637595395  -1.449e-07
     92      -14.501637670172  -7.478e-08
     93      -14.501638062992  -3.928e-07
     94      -14.501638414578  -3.516e-07
     95      -14.501638567492  -1.529e-07
     96      -14.501638588289  -2.080e-08
     97      -14.501639232747  -6.445e-07
     98      -14.501639672331  -4.396e-07
     99      -14.501639847410  -1.751e-07
    100      -14.501639868927  -2.152e-08
    101      -14.501640189927  -3.210e-07
    102      -14.501640422776  -2.328e-07
    103      -14.501640602763  -1.800e-07
    104      -14.501640605891  -3.129e-09
  ----------------------------------------
  The Davidson-Liu algorithm converged in 105 iterations.
        3      406        468          3108     -14.515857618773 -1.029e-04     -14.515830994426 -9.074e-05     ~

  Davidson-liu solver algorithm
  Found a guess vector with spin not close to integer value (1.828427)
  Found a guess vector with spin not close to integer value (1.828427)
  Found a guess vector with spin not close to integer value (2.236068)
  Found a guess vector with spin not close to integer value (2.236068)
  Found a guess vector with spin not close to integer value (3.828427)
  Found a guess vector with spin not close to integer value (3.828427)
  Found a guess vector with spin not close to integer value (4.123106)
  Found a guess vector with spin not close to integer value (4.123106)
  Found a guess vector with spin not close to integer value (4.123106)
  Found a guess vector with spin not close to integer value (4.123106)
  Found a guess vector with spin not close to integer value (4.123106)
  Found a guess vector with spin not close to integer value (4.123106)
  Found a guess vector with spin not close to integer value (4.123106)
  Found a guess vector with spin not close to integer value (4.123106)
  Found a guess vector with spin not close to integer value (4.123106)
  Found a guess vector with spin not close to integer value (4.123106)
  Found a guess vector with spin not close to integer value (4.123106)
  Found a guess vector with spin not close to integer value (4.123106)
  Found a guess vector with spin not close to integer value (4.123106)
  Found a guess vector with spin not close to integer value (4.123106)
  Found a guess vector with spin not close to integer value (4.123106)
  Found a guess vector with spin not close to integer value (4.123106)
  Found a guess vector with spin not close to integer value (4.123106)
  Found a guess vector with spin not close to integer value (4.123106)
  Found a guess vector with spin not close to integer value (4.123106)
  Found a guess vector with spin not close to integer value (4.123106)
  Found a guess vector with spin not close to integer value (4.123106)
  Found a guess vector with spin not close to integer value (4.123106)
  Found a guess vector with spin not close to integer value (4.123106)
  Found a guess vector with spin not close to integer value (6.082763)
  Found a guess vector with spin not close to integer value (6.082763)
  Initial guess found 163 solutions with 2S+1 = 1 *
  Initial guess found 178 solutions with 2S+1 = 3  
  Initial guess found 28 solutions with 2S+1 = 5  

  ==> Diagonalizing Hamiltonian <==

  ----------------------------------------
    Iter.      Avg. Energy       Delta_E
  ----------------------------------------
      1       -7.257915258492  -7.258e+00
      2      -11.884493841865  -4.627e+00
      3      -14.452626197255  -2.568e+00
      4      -14.463501657918  -1.088e-02
      5      -14.478113607360  -1.461e-02
      6      -14.478541649494  -4.280e-04
      7      -14.480915114268  -2.373e-03
      8      -14.481248263609  -3.331e-04
      9      -14.481389157090  -1.409e-04
     10      -14.481394788357  -5.631e-06
     11      -14.482819157846  -1.424e-03
     12      -14.483031636650  -2.125e-04
     13      -14.484772558770  -1.741e-03
     14      -14.486384335129  -1.612e-03
     15      -14.487798736052  -1.414e-03
     16      -14.488711296041  -9.126e-04
     17      -14.490748642885  -2.037e-03
     18      -14.494897885623  -4.149e-03
     19      -14.501127261887  -6.229e-03
     20      -14.501142081758  -1.482e-05
     21      -14.501278596204  -1.365e-04
     22      -14.501282264656  -3.668e-06
     23      -14.501375331885  -9.307e-05
     24      -14.501385634550  -1.030e-05
     25      -14.501457559171  -7.192e-05
     26      -14.501460489355  -2.930e-06
     27      -14.501506803078  -4.631e-05
     28      -14.501511368045  -4.565e-06
     29      -14.501542417213  -3.105e-05
     30      -14.501543877153  -1.460e-06
     31      -14.501569570298  -2.569e-05
     32      -14.501572068037  -2.498e-06
     33      -14.501586100221  -1.403e-05
     34      -14.501586751181  -6.510e-07
     35      -14.501598008787  -1.126e-05
     36      -14.501599343434  -1.335e-06
     37      -14.501607024378  -7.681e-06
     38      -14.501607440566  -4.162e-07
     39      -14.501614297043  -6.856e-06
     40      -14.501615275300  -9.783e-07
     41      -14.501619924985  -4.650e-06
     42      -14.501620203247  -2.783e-07
     43      -14.501624617967  -4.415e-06
     44      -14.501625425544  -8.076e-07
     45      -14.501628480632  -3.055e-06
     46      -14.501628659791  -1.792e-07
     47      -14.501631796279  -3.136e-06
     48      -14.501632525548  -7.293e-07
     49      -14.501634584975  -2.059e-06
     50      -14.501634704117  -1.191e-07
     51      -14.501637031806  -2.328e-06
     52      -14.501637758964  -7.272e-07
     53      -14.501639105886  -1.347e-06
     54      -14.501639179545  -7.366e-08
     55      -14.501640907234  -1.728e-06
     56      -14.501641789672  -8.824e-07
     57      -14.501642436103  -6.464e-07
     58      -14.501642481432  -4.533e-08
     59      -14.501643670317  -1.189e-06
     60      -14.501644401229  -7.309e-07
     61      -14.501644740532  -3.393e-07
     62      -14.501644810723  -7.019e-08
     63      -14.501647440231  -2.630e-06
     64      -14.501647457928  -1.770e-08
     65      -14.501648734034  -1.276e-06
     66      -14.501648758179  -2.415e-08
     67      -14.501648869105  -1.109e-07
     68      -14.501648870246  -1.141e-09
  ----------------------------------------
  The Davidson-Liu algorithm converged in 69 iterations.
        4      262        482          3224     -14.515851743285  5.875e-06     -14.515830975619  1.881e-08     ~
  --------------------------------------------------------------------------------------------------------------~

  Calculation stoped in appearance of higher new low.

  ==> Post-Iterations <==

  * Size of CI space                    = 482
  * Number of off-diagonal elements     = 3224
  * ElementwiseCI Approximate Energy    =   -14.515830975619 Eh
  * ElementwiseCI Projective  Energy    =   -14.515851743285 Eh

  Most important contributions to the wave function:

    0      -0.565906       0.32025           0 |2000022000000000000000000000000000000000000000000000000000000000>    -16.780684423917
    1      -0.514185      0.264386           1 |2+-0020000000000000000000000000000000000000000000000000000000000>    -16.872775657949
    2      -0.514185      0.264386           2 |2-+0020000000000000000000000000000000000000000000000000000000000>    -16.872775657949
    3       0.265184     0.0703226           3 |2000020020000000000000000000000000000000000000000000000000000000>    -16.844531944287
    4       0.265184     0.0703225           4 |2000020002000000000000000000000000000000000000000000000000000000>    -16.844531944287
    5      0.0725658     0.0052658           5 |2020020000000000000000000000000000000000000000000000000000000000>    -16.722588679069
    6      0.0484232     0.0023448           6 |2200020000000000000000000000000000000000000000000000000000000000>    -16.991042186105
    7     -0.0301907   0.000911479           7 |2002020000000000000000000000000000000000000000000000000000000000>    -16.542435848077
    8     -0.0301882   0.000911325           8 |2000220000000000000000000000000000000000000000000000000000000000>    -16.542435848077
    9      0.0157491   0.000248034           9 |2000020200000000000000000000000000000000000000000000000000000000>    -15.877818677698

  Spin State: S^2 = -0.000, S = 0.000, singlet (from 5 determinants,98.97%)
  ElementwiseCI (bitset) steps finished in  : 8.021584 s

  Variational energy estimated with 482 determinants to meet the max error 0.000000e+00

  ==> Computing Coupling Lists <==
  --------------------------------
        α          0.001839 s
        β          0.001836 s
        αα         0.001951 s
        ββ         0.001901 s
        αβ         0.004985 s
  --------------------------------
  * ElementwiseCI Variational Energy    =   -14.515843559047 Eh
  * ElementwiseCI Var. Corr.  Energy    =     0.093901179043 Eh
  * 1st order perturbation   Energy     =    -0.000012583427 Eh

  ElementwiseCI (bitset) ran in  : 8.037954 s

  Saving the wave function:

  Saving root 1, ref_root is 1
  Number of old roots: 2

  ==> Excited state solver summary <==

  Iterations required:                         4
  Dimension of optimized determinant space:    482

  * Selected-CI Energy Root   0        = -14.646155327104 Eh =   0.0000 eV
  * Selected-CI Energy Root   0 + EPT2 = -14.646155327104 Eh =   0.0000 eV
  * Selected-CI Energy Root   1        = -14.515830975619 Eh =   3.5463 eV
  * Selected-CI Energy Root   1 + EPT2 = -14.515830975619 Eh =   3.5463 eV

  Saving information for root: 1

  ==> Energy Summary <==

    Multi.  Irrep.  No.               Energy
    -----------------------------------------
       1      Ag     0       -14.646155327104
       1      Ag     1       -14.515830975619
    -----------------------------------------	EWCI excited state energy.........................................PASSED

    Psi4 stopped on: Sunday, 17 February 2019 01:17PM
    Psi4 wall time for execution: 0:00:10.25

*** Psi4 exiting successfully. Buy a developer a beer!
