
    -----------------------------------------------------------------------
          Psi4: An Open-Source Ab Initio Electronic Structure Package
                               Psi4 1.1a2.dev197 

                         Git: Rev {master} 0bd885f 


    J. M. Turney, A. C. Simmonett, R. M. Parrish, E. G. Hohenstein,
    F. A. Evangelista, J. T. Fermann, B. J. Mintz, L. A. Burns, J. J. Wilke,
    M. L. Abrams, N. J. Russ, M. L. Leininger, C. L. Janssen, E. T. Seidl,
    W. D. Allen, H. F. Schaefer, R. A. King, E. F. Valeev, C. D. Sherrill,
    and T. D. Crawford, WIREs Comput. Mol. Sci. 2, 556-565 (2012)
    (doi: 10.1002/wcms.93)


                         Additional Contributions by
    A. E. DePrince, U. Bozkaya, A. Yu. Sokolov, D. G. A. Smith, R. Di Remigio,
    R. M. Richard, J. F. Gonthier, H. R. McAlexander, M. Saitow, and
    B. P. Pritchard
    -----------------------------------------------------------------------


    Psi4 started on: Saturday, 21 January 2017 10:43AM

    Process ID:  69775
    PSIDATADIR: /Users/tianyuanzhang/Documents/Source/psi4-bin-clang-debug/share/psi4
    Memory:     500.0 MiB
    Threads:    1
    
  ==> Input File <==

--------------------------------------------------------------------------
#! This tests the Adaptive Path-Integral FCI procedure with dynamic prescreening
#! Generated using commit GITCOMMIT

import forte

refscf = -14.6097447388741113 #TEST
refpci = -14.646162385366 #TEST

molecule li2{
   Li
   Li 1 2.0000
}

set {
  basis sto-3g
  scf_type pk
  e_convergence 12
}

set forte {
  job_type pci
  nroot 1
  charge 0
  tau 1.0
  spawning_threshold 0.0001
  ENERGY_ESTIMATE_FREQ 100
  FAST_EVAR true
  USE_INTER_NORM true
  ENERGY_ESTIMATE_THRESHOLD 1e-5
  DYNAMIC_PRESCREENING true
  GENERATOR POWER
  MP2_NOS true
  maxbeta 100000.00
}

energy('scf')
compare_values(refscf, get_variable("CURRENT ENERGY"), 11, "SCF energy") #TEST

energy('forte')
compare_values(refpci, get_variable("PCI ENERGY"), 10, "PCI energy") #TEST
--------------------------------------------------------------------------
/Users/tianyuanzhang/Documents/Source/forte/forte.so loaded.

*** tstart() called on Tianyuans-MacBook-Air.local
*** at Sat Jan 21 10:43:43 2017

    There are an even number of electrons - assuming singlet.
    Specify the multiplicity in the molecule input block.


         ---------------------------------------------------------
                                   SCF
            by Justin Turney, Rob Parrish, and Andy Simmonett
                              RHF Reference
                        1 Threads,    524 MiB Core
         ---------------------------------------------------------

  ==> Geometry <==

    Molecular point group: d2h
    Full point group: D_inf_h

    Geometry (in Angstrom), charge = 0, multiplicity = 1:

       Center              X                  Y                   Z               Mass       
    ------------   -----------------  -----------------  -----------------  -----------------
          LI          0.000000000000     0.000000000000    -1.000000000000     7.016004548000
          LI          0.000000000000     0.000000000000     1.000000000000     7.016004548000

  Running in d2h symmetry.

  Rotational constants: A = ************  B =      1.20137  C =      1.20137 [cm^-1]
  Rotational constants: A = ************  B =  36016.15432  C =  36016.15432 [MHz]
  Nuclear repulsion =    2.381297438654999

  Charge       = 0
  Multiplicity = 1
  Electrons    = 6
  Nalpha       = 3
  Nbeta        = 3

  ==> Algorithm <==

  SCF Algorithm Type is PK.
  DIIS enabled.
  MOM disabled.
  Fractional occupation disabled.
  Guess Type is SAD.
  Energy threshold   = 1.00e-12
  Density threshold  = 1.00e-06
  Integral threshold = 0.00e+00

  ==> Primary Basis <==

  Basis Set: file /Users/tianyuanzhang/Documents/Source/psi4-bin-clang-debug/share/psi4/basis/sto-3g.gbs
    Number of shells: 6
    Number of basis function: 10
    Number of Cartesian functions: 10
    Spherical Harmonics?: true
    Max angular momentum: 1

  ==> Pre-Iterations <==

   -------------------------------------------------------
    Irrep   Nso     Nmo     Nalpha   Nbeta   Ndocc  Nsocc
   -------------------------------------------------------
     Ag         3       3       0       0       0       0
     B1g        0       0       0       0       0       0
     B2g        1       1       0       0       0       0
     B3g        1       1       0       0       0       0
     Au         0       0       0       0       0       0
     B1u        3       3       0       0       0       0
     B2u        1       1       0       0       0       0
     B3u        1       1       0       0       0       0
   -------------------------------------------------------
    Total      10      10       3       3       3       0
   -------------------------------------------------------

  ==> Integral Setup <==

  Using in-core PK algorithm.
   Calculation information:
      Number of atoms:                   2
      Number of AO shells:               6
      Number of primitives:             18
      Number of atomic orbitals:        10
      Number of basis functions:        10

      Integral cutoff                 1.00e-12
      Number of threads:                 1

  Performing in-core PK
  Using 3080 doubles for integral storage.
  We computed 231 shell quartets total.
  Whereas there are 231 unique shell quartets.
  ==> DiskJK: Disk-Based J/K Matrices <==

    J tasked:                  Yes
    K tasked:                  Yes
    wK tasked:                  No
    Memory (MB):               375
    Schwarz Cutoff:          1E-12

    OpenMP threads:              1
  Minimum eigenvalue in the overlap matrix is 4.0289193593E-02.
  Using Symmetric Orthogonalization.

  SCF Guess: Superposition of Atomic Densities via on-the-fly atomic UHF.

  ==> Iterations <==

                        Total Energy        Delta E     RMS |[F,P]|

   @RHF iter   0:   -14.58573852603513   -1.45857e+01   6.38128e-02 
   @RHF iter   1:   -14.60879129784490   -2.30528e-02   3.90853e-03 
   @RHF iter   2:   -14.60956780431854   -7.76506e-04   1.49380e-03 DIIS
   @RHF iter   3:   -14.60974068519981   -1.72881e-04   2.15662e-04 DIIS
   @RHF iter   4:   -14.60974473694129   -4.05174e-06   4.32612e-06 DIIS
   @RHF iter   5:   -14.60974473887198   -1.93069e-09   1.41353e-07 DIIS
   @RHF iter   6:   -14.60974473887410   -2.12630e-12   3.63226e-09 DIIS
   @RHF iter   7:   -14.60974473887411   -7.10543e-15   1.73384e-11 DIIS

  ==> Post-Iterations <==

    Orbital Energies (a.u.)
    -----------------------

    Doubly Occupied:                                                      

       1Ag    -2.340313     1B1u   -2.335347     2Ag    -0.163839  

    Virtual:                                                              

       2B1u    0.093646     1B2u    0.108933     1B3u    0.108933  
       3Ag     0.176245     1B2g    0.275579     1B3g    0.275579  
       3B1u    0.645556  

    Final Occupation by Irrep:
             Ag   B1g   B2g   B3g    Au   B1u   B2u   B3u 
    DOCC [     2,    0,    0,    0,    0,    1,    0,    0 ]

  Energy converged.

  @RHF Final Energy:   -14.60974473887411

   => Energetics <=

    Nuclear Repulsion Energy =              2.3812974386549994
    One-Electron Energy =                 -24.3030864505908895
    Two-Electron Energy =                   7.3120442730617796
    DFT Exchange-Correlation Energy =       0.0000000000000000
    Empirical Dispersion Energy =           0.0000000000000000
    PCM Polarization Energy =               0.0000000000000000
    EFP Energy =                            0.0000000000000000
    Total Energy =                        -14.6097447388741095



Properties will be evaluated at   0.000000,   0.000000,   0.000000 Bohr

Properties computed using the SCF density matrix

  Nuclear Dipole Moment: (a.u.)
     X:     0.0000      Y:     0.0000      Z:     0.0000

  Electronic Dipole Moment: (a.u.)
     X:     0.0000      Y:     0.0000      Z:     0.0000

  Dipole Moment: (a.u.)
     X:     0.0000      Y:     0.0000      Z:     0.0000     Total:     0.0000

  Dipole Moment: (Debye)
     X:     0.0000      Y:     0.0000      Z:     0.0000     Total:     0.0000


*** tstop() called on Tianyuans-MacBook-Air.local at Sat Jan 21 10:43:44 2017
Module time:
	user time   =       0.49 seconds =       0.01 minutes
	system time =       0.02 seconds =       0.00 minutes
	total time  =          1 seconds =       0.02 minutes
Total time:
	user time   =       0.49 seconds =       0.01 minutes
	system time =       0.02 seconds =       0.00 minutes
	total time  =          1 seconds =       0.02 minutes
	SCF energy........................................................PASSED

         ---------------------------------------------------------
                                   SCF
            by Justin Turney, Rob Parrish, and Andy Simmonett
                              RHF Reference
                        1 Threads,    524 MiB Core
         ---------------------------------------------------------

  ==> Geometry <==

    Molecular point group: d2h
    Full point group: D_inf_h

    Geometry (in Angstrom), charge = 0, multiplicity = 1:

       Center              X                  Y                   Z               Mass       
    ------------   -----------------  -----------------  -----------------  -----------------
          LI          0.000000000000     0.000000000000    -1.000000000000     7.016004548000
          LI          0.000000000000     0.000000000000     1.000000000000     7.016004548000

  Running in d2h symmetry.

  Rotational constants: A = ************  B =      1.20137  C =      1.20137 [cm^-1]
  Rotational constants: A = ************  B =  36016.15432  C =  36016.15432 [MHz]
  Nuclear repulsion =    2.381297438654999

  Charge       = 0
  Multiplicity = 1
  Electrons    = 6
  Nalpha       = 3
  Nbeta        = 3

  ==> Algorithm <==

  SCF Algorithm Type is PK.
  DIIS enabled.
  MOM disabled.
  Fractional occupation disabled.
  Guess Type is SAD.
  Energy threshold   = 1.00e-12
  Density threshold  = 1.00e-08
  Integral threshold = 0.00e+00

  ==> Primary Basis <==

  Basis Set: file /Users/tianyuanzhang/Documents/Source/psi4-bin-clang-debug/share/psi4/basis/sto-3g.gbs
    Number of shells: 6
    Number of basis function: 10
    Number of Cartesian functions: 10
    Spherical Harmonics?: true
    Max angular momentum: 1

  ==> Pre-Iterations <==

   -------------------------------------------------------
    Irrep   Nso     Nmo     Nalpha   Nbeta   Ndocc  Nsocc
   -------------------------------------------------------
     Ag         3       3       0       0       0       0
     B1g        0       0       0       0       0       0
     B2g        1       1       0       0       0       0
     B3g        1       1       0       0       0       0
     Au         0       0       0       0       0       0
     B1u        3       3       0       0       0       0
     B2u        1       1       0       0       0       0
     B3u        1       1       0       0       0       0
   -------------------------------------------------------
    Total      10      10       3       3       3       0
   -------------------------------------------------------

  ==> Integral Setup <==

  Using in-core PK algorithm.
   Calculation information:
      Number of atoms:                   2
      Number of AO shells:               6
      Number of primitives:             18
      Number of atomic orbitals:        10
      Number of basis functions:        10

      Integral cutoff                 1.00e-12
      Number of threads:                 1

  Performing in-core PK
  Using 3080 doubles for integral storage.
  We computed 231 shell quartets total.
  Whereas there are 231 unique shell quartets.
  ==> DiskJK: Disk-Based J/K Matrices <==

    J tasked:                  Yes
    K tasked:                  Yes
    wK tasked:                  No
    Memory (MB):               375
    Schwarz Cutoff:          1E-12

    OpenMP threads:              1
  Minimum eigenvalue in the overlap matrix is 4.0289193593E-02.
  Using Symmetric Orthogonalization.

  SCF Guess: Superposition of Atomic Densities via on-the-fly atomic UHF.

  ==> Iterations <==

                        Total Energy        Delta E     RMS |[F,P]|

   @RHF iter   0:   -14.58573852603513   -1.45857e+01   6.38128e-02 
   @RHF iter   1:   -14.60879129784489   -2.30528e-02   3.90853e-03 
   @RHF iter   2:   -14.60956780431854   -7.76506e-04   1.49380e-03 DIIS
   @RHF iter   3:   -14.60974068519980   -1.72881e-04   2.15662e-04 DIIS
   @RHF iter   4:   -14.60974473694128   -4.05174e-06   4.32612e-06 DIIS
   @RHF iter   5:   -14.60974473887197   -1.93069e-09   1.41353e-07 DIIS
   @RHF iter   6:   -14.60974473887410   -2.13163e-12   3.63226e-09 DIIS
   @RHF iter   7:   -14.60974473887411   -5.32907e-15   1.73383e-11 DIIS

  ==> Post-Iterations <==

    Orbital Energies (a.u.)
    -----------------------

    Doubly Occupied:                                                      

       1Ag    -2.340313     1B1u   -2.335347     2Ag    -0.163839  

    Virtual:                                                              

       2B1u    0.093646     1B2u    0.108933     1B3u    0.108933  
       3Ag     0.176245     1B2g    0.275579     1B3g    0.275579  
       3B1u    0.645556  

    Final Occupation by Irrep:
             Ag   B1g   B2g   B3g    Au   B1u   B2u   B3u 
    DOCC [     2,    0,    0,    0,    0,    1,    0,    0 ]

  Energy converged.

  @RHF Final Energy:   -14.60974473887411

   => Energetics <=

    Nuclear Repulsion Energy =              2.3812974386549994
    One-Electron Energy =                 -24.3030864505908859
    Two-Electron Energy =                   7.3120442730617778
    DFT Exchange-Correlation Energy =       0.0000000000000000
    Empirical Dispersion Energy =           0.0000000000000000
    PCM Polarization Energy =               0.0000000000000000
    EFP Energy =                            0.0000000000000000
    Total Energy =                        -14.6097447388741077



Properties will be evaluated at   0.000000,   0.000000,   0.000000 Bohr

Properties computed using the SCF density matrix

  Nuclear Dipole Moment: (a.u.)
     X:     0.0000      Y:     0.0000      Z:     0.0000

  Electronic Dipole Moment: (a.u.)
     X:     0.0000      Y:     0.0000      Z:     0.0000

  Dipole Moment: (a.u.)
     X:     0.0000      Y:     0.0000      Z:     0.0000     Total:     0.0000

  Dipole Moment: (Debye)
     X:     0.0000      Y:     0.0000      Z:     0.0000     Total:     0.0000

 MINTS: Wrapper to libmints.
   by Justin Turney

   Calculation information:
      Number of atoms:                   2
      Number of AO shells:               6
      Number of SO shells:               3
      Number of primitives:             18
      Number of atomic orbitals:        10
      Number of basis functions:        10

      Number of irreps:                  8
      Integral cutoff                 0.00e+00
      Number of functions per irrep: [   3    0    1    1    0    3    1    1 ]

 OEINTS: Overlap, kinetic, potential, dipole, and quadrupole integrals
         stored in file 35.

      Computing two-electron integrals...done
      Computed 292 non-zero two-electron integrals.
        Stored in file 33.


Reading options from the FORTE block
Calling plugin forte.so.




  ==> MO Space Information <==

  -------------------------------------------------------------------------
                       Ag   B1g   B2g   B3g    Au   B1u   B2u   B3u   Sum
  -------------------------------------------------------------------------
    FROZEN_DOCC         0     0     0     0     0     0     0     0     0
    RESTRICTED_DOCC     0     0     0     0     0     0     0     0     0
    ACTIVE              3     0     1     1     0     3     1     1    10
    RESTRICTED_UOCC     0     0     0     0     0     0     0     0     0
    FROZEN_UOCC         0     0     0     0     0     0     0     0     0
    Total               3     0     1     1     0     3     1     1    10
  -------------------------------------------------------------------------

  ==> Integral Transformation <==

  Number of molecular orbitals:               10
  Number of correlated molecular orbitals:    10
  Number of frozen occupied orbitals:          0
  Number of frozen unoccupied orbitals:        0

    Molecular point group: d2h
    Full point group: D_inf_h

    Geometry (in Angstrom), charge = 0, multiplicity = 1:

       Center              X                  Y                   Z               Mass       
    ------------   -----------------  -----------------  -----------------  -----------------
          LI          0.000000000000     0.000000000000    -1.000000000000     7.016004548000
          LI          0.000000000000     0.000000000000     1.000000000000     7.016004548000

  -AO BASIS SET INFORMATION:
    Name                   = file /Users/tianyuanzhang/Documents/Source/psi4-bin-clang-debug/share/psi4/basis/sto-3g.gbs
    Total number of shells = 6
    Number of primitives   = 18
    Number of AO           = 10
    Number of SO           = 10
    Maximum AM             = 1
    Spherical Harmonics    = TRUE

  -Contraction Scheme:
    Atom   Type   All Primitives // Shells:
   ------ ------ --------------------------
       1    LI     6s 3p // 2s 1p 
       2    LI     6s 3p // 2s 1p 

  ==> AO Basis Functions <==

    [ file /Users/tianyuanzhang/Documents/Source/psi4-bin-clang-debug/share/psi4/basis/sto-3g.gbs ]
    spherical
    ****
   LI   1
    S   3 1.00
                        16.11957500           0.15432897
                         2.93620070           0.53532814
                         0.79465050           0.44463454
    S   3 1.00
                         0.63628970          -0.09996723
                         0.14786010           0.39951283
                         0.04808870           0.70011547
    P   3 1.00
                         0.63628970           0.15591627
                         0.14786010           0.60768372
                         0.04808870           0.39195739
    ****


  Overall Conventional Integrals timings

	Presorting SO-basis two-electron integrals.
	Sorting File: SO Ints (nn|nn) nbuckets = 1
	Transforming the one-electron integrals and constructing Fock matrices
	Starting first half-transformation.
	Sorting half-transformed integrals.
	First half integral transformation complete.
	Starting second half-transformation.
	Two-electron integral transformation complete.

  Integral transformation done. 0.00642700 s
  Reading the two-electron integrals from disk
  Size of two-electron integrals:   0.000224 GB
  Conventional integrals take 0.04512300 s

                ------------------------------------------------
                  Second-Order Moller-Plesset Natural Orbitals
                      written by Francesco A. Evangelista
                ------------------------------------------------


    SCF energy                            =  -14.609744738874108
    MP2 correlation energy                =   -0.018767063805292
  * MP2 total energy                      =  -14.628511802679400

    Molecular point group: d2h
    Full point group: D_inf_h

    Geometry (in Angstrom), charge = 0, multiplicity = 1:

       Center              X                  Y                   Z               Mass       
    ------------   -----------------  -----------------  -----------------  -----------------
          LI          0.000000000000     0.000000000000    -1.000000000000     7.016004548000
          LI          0.000000000000     0.000000000000     1.000000000000     7.016004548000

  -AO BASIS SET INFORMATION:
    Name                   = file /Users/tianyuanzhang/Documents/Source/psi4-bin-clang-debug/share/psi4/basis/sto-3g.gbs
    Total number of shells = 6
    Number of primitives   = 18
    Number of AO           = 10
    Number of SO           = 10
    Maximum AM             = 1
    Spherical Harmonics    = TRUE

  -Contraction Scheme:
    Atom   Type   All Primitives // Shells:
   ------ ------ --------------------------
       1    LI     6s 3p // 2s 1p 
       2    LI     6s 3p // 2s 1p 

  ==> AO Basis Functions <==

    [ file /Users/tianyuanzhang/Documents/Source/psi4-bin-clang-debug/share/psi4/basis/sto-3g.gbs ]
    spherical
    ****
   LI   1
    S   3 1.00
                        16.11957500           0.15432897
                         2.93620070           0.53532814
                         0.79465050           0.44463454
    S   3 1.00
                         0.63628970          -0.09996723
                         0.14786010           0.39951283
                         0.04808870           0.70011547
    P   3 1.00
                         0.63628970           0.15591627
                         0.14786010           0.60768372
                         0.04808870           0.39195739
    ****


 Integrals are about to be computed.	Presorting SO-basis two-electron integrals.
	Sorting File: SO Ints (nn|nn) nbuckets = 1
	Transforming the one-electron integrals and constructing Fock matrices
	Starting first half-transformation.
	Sorting half-transformed integrals.
	First half integral transformation complete.
	Starting second half-transformation.
	Two-electron integral transformation complete.

  Integral transformation done. 0.00571400 s
  Reading the two-electron integrals from disk
  Size of two-electron integrals:   0.000224 GB
 Integrals are about to be updated.
  Frozen Orbitals takes     0.000 s.

	  ---------------------------------------------------------
	      Adaptive Path-Integral Full Configuration Interaction
	         by Francesco A. Evangelista and Tianyuan Zhang
	                      version Jun. 15 2016
	                       1 thread(s) 
	  ---------------------------------------------------------

  ==> Calculation Information <==

    Symmetry                                         0
    Multiplicity                                     1
    Number of roots                                  1
    Root used for properties                         0
    Maximum number of iterations                100000
    Energy estimation frequency                    100
    Number of threads                                1
    Time step (beta)                         1.000e+00
    Spawning threshold                       1.000e-04
    Initial guess spawning threshold         1.000e-03
    Convergence threshold                    1.000e-12
    Prescreening tollerance factor           1.500e+00
    Energy estimate tollerance               1.000e-05
    Generator type                               Power
    Adaptive time step                              NO
    Shift the energy                                NO
    Use intermediate normalization                 YES
    Prescreen spawning                              NO
    Dynamic prescreening                           YES
    Schwarz prescreening                            NO
    Initiator approximation                         NO
    Fast variational estimate                      YES
    Result perturbation analysis                    NO
    Using OpenMP                                    NO

  ==> Initial Guess <==     -14.609744738874 -1.461e-01

  Initial guess size = 88

  Initial guess energy (variational) =     -14.645949809818 Eh (root = 1)

  Most important contributions to the wave function:

    0      -0.933702      0.871799          70 |2200020000>    -16.991042177529
    1       0.231475     0.0535807          52 |0200020020>    -16.839359192615
    2       0.231475     0.0535807          47 |0200020002>    -16.839359192615
    3       0.119343     0.0142428          54 |0200020200>    -16.757530753052
    4      0.0801599    0.00642561          55 |0220020000>    -16.716835515994
    5    -0.00514585   2.64798e-05          71 |+-00020200>    -14.679187176280
    6    -0.00514585   2.64798e-05          42 |-+00020200>    -14.679187176280
    7     -0.0045129   2.03663e-05          62 |0200220000>    -16.536973029979
    8     -0.0045129   2.03663e-05          74 |0202020000>    -16.536973029979
    9     -0.0040925   1.67486e-05          79 |-+00020002>    -14.744117523934

  Spin State: S^2 = 0.000, S = 0.000, singlet (from 3 determinants,97.90)

  ==> Estimate highest excitation energy <==
  Highest Excited determinant:
  |0002202000>
  Determinant Energy                    :  -2.573638399390
  Highest Energy Gershgorin circle Est. :  -1.099642423838

  ==> Characteristic Function <==
    f(x) = -1.000000e+00 * x +0.000000e+00
    with tau = 1.000000e+00, shift = -10.254093555483, range = 6.773153692990
    Initial guess: lambda_1= -14.645949809818
    Est. Highest eigenvalue= -1.099642423838

  ==> APIFCI Iterations <==

  ------------------------------------------------------------------------------------------------
    Steps  Beta/Eh      Ndets     Proj. Energy/Eh     dEp/dt      Approx. Energy/Eh   dEv/dt
  ------------------------------------------------------------------------------------------------
        0     0.00        388     -14.645955640208 -5.830e-08     -14.645330187448 -2.139e-07
      100   100.00        388     -14.646193292550 -2.377e-06     -14.645461767789 -1.316e-06
      200   200.00        388     -14.646275612907 -8.232e-07     -14.645402863043  5.890e-07
      300   300.00        392     -14.646240232571  3.538e-07     -14.645404098766 -1.236e-08
      400   400.00        392     -14.646222991838  1.724e-07     -14.645404173944 -7.518e-10
      500   500.00        392     -14.646216759577  6.232e-08     -14.645404121700  5.224e-10
      600   600.00        392     -14.646214313492  2.446e-08     -14.645404160598 -3.890e-10
      700   700.00        392     -14.646213276494  1.037e-08     -14.645404045731  1.149e-09
      800   800.00        392     -14.646212792031  4.845e-09     -14.645404037298  8.433e-11
      900   900.00        392     -14.646212587359  2.047e-09     -14.645404033704  3.593e-11
     1000  1000.00        392     -14.646212500860  8.650e-10     -14.645404032188  1.517e-11
     1100  1100.00        392     -14.646212464350  3.651e-10     -14.645404031550  6.378e-12
     1200  1200.00        392     -14.646212448960  1.539e-10     -14.645404031282  2.679e-12
     1300  1300.00        392     -14.646212442479  6.481e-11     -14.645404031169  1.124e-12
     1400  1400.00        392     -14.646212439752  2.727e-11     -14.645404031122  4.721e-13
     1500  1500.00        392     -14.646212438605  1.147e-11
  ------------------------------------------------------------------------------------------------

  Calculation converged.

  ==> Post-Iterations <==

  * Projector-CI Variational Energy     =   -14.646162385353 Eh
  * Projector-CI Projective  Energy     =   -14.646212438605 Eh

  * Projector-CI Approximate Energy     =   -14.645404031122 Eh
  * 1st order perturbation   Energy     =    -0.000758354230 Eh
  * Projector-CI Var. Corr.  Energy     =    -0.036417646479 Eh

  * Size of CI space                    = 392

  Projector-CI (bitset) ran in  : 8.246159 s

  Most important contributions to the wave function:

    0      -0.933026      0.870538         261 |2200020000>    -16.991042177529
    1       0.230625     0.0531877         276 |0200020020>    -16.839359192615
    2       0.230625     0.0531877         268 |0200020002>    -16.839359192615
    3       0.125484     0.0157462         306 |0200020200>    -16.757530753052
    4      0.0807606    0.00652227         304 |0220020000>    -16.716835515994
    5      0.0143057   0.000204654         196 |-2+0020000>    -16.869832696882
    6      0.0143057   0.000204654         181 |+2-0020000>    -16.869832696882
    7    -0.00545008   2.97033e-05         293 |-+00020200>    -14.679187176280
    8    -0.00545008   2.97033e-05         267 |+-00020200>    -14.679187176280
    9     -0.0042391   1.79699e-05         284 |0200220000>    -16.536973029979

  Spin State: S^2 = 0.000, S = 0.000, singlet (from 3 determinants,97.69)

  Your calculation took 8.37783000 seconds
	PCI energy........................................................PASSED

*** Psi4 exiting successfully. Buy a developer a beer!
