
    -----------------------------------------------------------------------
          Psi4: An Open-Source Ab Initio Electronic Structure Package
                               Psi4 1.2a1.dev704 

                         Git: Rev {master} a7fc050 


    R. M. Parrish, L. A. Burns, D. G. A. Smith, A. C. Simmonett,
    A. E. DePrince III, E. G. Hohenstein, U. Bozkaya, A. Yu. Sokolov,
    R. Di Remigio, R. M. Richard, J. F. Gonthier, A. M. James,
    H. R. McAlexander, A. Kumar, M. Saitow, X. Wang, B. P. Pritchard,
    P. Verma, H. F. Schaefer III, K. Patkowski, R. A. King, E. F. Valeev,
    F. A. Evangelista, J. M. Turney, T. D. Crawford, and C. D. Sherrill,
    J. Chem. Theory Comput. 13(7) pp 3185--3197 (2017).
    (doi: 10.1021/acs.jctc.7b00174)

    -----------------------------------------------------------------------


    Psi4 started on: Friday, 01 December 2017 01:30AM

    Process ID:  99987
    PSIDATADIR: /Users/york/src/psi4new/psi4/share/psi4
    Memory:     500.0 MiB
    Threads:    1
    
  ==> Input File <==

--------------------------------------------------------------------------
#! Generated using commit GITCOMMIT

import forte

refrohf      = -15.611546532146
refdsrgpt2   = -15.502129577785421

molecule {
  0 3
  Be 0.00000000    0.00000000   0.000000000
  H  0.00000000    1.2750       2.7500
  H  0.00000000   -1.2750       2.7500
  units bohr
  no_reorient
}

basis {
cartesian
****
Be 0
S 6 1.00
 1267.07000 0.001940
  190.35600 0.014786
   43.29590 0.071795
   12.14420 0.236348
    3.80923 0.471763
    1.26847 0.355183
S 3 1.00
    5.69388 -0.028876
    1.55563 -0.177565
    0.171855 1.071630
S 1 1.0
    0.057181 1.000000
P 1 1.0
    5.69388  1.000000
P 2 1.0
    1.55563  0.144045
    0.171855 0.949692
****
H 0
S 3 1.00
   19.24060  0.032828
    2.899200 0.231208
    0.653400 0.817238
S 1 1.0
    0.177600  1.00000
****
}

set {
  docc               [2,0,0,0]
  socc               [1,0,0,1]
  reference          rohf
  scf_type           pk
  maxiter            300
  e_convergence      12
  d_convergence      12
}

set forte {
  job_type           mrdsrg
  corr_level         srg_pt2
  frozen_docc        [1,0,0,0]
  restricted_docc    [1,0,0,0]
  active             [1,0,0,1]
  multiplicity       1
  root_sym           0
  nroot              1
  root               0
  dsrg_s             0.1
  maxiter            100
}

Escf, wfn = energy('scf', return_wfn=True)
compare_values(refrohf,get_variable("CURRENT ENERGY"),10,"ROHF energy") #TEST

energy('forte', ref_wfn=wfn)
compare_values(refdsrgpt2,get_variable("CURRENT ENERGY"),8, "MRDSRG-PT2 relaxed energy") #TEST
--------------------------------------------------------------------------

*** tstart() called on Yorks-Mac.local
*** at Fri Dec  1 01:30:59 2017

   => Loading Basis Set <=

    Name: ANONYMOUSC1F5A0FA
    Role: ORBITAL
    Keyword: BASIS
    atoms 1   entry BE         line     5 inputblock anonymousc1f5a0fa 
    atoms 2-3 entry H          line    25 inputblock anonymousc1f5a0fa 


         ---------------------------------------------------------
                                   SCF
            by Justin Turney, Rob Parrish, Andy Simmonett
                             and Daniel Smith
                             ROHF Reference
                        1 Threads,    500 MiB Core
         ---------------------------------------------------------

  ==> Geometry <==

    Molecular point group: c2v
    Full point group: C2v

    Geometry (in Bohr), charge = 0, multiplicity = 3:

       Center              X                  Y                   Z               Mass       
    ------------   -----------------  -----------------  -----------------  -----------------
          BE          0.000000000000     0.000000000000    -0.502640731480     9.012182201000
           H         -0.000000000000     1.275000000000     2.247359268520     1.007825032070
           H          0.000000000000    -1.275000000000     2.247359268520     1.007825032070

  Running in c2v symmetry.

  Rotational constants: A =     18.37210  B =      4.83252  C =      3.82612 [cm^-1]
  Rotational constants: A = 550781.60550  B = 144875.38330  C = 114704.08189 [MHz]
  Nuclear repulsion =    3.031382610983898

  Charge       = 0
  Multiplicity = 3
  Electrons    = 6
  Nalpha       = 4
  Nbeta        = 2

  ==> Algorithm <==

  SCF Algorithm Type is PK.
  DIIS enabled.
  MOM disabled.
  Fractional occupation disabled.
  Guess Type is GWH.
  Energy threshold   = 1.00e-12
  Density threshold  = 1.00e-12
  Integral threshold = 0.00e+00

  ==> Primary Basis <==

  Basis Set: ANONYMOUSC1F5A0FA
    Blend: ANONYMOUSC1F5A0FA
    Number of shells: 9
    Number of basis function: 13
    Number of Cartesian functions: 13
    Spherical Harmonics?: false
    Max angular momentum: 1

  ==> Pre-Iterations <==

   -------------------------------------------------------
    Irrep   Nso     Nmo     Nalpha   Nbeta   Ndocc  Nsocc
   -------------------------------------------------------
     A1         7       7       3       2       2       1
     A2         0       0       0       0       0       0
     B1         2       2       0       0       0       0
     B2         4       4       1       0       0       1
   -------------------------------------------------------
    Total      13      13       4       2       2       2
   -------------------------------------------------------

  ==> Integral Setup <==

  Using in-core PK algorithm.
   Calculation information:
      Number of atoms:                   3
      Number of AO shells:               9
      Number of primitives:             21
      Number of atomic orbitals:        13
      Number of basis functions:        13

      Integral cutoff                 1.00e-12
      Number of threads:                 1

  Performing in-core PK
  Using 8372 doubles for integral storage.
  We computed 1035 shell quartets total.
  Whereas there are 1035 unique shell quartets.
  ==> DiskJK: Disk-Based J/K Matrices <==

    J tasked:                  Yes
    K tasked:                  Yes
    wK tasked:                  No
    Memory (MB):               375
    Schwarz Cutoff:          1E-12

    OpenMP threads:              1
  Minimum eigenvalue in the overlap matrix is 1.3143755134E-01.
  Using Symmetric Orthogonalization.

  SCF Guess: Generalized Wolfsberg-Helmholtz.

  ==> Iterations <==

                        Total Energy        Delta E     RMS |[F,P]|

   @ROHF iter   1:   -15.45433104192439   -1.54543e+01   1.04833e-01 
   @ROHF iter   2:   -15.60927248244067   -1.54941e-01   4.00568e-03 DIIS
   @ROHF iter   3:   -15.61118408470079   -1.91160e-03   1.07044e-03 DIIS
   @ROHF iter   4:   -15.61147726741052   -2.93183e-04   4.72731e-04 DIIS
   @ROHF iter   5:   -15.61154512994983   -6.78625e-05   7.69087e-05 DIIS
   @ROHF iter   6:   -15.61154648529868   -1.35535e-06   1.40030e-05 DIIS
   @ROHF iter   7:   -15.61154653183157   -4.65329e-08   1.24662e-06 DIIS
   @ROHF iter   8:   -15.61154653214470   -3.13126e-10   8.86151e-08 DIIS
   @ROHF iter   9:   -15.61154653214599   -1.29319e-12   8.47164e-09 DIIS
   @ROHF iter  10:   -15.61154653214600   -3.55271e-15   7.12223e-10 DIIS
   @ROHF iter  11:   -15.61154653214600    0.00000e+00   9.38141e-11 DIIS
   @ROHF iter  12:   -15.61154653214600   -7.10543e-15   4.76444e-12 DIIS
   @ROHF iter  13:   -15.61154653214600    3.55271e-15   3.82752e-13 DIIS

  ==> Post-Iterations <==

    Orbital Energies (a.u.)
    -----------------------

    Doubly Occupied:                                                      

       1A1    -4.739412     2A1    -0.555329  

    Singly Occupied:                                                      

       1B2    -0.124111     3A1    -0.109925  

    Virtual:                                                              

       1B1     0.145758     2B2     0.257460     4A1     0.272612  
       5A1     0.325586     3B2     1.130941     6A1     1.208293  
       2B1     8.963573     4B2     9.001730     7A1     9.081773  

    Final Occupation by Irrep:
             A1    A2    B1    B2 
    DOCC [     2,    0,    0,    0 ]
    SOCC [     1,    0,    0,    1 ]

  Energy converged.

  @ROHF Final Energy:   -15.61154653214600

   => Energetics <=

    Nuclear Repulsion Energy =              3.0313826109838984
    One-Electron Energy =                 -26.0505763811084492
    Two-Electron Energy =                   7.4076472379785496
    PCM Polarization Energy =               0.0000000000000000
    Total Energy =                        -15.6115465321460025

    Alert: EFP and PCM quantities not currently incorporated into SCF psivars.

Properties will be evaluated at   0.000000,   0.000000,   0.000000 Bohr

Properties computed using the SCF density matrix

  Nuclear Dipole Moment: (a.u.)
     X:     0.0000      Y:     0.0000      Z:     2.4842

  Electronic Dipole Moment: (a.u.)
     X:     0.0000      Y:     0.0000      Z:    -2.5844

  Dipole Moment: (a.u.)
     X:     0.0000      Y:     0.0000      Z:    -0.1002     Total:     0.1002

  Dipole Moment: (Debye)
     X:     0.0000      Y:     0.0000      Z:    -0.2548     Total:     0.2548


*** tstop() called on Yorks-Mac.local at Fri Dec  1 01:30:59 2017
Module time:
	user time   =       0.18 seconds =       0.00 minutes
	system time =       0.03 seconds =       0.00 minutes
	total time  =          0 seconds =       0.00 minutes
Total time:
	user time   =       0.18 seconds =       0.00 minutes
	system time =       0.03 seconds =       0.00 minutes
	total time  =          0 seconds =       0.00 minutes
	ROHF energy.......................................................PASSED
   => Loading Basis Set <=

    Name: STO-3G
    Role: ORBITAL
    Keyword: MINAO_BASIS
    atoms 1   entry BE         line    41 file /Users/york/src/psi4new/psi4/share/psi4/basis/sto-3g.gbs 
    atoms 2-3 entry H          line    19 file /Users/york/src/psi4new/psi4/share/psi4/basis/sto-3g.gbs 


Reading options from the FORTE block
Calling plugin forte.so.



  Forte
  ----------------------------------------------------------------------------
  A suite of quantum chemistry methods for strongly correlated electrons

    git branch: master - git commit: 1c92254a

  Developed by:
    Francesco A. Evangelista, Chenyang Li, Kevin P. Hannon,
    Jeffrey B. Schriber, Tianyuan Zhang, Chenxi Cai
  ----------------------------------------------------------------------------

  Size of Determinant class: 32

  ==> MO Space Information <==

  Read options for space FROZEN_DOCC
  Read options for space RESTRICTED_DOCC
  Read options for space ACTIVE
 Removing orbital 0
  -------------------------------------------------
                       A1    A2    B1    B2   Sum
  -------------------------------------------------
    FROZEN_DOCC         1     0     0     0     1
    RESTRICTED_DOCC     1     0     0     0     1
    ACTIVE              1     0     0     1     2
    RESTRICTED_UOCC     4     0     2     3     9
    FROZEN_UOCC         0     0     0     0     0
    Total               7     0     2     4    13
  -------------------------------------------------

  ==> Integral Transformation <==

  Number of molecular orbitals:               13
  Number of correlated molecular orbitals:    12
  Number of frozen occupied orbitals:          1
  Number of frozen unoccupied orbitals:        0

    Molecular point group: c2v
    Full point group: C2v

    Geometry (in Bohr), charge = 0, multiplicity = 3:

       Center              X                  Y                   Z               Mass       
    ------------   -----------------  -----------------  -----------------  -----------------
          BE          0.000000000000     0.000000000000    -0.502640731480     9.012182201000
           H         -0.000000000000     1.275000000000     2.247359268520     1.007825032070
           H          0.000000000000    -1.275000000000     2.247359268520     1.007825032070

  -AO BASIS SET INFORMATION:
    Name                   = ANONYMOUSC1F5A0FA
    Blend                  = ANONYMOUSC1F5A0FA
    Total number of shells = 9
    Number of primitives   = 21
    Number of AO           = 13
    Number of SO           = 13
    Maximum AM             = 1
    Spherical Harmonics    = FALSE

  -Contraction Scheme:
    Atom   Type   All Primitives // Shells:
   ------ ------ --------------------------
       1    BE     10s 3p // 3s 2p 
       2     H     4s // 2s 
       3     H     4s // 2s 

  ==> AO Basis Functions <==

    [ ANONYMOUSC1F5A0FA ]
    cartesian
    ****
   BE   1
    S   6 1.00
                      1267.07000000           0.00194000
                       190.35600000           0.01478600
                        43.29590000           0.07179500
                        12.14420000           0.23634800
                         3.80923000           0.47176300
                         1.26847000           0.35518300
    S   3 1.00
                         5.69388000          -0.02887600
                         1.55563000          -0.17756500
                         0.17185500           1.07163000
    S   1 1.00
                         0.05718100           1.00000000
    P   1 1.00
                         5.69388000           1.00000000
    P   2 1.00
                         1.55563000           0.14404500
                         0.17185500           0.94969200
    ****
    H   2
    S   3 1.00
                        19.24060000           0.03282800
                         2.89920000           0.23120800
                         0.65340000           0.81723800
    S   1 1.00
                         0.17760000           1.00000000
    ****


  Overall Conventional Integrals timings

	Presorting SO-basis two-electron integrals.
	Sorting File: SO Ints (nn|nn) nbuckets = 1
	Transforming the one-electron integrals and constructing Fock matrices
	Starting first half-transformation.
	Sorting half-transformed integrals.
	First half integral transformation complete.
	Starting second half-transformation.
	Two-electron integral transformation complete.

  Integral transformation done. 0.01465400 s
  Reading the two-electron integrals from disk
  Size of two-electron integrals:   0.000638 GB  Using in-core PK algorithm.
   Calculation information:
      Number of atoms:                   3
      Number of AO shells:               9
      Number of primitives:             21
      Number of atomic orbitals:        13
      Number of basis functions:        13

      Integral cutoff                 1.00e-12
      Number of threads:                 1

  Performing in-core PK
  Using 8372 doubles for integral storage.
  We computed 1035 shell quartets total.
  Whereas there are 1035 unique shell quartets.

  Frozen-core energy            -14.929378863416 a.u.

  FrozenOneBody Operator takes  0.05987900 s
  Resorting integrals after freezing core.
  Conventional integrals take 0.12070700 s

                -----------------------------------------------
                  String-based Full Configuration Interaction
                          by Francesco A. Evangelista
                -----------------------------------------------

  Number of electrons: 6
  Charge: 0
  Multiplicity: 1
  Davidson subspace max dim: 8
  Davidson subspace min dim: 2
  M_s: 0

  ==> String Lists <==

  Number of alpha electrons     = 1
  Number of beta electrons      = 1
  Number of alpha strings       = 2
  Number of beta strings        = 2
  Timing for strings        =      0.000 s
  Timing for NN strings     =      0.000 s
  Timing for VO strings     =      0.000 s
  Timing for OO strings     =      0.000 s
  Timing for VVOO strings   =      0.000 s
  Timing for VOVO strings   =      0.000 s
  Timing for 1-hole strings =      0.000 s
  Timing for 2-hole strings =      0.000 s
  Timing for 3-hole strings =      0.000 s
  Total timing              =      0.000 s

  ==> FCI Solver <==

    Number of determinants                           2
    Symmetry                                         0
    Multiplicity                                     1
    Number of roots                                  1
    Target root                                      0
    Trial vectors per root                          10

  Allocating memory for the Hamiltonian algorithm. Size: 2 x 1 x 1.   Memory: 0.000000 GB

  ==> FCI Initial Guess <==

  ---------------------------------------------
    Root            Energy     <S^2>   Spin
  ---------------------------------------------
      0      -15.483417113726  0.000  singlet
      1      -15.440208169538  0.000  singlet
  ---------------------------------------------
  Timing for initial guess  =      0.000 s

  ==> Diagonalizing Hamiltonian <==

  ----------------------------------------
    Iter.      Avg. Energy       Delta_E
  ----------------------------------------
      1      -15.483417113726  -1.548e+01
      2      -15.483417113726  +0.000e+00
  ----------------------------------------
  The Davidson-Liu algorithm converged in 3 iterations.

  ==> Root No. 0 <==

    0 2     -0.91011042
    2 0      0.41436581

    Total Energy:       -15.483417113725809

  ==> Computing RDMs for Root No. 0 <==

    Timing for 1-RDM: 0.000 s
    Timing for 2-RDM: 0.000 s
    Timing for 3-RDM: 0.000 s

  ==> NATURAL ORBITALS <==

        1B2     1.656602      1A1     0.343398  


       -----------------------------------------------------------------
                            Semi-Canonical Orbitals
         Chenyang Li, Jeffrey B. Schriber and Francesco A. Evangelista
       -----------------------------------------------------------------

  Took 0.000046 s to build Fock matrix

  ==> Checking Fock Matrix Diagonal Blocks <==

    Off-Diag. Elements       Max           2-Norm
    ------------------------------------------------
    Fa actv              0.0000000000   0.0000000000
    Fb actv              0.0000000000   0.0000000000
    ------------------------------------------------
    Fa core              0.0000000000   0.0000000000
    Fb core              0.0000000000   0.0000000000
    ------------------------------------------------
    Fa virt              0.0179926089   0.0459177624
    Fb virt              0.0179926089   0.0459177624
    ------------------------------------------------

  ==> Integral Transformation to Semicanonical Basis <==
    Molecular point group: c2v
    Full point group: C2v

    Geometry (in Bohr), charge = 0, multiplicity = 3:

       Center              X                  Y                   Z               Mass       
    ------------   -----------------  -----------------  -----------------  -----------------
          BE          0.000000000000     0.000000000000    -0.502640731480     9.012182201000
           H         -0.000000000000     1.275000000000     2.247359268520     1.007825032070
           H          0.000000000000    -1.275000000000     2.247359268520     1.007825032070

  -AO BASIS SET INFORMATION:
    Name                   = ANONYMOUSC1F5A0FA
    Blend                  = ANONYMOUSC1F5A0FA
    Total number of shells = 9
    Number of primitives   = 21
    Number of AO           = 13
    Number of SO           = 13
    Maximum AM             = 1
    Spherical Harmonics    = FALSE

  -Contraction Scheme:
    Atom   Type   All Primitives // Shells:
   ------ ------ --------------------------
       1    BE     10s 3p // 3s 2p 
       2     H     4s // 2s 
       3     H     4s // 2s 

  ==> AO Basis Functions <==

    [ ANONYMOUSC1F5A0FA ]
    cartesian
    ****
   BE   1
    S   6 1.00
                      1267.07000000           0.00194000
                       190.35600000           0.01478600
                        43.29590000           0.07179500
                        12.14420000           0.23634800
                         3.80923000           0.47176300
                         1.26847000           0.35518300
    S   3 1.00
                         5.69388000          -0.02887600
                         1.55563000          -0.17756500
                         0.17185500           1.07163000
    S   1 1.00
                         0.05718100           1.00000000
    P   1 1.00
                         5.69388000           1.00000000
    P   2 1.00
                         1.55563000           0.14404500
                         0.17185500           0.94969200
    ****
    H   2
    S   3 1.00
                        19.24060000           0.03282800
                         2.89920000           0.23120800
                         0.65340000           0.81723800
    S   1 1.00
                         0.17760000           1.00000000
    ****


 Integrals are about to be computed.	Presorting SO-basis two-electron integrals.
	Sorting File: SO Ints (nn|nn) nbuckets = 1
	Transforming the one-electron integrals and constructing Fock matrices
	Starting first half-transformation.
	Sorting half-transformed integrals.
	First half integral transformation complete.
	Starting second half-transformation.
	Two-electron integral transformation complete.

  Integral transformation done. 0.01330200 s
  Reading the two-electron integrals from disk
  Size of two-electron integrals:   0.000638 GB
 Integrals are about to be updated.  Using in-core PK algorithm.
   Calculation information:
      Number of atoms:                   3
      Number of AO shells:               9
      Number of primitives:             21
      Number of atomic orbitals:        13
      Number of basis functions:        13

      Integral cutoff                 1.00e-12
      Number of threads:                 1

  Performing in-core PK
  Using 8372 doubles for integral storage.
  We computed 1035 shell quartets total.
  Whereas there are 1035 unique shell quartets.

  Frozen-core energy            -14.929378863416 a.u.

  FrozenOneBody Operator takes  0.05668400 s
  Resorting integrals after freezing core.
  Frozen Orbitals takes     0.058 s.

  ==> Reference Transformation to Semicanonical Basis <==

    Transformed 1 cumulants.
    Transformed 2 cumulants and RDMs.
    Transformed 3 cumulants.
  SemiCanonicalize takes 2.711334 s.

  ==> Multireference Driven Similarity Renormalization Group <==

    Reading DSRG options ............................ Done
    Setting ambit MO space .......................... Done
    Preparing tensors for density cumulants ......... Done
    Building Fock matrix ............................ Done

           ----------------------------------------------------------
             Multireference Driven Similarity Renormalization Group
                                  Chenyang Li
           ----------------------------------------------------------

  Additional contributions by: Tianyuan Zhang

  ==> Density Cumulant Summary <==

    2-body             AA           AB           BB
    -----------------------------------------------
    max          0.142218     0.377119     0.142218
    norm         0.284437     0.604435     0.284437
    -----------------------------------------------
    3-body            AAA          AAB          ABB          BBB
    ------------------------------------------------------------
    max          0.000000     0.093381     0.093381     0.000000
    norm         0.000000     0.264121     0.264121     0.000000
    ------------------------------------------------------------

  ==> Checking Semicanonical Orbitals <==

    Abs. max of Fock core, active, virtual blocks (Fij, i != j)
                  core          active         virtual
    --------------------------------------------------
    Fα    0.0000000000    0.0000000000    0.0000000000
    Fβ    0.0000000000    0.0000000000    0.0000000000
    --------------------------------------------------

    1-Norm of Fock core, active, virtual blocks (Fij, i != j)
                  core          active         virtual
    --------------------------------------------------
    Fα    0.0000000000    0.0000000000    0.0000000000
    Fβ    0.0000000000    0.0000000000    0.0000000000
    --------------------------------------------------

    Orbitals are semi-canonicalized.

  ==> Calculation Information <==

    ntamp                                            15
    diis_min_vecs                                     2
    diis_max_vecs                                     5
    flow parameter                            1.000e-01
    taylor expansion threshold                1.000e-03
    intruder_tamp                             1.000e-01
    corr_level                                  SRG_PT2
    int_type                               CONVENTIONAL
    source operator                            STANDARD
    smart_dsrg_s                                 DSRG_S
    reference relaxation                           NONE
    dsrg transformation type                    UNITARY
    core virtual source type                     NORMAL
    sequential dsrg transformation                FALSE
    omit blocks of >= 3 virtual indices           FALSE


  ==> Computing SRG-MRPT2 Energy <==

    Reference:
      J. Chem. Phys. 2016 (in preparation)

    Max s:               0.100000
    ODE algorithm:     FEHLBERG78
    Initial time step:   0.001000

                              Energy (a.u.)           Non-Diagonal Norm            
                       ---------------------------  ---------------------          
    Iter.       s            Corr.         Delta       Hbar1      Hbar2    Time (s)
    -------------------------------------------------------------------------------
        1     0.00000    0.000000000000  0.000e+00   1.983e-01  7.222e-01     0.000
        2     0.00077   -0.000249524566 -2.495e-04   1.981e-01  7.199e-01    14.784
        3     0.00157   -0.000504847206 -2.553e-04   1.979e-01  7.178e-01     7.461
        4     0.00240   -0.000764251723 -2.594e-04   1.976e-01  7.158e-01     7.318
        5     0.00325   -0.001028308474 -2.641e-04   1.974e-01  7.138e-01     7.340
        6     0.00414   -0.001297476972 -2.692e-04   1.972e-01  7.119e-01     7.419
        7     0.00505   -0.001572209188 -2.747e-04   1.970e-01  7.100e-01     7.330
        8     0.00600   -0.001852963580 -2.808e-04   1.968e-01  7.081e-01     7.357
        9     0.00699   -0.002140218050 -2.873e-04   1.965e-01  7.063e-01     7.420
       10     0.00801   -0.002434480435 -2.943e-04   1.963e-01  7.044e-01     7.329
       11     0.00908   -0.002736297953 -3.018e-04   1.961e-01  7.025e-01     7.382
       12     0.01019   -0.003046266447 -3.100e-04   1.959e-01  7.006e-01     7.558
       13     0.01136   -0.003365040159 -3.188e-04   1.956e-01  6.987e-01     7.757
       14     0.01257   -0.003693342662 -3.283e-04   1.954e-01  6.967e-01     9.168
       15     0.01385   -0.004031979559 -3.386e-04   1.951e-01  6.948e-01     9.628
       16     0.01519   -0.004381853596 -3.499e-04   1.949e-01  6.927e-01     9.124
       17     0.01661   -0.004743983002 -3.621e-04   1.946e-01  6.906e-01     8.675
       18     0.01810   -0.005119524010 -3.755e-04   1.943e-01  6.885e-01     8.588
       19     0.01969   -0.005509798878 -3.903e-04   1.941e-01  6.862e-01     8.691
       20     0.02137   -0.005916331135 -4.065e-04   1.938e-01  6.839e-01     8.644
       21     0.02317   -0.006340890463 -4.246e-04   1.934e-01  6.815e-01     8.456
       22     0.02509   -0.006785550550 -4.447e-04   1.931e-01  6.790e-01     8.471
       23     0.02716   -0.007252764722 -4.672e-04   1.927e-01  6.763e-01     8.398
       24     0.02940   -0.007745466318 -4.927e-04   1.924e-01  6.735e-01     8.401
       25     0.03184   -0.008267204219 -5.217e-04   1.919e-01  6.705e-01     8.383
       26     0.03451   -0.008822329447 -5.551e-04   1.915e-01  6.674e-01     8.538
       27     0.03746   -0.009416257904 -5.939e-04   1.910e-01  6.640e-01     8.333
       28     0.04075   -0.010055850323 -6.396e-04   1.905e-01  6.603e-01     8.475
       29     0.04445   -0.010749979609 -6.941e-04   1.898e-01  6.563e-01     8.406
       30     0.04868   -0.011510412711 -7.604e-04   1.892e-01  6.519e-01     8.381
       31     0.05359   -0.012353255117 -8.428e-04   1.884e-01  6.470e-01     8.299
       32     0.05882   -0.013206296189 -8.530e-04   1.875e-01  6.420e-01     8.360
       33     0.06434   -0.014060969784 -8.547e-04   1.867e-01  6.370e-01     8.233
       34     0.07017   -0.014919524121 -8.586e-04   1.858e-01  6.319e-01     8.278
       35     0.07636   -0.015783853221 -8.643e-04   1.849e-01  6.268e-01     8.503
       36     0.08296   -0.016656189001 -8.723e-04   1.839e-01  6.216e-01     8.320
       37     0.09001   -0.017539131430 -8.829e-04   1.829e-01  6.163e-01     8.406
       38     0.09758   -0.018435739846 -8.966e-04   1.818e-01  6.109e-01     8.720
       39     0.10000   -0.018712464081 -2.767e-04   1.815e-01  6.093e-01     8.136
    -------------------------------------------------------------------------------

  ==> SRG-MRPT2 Energy Summary <==

    E0 (reference)                 =     -15.483417113725809
    SRG-MRPT2 correlation energy   =      -0.018712464081013
    SRG-MRPT2 total energy         =     -15.502129577806823

  ==> Total Timings (s) for Computing Commutators <==

             [H1, T1]    [H1, T2]    [H2, T1]    [H2, T2]
    -----------------------------------------------------
    -> C0       2.838       8.825       0.000     127.677
    -> C1       5.220      38.625       0.000       0.000
    -> C2                 131.233       0.000       0.000
    -----------------------------------------------------
	MRDSRG-PT2 relaxed energy.........................................PASSED

*** Psi4 exiting successfully. Buy a developer a beer!
