    -----------------------------------------------------------------------
          Psi4: An Open-Source Ab Initio Electronic Structure Package
                              Psi4 0.4.112 Driver

                          Git: Rev {master} ace9693 

    J. M. Turney, A. C. Simmonett, R. M. Parrish, E. G. Hohenstein,
    F. A. Evangelista, J. T. Fermann, B. J. Mintz, L. A. Burns, J. J. Wilke,
    M. L. Abrams, N. J. Russ, M. L. Leininger, C. L. Janssen, E. T. Seidl,
    W. D. Allen, H. F. Schaefer, R. A. King, E. F. Valeev, C. D. Sherrill,
    and T. D. Crawford, WIREs Comput. Mol. Sci. 2, 556-565 (2012)
    (doi: 10.1002/wcms.93)

                         Additional Contributions by
    A. E. DePrince, M. Saitow, U. Bozkaya, A. Yu. Sokolov
    -----------------------------------------------------------------------


    Psi4 started on: Thu Feb 25 16:47:05 2016

    Process ID:  28259
    PSI4DATADIR: /Users/kevinhannon/Programs/psi4cmake/psi4src/share
    Memory level set to 256.000 MB

  ==> Input File <==

--------------------------------------------------------------------------
#! This tests the DF-DSRG-MRPT2 on BeH2
#! Generated using commit GITCOMMIT
import forte

refmcscf    = -15.569761360884
refdsrgpt2 =  -15.613384259998316
refdsrgpt2_jk_rdocc = -15.61856716895

molecule {
  0 1
  BE        0.000000000000     0.000000000000     0.000000000000
  H         0.000000000000     1.390000000000     2.500000000000
  H         0.000000000000    -1.390000000000     2.500000000000
  units bohr
  no_reorient
}

set globals{
   reference    ROHF
   scf_type     df
   d_convergence           12
   e_convergence           15
   df_basis_mp2            cc-pvdz-ri
}

set forte{
   restricted_docc      [2,0,0,0]
   active               [1,0,0,1]
   root_sym              0
   nroot                 1
   dsrg_s                0.5
   dsrgpt                true
   int_type              diskdf
   job_type              three-dsrg-mrpt2
   print                 0

}

basis {
spherical
****
Be     0
S   6   1.00
   1267.070000     0.001940
    190.356000     0.014786
     43.295900     0.071795
     12.144200     0.236348
      3.809230     0.471763
      1.268470     0.355183
S   3   1.00
      5.693880    -0.028876
      1.555630    -0.177565
      0.171855     1.071630
S   1   1.00
      0.057181     1.000000
P   2   1.00
      1.555630     0.144045
      0.171855     0.949692
P   1   1.00
      5.693880     1.000000
****
H      0
S   3   1.00
     19.240600     0.032828
      2.899200     0.231208
      0.653400     0.817238
S   1   1.00
      0.177600     1.000000
****
}

ref = energy('scf')
forte_energy = energy('forte')
compare_values(forte_energy, refdsrgpt2, 8, "DSRG-MRPT2 Energy")


--------------------------------------------------------------------------
/Users/kevinhannon/Programs/forte/forte.so loaded.

*** tstart() called on Kevins-MacBook-Pro.local
*** at Thu Feb 25 16:47:05 2016


         ---------------------------------------------------------
                                   SCF
            by Justin Turney, Rob Parrish, and Andy Simmonett
                             ROHF Reference
                        1 Threads,    256 MiB Core
         ---------------------------------------------------------

  ==> Geometry <==

    Molecular point group: c2v
    Full point group: C2v

    Geometry (in Bohr), charge = 0, multiplicity = 1:

       Center              X                  Y                   Z               Mass       
    ------------   -----------------  -----------------  -----------------  -----------------
          BE          0.000000000000     0.000000000000    -0.456946119527     9.012182201000
           H         -0.000000000000     1.390000000000     2.043053880473     1.007825032070
           H          0.000000000000    -1.390000000000     2.043053880473     1.007825032070

  Running in c2v symmetry.

  Rotational constants: A =     15.45786  B =      5.84735  C =      4.24251 [cm^-1]
  Rotational constants: A = 463415.11694  B = 175299.21379  C = 127187.22870 [MHz]
  Nuclear repulsion =    3.156487659063052

  Charge       = 0
  Multiplicity = 1
  Electrons    = 6
  Nalpha       = 3
  Nbeta        = 3

  ==> Algorithm <==

  SCF Algorithm Type is DF.
  DIIS enabled.
  MOM disabled.
  Fractional occupation disabled.
  Guess Type is CORE.
  Energy threshold   = 1.00e-15
  Density threshold  = 1.00e-12
  Integral threshold = 0.00e+00

  ==> Primary Basis <==

  Basis Set: ANONYMOUS712
    Number of shells: 9
    Number of basis function: 13
    Number of Cartesian functions: 13
    Spherical Harmonics?: true
    Max angular momentum: 1

  ==> Pre-Iterations <==

   -------------------------------------------------------
    Irrep   Nso     Nmo     Nalpha   Nbeta   Ndocc  Nsocc
   -------------------------------------------------------
     A1         7       7       0       0       0       0
     A2         0       0       0       0       0       0
     B1         2       2       0       0       0       0
     B2         4       4       0       0       0       0
   -------------------------------------------------------
    Total      13      13       3       3       3       0
   -------------------------------------------------------

  ==> Integral Setup <==

  ==> DFJK: Density-Fitted J/K Matrices <==

    J tasked:                  Yes
    K tasked:                  Yes
    wK tasked:                  No
    OpenMP threads:              1
    Integrals threads:           1
    Memory (MB):               183
    Algorithm:                Core
    Integral Cache:           NONE
    Schwarz Cutoff:          1E-12
    Fitting Condition:       1E-12

   => Auxiliary Basis Set <=

  Basis Set: 
    Number of shells: 29
    Number of basis function: 87
    Number of Cartesian functions: 100
    Spherical Harmonics?: true
    Max angular momentum: 3

  Minimum eigenvalue in the overlap matrix is 1.2053632228E-01.
  Using Symmetric Orthogonalization.
  SCF Guess: Core (One-Electron) Hamiltonian.

  ==> Iterations <==

                           Total Energy        Delta E     RMS |[F,P]|

   @DF-ROHF iter   1:   -15.09028848511475   -1.50903e+01   8.14401e-02 
   @DF-ROHF iter   2:   -15.55152393621879   -4.61235e-01   8.66858e-03 DIIS
   @DF-ROHF iter   3:   -15.56248350927867   -1.09596e-02   1.57154e-03 DIIS
   @DF-ROHF iter   4:   -15.56289591195593   -4.12403e-04   3.41833e-04 DIIS
   @DF-ROHF iter   5:   -15.56291963732978   -2.37254e-05   4.94021e-05 DIIS
   @DF-ROHF iter   6:   -15.56292011267410   -4.75344e-07   3.95592e-06 DIIS
   @DF-ROHF iter   7:   -15.56292011836908   -5.69498e-09   1.32471e-06 DIIS
   @DF-ROHF iter   8:   -15.56292011924395   -8.74866e-10   2.35479e-07 DIIS
   @DF-ROHF iter   9:   -15.56292011926885   -2.49081e-11   1.94358e-08 DIIS
   @DF-ROHF iter  10:   -15.56292011926894   -8.88178e-14   4.98134e-10 DIIS
   @DF-ROHF iter  11:   -15.56292011926895   -3.55271e-15   2.26112e-11 DIIS
   @DF-ROHF iter  12:   -15.56292011926894    3.55271e-15   1.85605e-12 DIIS
   @DF-ROHF iter  13:   -15.56292011926893    1.06581e-14   1.34647e-14 DIIS
   @DF-ROHF iter  14:   -15.56292011926895   -2.13163e-14   2.29668e-15 DIIS
   @DF-ROHF iter  15:   -15.56292011926896   -3.55271e-15   8.38813e-16 DIIS
   @DF-ROHF iter  16:   -15.56292011926894    1.77636e-14   4.99818e-16 DIIS
   @DF-ROHF iter  17:   -15.56292011926894    0.00000e+00   3.52194e-16 DIIS

  ==> Post-Iterations <==

    Orbital Energies (a.u.)
    -----------------------

    Doubly Occupied:                                                      

       1A1    -4.745209     2A1    -0.496892     1B2    -0.252202  

    Singly Occupied:                                                      

    

    Virtual:                                                              

       3A1    -0.004532     1B1     0.147562     4A1     0.268838  
       2B2     0.280851     5A1     0.399831     3B2     1.192646  
       6A1     1.303409     2B1     9.009153     4B2     9.058121  
       7A1     9.149565  

    Final Occupation by Irrep:
             A1    A2    B1    B2 
    DOCC [     2,    0,    0,    1 ]
    SOCC [     0,    0,    0,    0 ]

  Energy converged.

  @DF-ROHF Final Energy:   -15.56292011926894

   => Energetics <=

    Nuclear Repulsion Energy =              3.1564876590630520
    One-Electron Energy =                 -26.4502097710650688
    Two-Electron Energy =                   7.7308019927330776
    DFT Exchange-Correlation Energy =       0.0000000000000000
    Empirical Dispersion Energy =           0.0000000000000000
    PCM Polarization Energy =               0.0000000000000000
    EFP Energy =                            0.0000000000000000
    Total Energy =                        -15.5629201192689379

    Alert: EFP and PCM quantities not currently incorporated into SCF psivars.

Properties will be evaluated at   0.000000,   0.000000,   0.000000 Bohr
  ==> Properties <==


Properties computed using the SCF density matrix

  Nuclear Dipole Moment: (a.u.)
     X:     0.0000      Y:     0.0000      Z:     2.2583

  Electronic Dipole Moment: (a.u.)
     X:     0.0000      Y:     0.0000      Z:    -3.9660

  Dipole Moment: (a.u.)
     X:     0.0000      Y:     0.0000      Z:    -1.7077     Total:     1.7077

  Dipole Moment: (Debye)
     X:     0.0000      Y:     0.0000      Z:    -4.3405     Total:     4.3405


  Saving occupied orbitals to File 180.

*** tstop() called on Kevins-MacBook-Pro.local at Thu Feb 25 16:47:06 2016
Module time:
	user time   =       0.16 seconds =       0.00 minutes
	system time =       0.01 seconds =       0.00 minutes
	total time  =          1 seconds =       0.02 minutes
Total time:
	user time   =       0.16 seconds =       0.00 minutes
	system time =       0.01 seconds =       0.00 minutes
	total time  =          1 seconds =       0.02 minutes

*** tstart() called on Kevins-MacBook-Pro.local
*** at Thu Feb 25 16:47:06 2016


         ---------------------------------------------------------
                                   SCF
            by Justin Turney, Rob Parrish, and Andy Simmonett
                             ROHF Reference
                        1 Threads,    256 MiB Core
         ---------------------------------------------------------

  ==> Geometry <==

    Molecular point group: c2v
    Full point group: C2v

    Geometry (in Bohr), charge = 0, multiplicity = 1:

       Center              X                  Y                   Z               Mass       
    ------------   -----------------  -----------------  -----------------  -----------------
          BE          0.000000000000     0.000000000000    -0.456946119527     9.012182201000
           H         -0.000000000000     1.390000000000     2.043053880473     1.007825032070
           H          0.000000000000    -1.390000000000     2.043053880473     1.007825032070

  Running in c2v symmetry.

  Rotational constants: A =     15.45786  B =      5.84735  C =      4.24251 [cm^-1]
  Rotational constants: A = 463415.11694  B = 175299.21379  C = 127187.22870 [MHz]
  Nuclear repulsion =    3.156487659063052

  Charge       = 0
  Multiplicity = 1
  Electrons    = 6
  Nalpha       = 3
  Nbeta        = 3

  ==> Algorithm <==

  SCF Algorithm Type is DF.
  DIIS enabled.
  MOM disabled.
  Fractional occupation disabled.
  Guess Type is CORE.
  Energy threshold   = 1.00e-15
  Density threshold  = 1.00e-12
  Integral threshold = 0.00e+00

  ==> Primary Basis <==

  Basis Set: ANONYMOUS712
    Number of shells: 9
    Number of basis function: 13
    Number of Cartesian functions: 13
    Spherical Harmonics?: true
    Max angular momentum: 1

  ==> Pre-Iterations <==

   -------------------------------------------------------
    Irrep   Nso     Nmo     Nalpha   Nbeta   Ndocc  Nsocc
   -------------------------------------------------------
     A1         7       7       0       0       0       0
     A2         0       0       0       0       0       0
     B1         2       2       0       0       0       0
     B2         4       4       0       0       0       0
   -------------------------------------------------------
    Total      13      13       3       3       3       0
   -------------------------------------------------------

  ==> Integral Setup <==

  ==> DFJK: Density-Fitted J/K Matrices <==

    J tasked:                  Yes
    K tasked:                  Yes
    wK tasked:                  No
    OpenMP threads:              1
    Integrals threads:           1
    Memory (MB):               183
    Algorithm:                Core
    Integral Cache:           NONE
    Schwarz Cutoff:          1E-12
    Fitting Condition:       1E-12

   => Auxiliary Basis Set <=

  Basis Set: 
    Number of shells: 29
    Number of basis function: 87
    Number of Cartesian functions: 100
    Spherical Harmonics?: true
    Max angular momentum: 3

  Minimum eigenvalue in the overlap matrix is 1.2053632228E-01.
  Using Symmetric Orthogonalization.
  SCF Guess: Core (One-Electron) Hamiltonian.

  ==> Iterations <==

                           Total Energy        Delta E     RMS |[F,P]|

   @DF-ROHF iter   1:   -15.09028848511475   -1.50903e+01   8.14401e-02 
   @DF-ROHF iter   2:   -15.55152393621879   -4.61235e-01   8.66858e-03 DIIS
   @DF-ROHF iter   3:   -15.56248350927868   -1.09596e-02   1.57154e-03 DIIS
   @DF-ROHF iter   4:   -15.56289591195593   -4.12403e-04   3.41833e-04 DIIS
   @DF-ROHF iter   5:   -15.56291963732977   -2.37254e-05   4.94021e-05 DIIS
   @DF-ROHF iter   6:   -15.56292011267409   -4.75344e-07   3.95592e-06 DIIS
   @DF-ROHF iter   7:   -15.56292011836907   -5.69498e-09   1.32471e-06 DIIS
   @DF-ROHF iter   8:   -15.56292011924394   -8.74874e-10   2.35479e-07 DIIS
   @DF-ROHF iter   9:   -15.56292011926884   -2.49045e-11   1.94358e-08 DIIS
   @DF-ROHF iter  10:   -15.56292011926895   -1.03029e-13   4.98134e-10 DIIS
   @DF-ROHF iter  11:   -15.56292011926895   -3.55271e-15   2.26112e-11 DIIS
   @DF-ROHF iter  12:   -15.56292011926894    7.10543e-15   1.85636e-12 DIIS
   @DF-ROHF iter  13:   -15.56292011926894    3.55271e-15   1.36640e-14 DIIS
   @DF-ROHF iter  14:   -15.56292011926893    1.06581e-14   2.34108e-15 DIIS
   @DF-ROHF iter  15:   -15.56292011926894   -1.06581e-14   8.31828e-16 DIIS
   @DF-ROHF iter  16:   -15.56292011926896   -1.77636e-14   3.88873e-16 DIIS
   @DF-ROHF iter  17:   -15.56292011926895    3.55271e-15   3.92556e-16 DIIS
   @DF-ROHF iter  18:   -15.56292011926893    2.84217e-14   4.91557e-16 DIIS
   @DF-ROHF iter  19:   -15.56292011926895   -2.13163e-14   5.96483e-16 DIIS
   @DF-ROHF iter  20:   -15.56292011926894    1.06581e-14   6.30405e-16 DIIS
   @DF-ROHF iter  21:   -15.56292011926895   -1.42109e-14   3.05331e-16 DIIS
   @DF-ROHF iter  22:   -15.56292011926894    7.10543e-15   2.51202e-16 DIIS
   @DF-ROHF iter  23:   -15.56292011926894    0.00000e+00   3.03609e-16 DIIS

  ==> Post-Iterations <==

    Orbital Energies (a.u.)
    -----------------------

    Doubly Occupied:                                                      

       1A1    -4.745209     2A1    -0.496892     1B2    -0.252202  

    Singly Occupied:                                                      

    

    Virtual:                                                              

       3A1    -0.004532     1B1     0.147562     4A1     0.268838  
       2B2     0.280851     5A1     0.399831     3B2     1.192646  
       6A1     1.303409     2B1     9.009153     4B2     9.058121  
       7A1     9.149565  

    Final Occupation by Irrep:
             A1    A2    B1    B2 
    DOCC [     2,    0,    0,    1 ]
    SOCC [     0,    0,    0,    0 ]

  Energy converged.

  @DF-ROHF Final Energy:   -15.56292011926894

   => Energetics <=

    Nuclear Repulsion Energy =              3.1564876590630520
    One-Electron Energy =                 -26.4502097710650723
    Two-Electron Energy =                   7.7308019927330776
    DFT Exchange-Correlation Energy =       0.0000000000000000
    Empirical Dispersion Energy =           0.0000000000000000
    PCM Polarization Energy =               0.0000000000000000
    EFP Energy =                            0.0000000000000000
    Total Energy =                        -15.5629201192689415

    Alert: EFP and PCM quantities not currently incorporated into SCF psivars.

Properties will be evaluated at   0.000000,   0.000000,   0.000000 Bohr
  ==> Properties <==


Properties computed using the SCF density matrix

  Nuclear Dipole Moment: (a.u.)
     X:     0.0000      Y:     0.0000      Z:     2.2583

  Electronic Dipole Moment: (a.u.)
     X:     0.0000      Y:     0.0000      Z:    -3.9660

  Dipole Moment: (a.u.)
     X:     0.0000      Y:     0.0000      Z:    -1.7077     Total:     1.7077

  Dipole Moment: (Debye)
     X:     0.0000      Y:     0.0000      Z:    -4.3405     Total:     4.3405


  Saving occupied orbitals to File 180.

*** tstop() called on Kevins-MacBook-Pro.local at Thu Feb 25 16:47:06 2016
Module time:
	user time   =       0.16 seconds =       0.00 minutes
	system time =       0.01 seconds =       0.00 minutes
	total time  =          0 seconds =       0.00 minutes
Total time:
	user time   =       0.38 seconds =       0.01 minutes
	system time =       0.02 seconds =       0.00 minutes
	total time  =          1 seconds =       0.02 minutes

Reading options from the FORTE block
Calling plugin /Users/kevinhannon/Programs/forte/forte.so.




  ==> MO Space Information <==

  Read options for space RESTRICTED_DOCC
  Read options for space ACTIVE
  -------------------------------------------------
                       A1    A2    B1    B2   Sum
  -------------------------------------------------
    FROZEN_DOCC         0     0     0     0     0
    RESTRICTED_DOCC     2     0     0     0     2
    ACTIVE              1     0     0     1     2
    RESTRICTED_UOCC     4     0     2     3     9
    FROZEN_UOCC         0     0     0     0     0
    Total               7     0     2     4    13
  -------------------------------------------------

  ==> Integral Transformation <==

  Number of molecular orbitals:               13
  Number of correlated molecular orbitals:    13
  Number of frozen occupied orbitals:          0
  Number of frozen unoccupied orbitals:        0


  DISKDFIntegrals overall time
 Computing Density fitted integrals 

 Number of auxiliary basis functions:  84
 Need 0.000106 GB to store DF integrals

    Computing DF Integrals               ......Done. Timing        0.108387 s
  DISKDFIntegrals take      0.13719300 s

                          ----------------------------
                            Semi-Canonical Orbitals
                            Francesco A. Evangelista
                          ----------------------------

 Making a fock matrix 

---------Blocking Information-------

  113568 / 192000000 = 0
  Block_size = 84 num_block = 1

  ==> Integral transformation <==

 Computing Density fitted integrals 

 Number of auxiliary basis functions:  84
 Need 0.000106 GB to store DF integrals

    Computing DF Integrals               ......Done. Timing        0.103453 s

	  ---------------------------------------------------------
	      DF/CD - Driven Similarity Renormalization Group MBPT2
	                   Kevin Hannon and Chenyang (York) Li
	                       1 thread(s) (OMP)
	  ---------------------------------------------------------
  Reference = ROHF
  Reference Energy = -15.565633591580374
 Making a fock matrix 

---------Blocking Information-------

  113568 / 192000000 = 0
  Block_size = 84 num_block = 1

  ==> Calculation Information <==

    Flow parameter                           5.000e-01
    Cholesky Tolerance                       1.000e-06
    Taylor expansion threshold               1.000e-03
    int_type                                    DISKDF
    ccvv_algorithm                           FLY_AMBIT
    ccvv_source                                 NORMAL
    Computing T2                         ......Done. Timing        0.013705 s
    Computing V and Renormalizing        ......Done. Timing        0.013384 s
    Computing T1                         ......Done. Timing        0.004507 s
    Renormalizing F                      ......Done. Timing        0.005563 s
    Computing <[F, T1]>                  ......Done. Timing        0.009286 s
    Computing <[F, T2]>                  ......Done. Timing        0.003755 s
    Computing <[V, T1]>                  ......Done. Timing        0.003612 s
    Computing <[V, T2]> (C_2)^4 (no ccvv) ......Done. Timing        0.024678 s
    Computing <[V, T2]> (C_2)^4 ccvv     ......Done. Timing        0.005490 s
    Computing <[V, T2]> 4HH              ......Done. Timing        0.021916 s
    Computing <V, T2]> 4PP               ...  Done. Timing        0.022503 s
    Computing [V, T2] 4PH                ...  Done. Timing        0.082609 s
    Computing [V, T2] λ3                ......Done. Timing        0.016310 s

  ==> DSRG-MRPT2 Energy Summary <==

    E0 (reference)                 =    -15.565633591580374
    <[F, T1]>                      =     -0.000005824150364
    <[F, T2]>                      =     -0.000001324425736
    <[V, T1]>                      =      0.000003840768016
    <[V, T2]> (C_2)^4              =     -0.047452607547065
    <[V, T2]> C_4 (C_2)^2 HH       =      0.000392449667091
    <[V, T2]> C_4 (C_2)^2 PP       =      0.000766709375238
    <[V, T2]> C_4 (C_2)^2 PH       =     -0.001594005282790
    <[V, T2]> C_6 C_2              =      0.000140093177682
    <[V, T2]>                      =     -0.047747360609844
    DSRG-MRPT2 correlation energy  =     -0.047750668417928
    DSRG-MRPT2 total energy        =    -15.613384259998302
    max(T1)                        =      0.000466312339999
    ||T1||                         =      0.001211696197757


    CD/DF-DSRG-MRPT2 took   0.22795400 s.

  Your calculation took 0.55406300 seconds
	DSRG-MRPT2 Energy.................................................PASSED

*** PSI4 exiting successfully. Buy a developer a beer!
