
    -----------------------------------------------------------------------
          Psi4: An Open-Source Ab Initio Electronic Structure Package
                               Psi4 1.10a1.dev53 

                         Git: Rev {master} 45660d8 dirty


    D. G. A. Smith, L. A. Burns, A. C. Simmonett, R. M. Parrish,
    M. C. Schieber, R. Galvelis, P. Kraus, H. Kruse, R. Di Remigio,
    A. Alenaizan, A. M. James, S. Lehtola, J. P. Misiewicz, M. Scheurer,
    R. A. Shaw, J. B. Schriber, Y. Xie, Z. L. Glick, D. A. Sirianni,
    J. S. O'Brien, J. M. Waldrop, A. Kumar, E. G. Hohenstein,
    B. P. Pritchard, B. R. Brooks, H. F. Schaefer III, A. Yu. Sokolov,
    K. Patkowski, A. E. DePrince III, U. Bozkaya, R. A. King,
    F. A. Evangelista, J. M. Turney, T. D. Crawford, C. D. Sherrill,
    J. Chem. Phys. 152(18) 184108 (2020). https://doi.org/10.1063/5.0006002

                            Additional Code Authors
    E. T. Seidl, C. L. Janssen, E. F. Valeev, M. L. Leininger,
    J. F. Gonthier, R. M. Richard, H. R. McAlexander, M. Saitow, X. Wang,
    P. Verma, M. H. Lechner, A. Jiang, S. Behnle, A. G. Heide,
    M. F. Herbst, and D. L. Poole

             Previous Authors, Complete List of Code Contributors,
                       and Citations for Specific Modules
    https://github.com/psi4/psi4/blob/master/codemeta.json
    https://github.com/psi4/psi4/graphs/contributors
    http://psicode.org/psi4manual/master/introduction.html#citing-psifour

    -----------------------------------------------------------------------


    Psi4 started on: Tuesday, 17 September 2024 03:25PM

    Process ID: 19290
    Host:       Brian-Zs-MBA.local
    PSIDATADIR: /Users/brianz98/local/psi4/objdir-Release/stage/share/psi4
    Memory:     500.0 MiB
    Threads:    1
    
  ==> Input File <==

--------------------------------------------------------------------------
#! Generated using commit GITCOMMIT

import forte

molecule {
0 1
Li
H 1 R

R = 3.0
units bohr 
}

set {
  basis sto-3g
  reference rhf
  scf_type pk
  e_convergence 12
}

set forte {
  active_space_solver genci
  fci_test_rdms true
}

energy('scf')
energy('forte')

compare_values(0.0, variable("AA 1-RDM ERROR"),12, "AA 1-RDM") #TEST
compare_values(0.0, variable("BB 1-RDM ERROR"),12, "BB 1-RDM") #TEST
compare_values(0.0, variable("AAAA 2-RDM ERROR"),12, "AAAA 2-RDM") #TEST
compare_values(0.0, variable("BBBB 2-RDM ERROR"),12, "BBBB 2-RDM") #TEST
compare_values(0.0, variable("ABAB 2-RDM ERROR"),12, "ABAB 2-RDM") #TEST
compare_values(0.0, variable("AABAAB 3-RDM ERROR"),12, "AABAAB 3-RDM") #TEST
compare_values(0.0, variable("ABBABB 3-RDM ERROR"),12, "ABBABB 3-RDM") #TEST
compare_values(0.0, variable("AAAAAA 3-RDM ERROR"),12, "AAAAAA 3-RDM") #TEST
compare_values(0.0, variable("BBBBBB 3-RDM ERROR"),12, "BBBBBB 3-RDM") #TEST
compare_values(0.0, variable("AAAAAAAA 4-RDM ERROR"),12, "AAAAAAAA 4-RDM") #TEST
compare_values(0.0, variable("AAABAAAB 4-RDM ERROR"),12, "AAABAAAB 4-RDM") #TEST
compare_values(0.0, variable("AABBAABB 4-RDM ERROR"),12, "AABBAABB 4-RDM") #TEST
compare_values(0.0, variable("ABBBABBB 4-RDM ERROR"),12, "ABBBABBB 4-RDM") #TEST
compare_values(0.0, variable("BBBBBBBB 4-RDM ERROR"),12, "BBBBBBBB 4-RDM") #TEST
--------------------------------------------------------------------------

Scratch directory: /tmp/
   => Libint2 <=

    Primary   basis highest AM E, G, H:  6, 6, 3
    Auxiliary basis highest AM E, G, H:  7, 7, 4
    Onebody   basis highest AM E, G, H:  -, -, -
    Solid Harmonics ordering:            Gaussian

*** tstart() called on Brian-Zs-MBA.local
*** at Tue Sep 17 15:25:33 2024

   => Loading Basis Set <=

    Name: STO-3G
    Role: ORBITAL
    Keyword: BASIS
    atoms 1 entry LI         line    31 file /Users/brianz98/local/psi4/objdir-Release/stage/share/psi4/basis/sto-3g.gbs 
    atoms 2 entry H          line    19 file /Users/brianz98/local/psi4/objdir-Release/stage/share/psi4/basis/sto-3g.gbs 


         ---------------------------------------------------------
                                   SCF
               by Justin Turney, Rob Parrish, Andy Simmonett
                          and Daniel G. A. Smith
                              RHF Reference
                        1 Threads,    500 MiB Core
         ---------------------------------------------------------

  ==> Geometry <==

    Molecular point group: c2v
    Full point group: C_inf_v

    Geometry (in Bohr), charge = 0, multiplicity = 1:

       Center              X                  Y                   Z               Mass       
    ------------   -----------------  -----------------  -----------------  -----------------
         LI           0.000000000000     0.000000000000    -0.376812030371     7.016003436600
         H            0.000000000000     0.000000000000     2.623187969629     1.007825032230

  Running in c2v symmetry.

  Rotational constants: A = ************  B =      7.59029  C =      7.59029 [cm^-1]
  Rotational constants: A = ************  B = 227551.19787  C = 227551.19787 [MHz]
  Nuclear repulsion =    1.000000000000000

  Charge       = 0
  Multiplicity = 1
  Electrons    = 4
  Nalpha       = 2
  Nbeta        = 2

  ==> Algorithm <==

  SCF Algorithm Type is PK.
  DIIS enabled.
  MOM disabled.
  Fractional occupation disabled.
  Guess Type is SAD.
  Energy threshold   = 1.00e-12
  Density threshold  = 1.00e-06
  Integral threshold = 1.00e-12

  ==> Primary Basis <==

  Basis Set: STO-3G
    Blend: STO-3G
    Number of shells: 4
    Number of basis functions: 6
    Number of Cartesian functions: 6
    Spherical Harmonics?: true
    Max angular momentum: 1

  ==> Integral Setup <==

  Using in-core PK algorithm.
   Calculation information:
      Number of atoms:                   2
      Number of AO shells:               4
      Number of primitives:             12
      Number of atomic orbitals:         6
      Number of basis functions:         6

      Integral cutoff                 1.00e-12
      Number of threads:                 1

  Performing in-core PK
  Using 462 doubles for integral storage.
  We computed 55 shell quartets total.
  Whereas there are 55 unique shell quartets.

  ==> DiskJK: Disk-Based J/K Matrices <==

    J tasked:                  Yes
    K tasked:                  Yes
    wK tasked:                  No
    Memory [MiB]:              375
    Schwarz Cutoff:          1E-12

    OpenMP threads:              1

  Minimum eigenvalue in the overlap matrix is 3.4333995519E-01.
  Reciprocal condition number of the overlap matrix is 2.0339047710E-01.
    Using symmetric orthogonalization.

  ==> Pre-Iterations <==

  SCF Guess: Superposition of Atomic Densities via on-the-fly atomic UHF (no occupation information).

   -------------------------
    Irrep   Nso     Nmo    
   -------------------------
     A1         4       4 
     A2         0       0 
     B1         1       1 
     B2         1       1 
   -------------------------
    Total       6       6
   -------------------------

  ==> Iterations <==

                        Total Energy        Delta E     RMS |[F,P]|

   @RHF iter SAD:    -6.75622365412217   -6.75622e+00   0.00000e+00 
   @RHF iter   1:    -7.86092861588784   -1.10470e+00   8.57305e-03 DIIS/ADIIS
   @RHF iter   2:    -7.86223475166447   -1.30614e-03   8.22758e-04 DIIS/ADIIS
   @RHF iter   3:    -7.86224589388798   -1.11422e-05   7.41119e-05 DIIS
   @RHF iter   4:    -7.86224624208850   -3.48201e-07   2.61264e-05 DIIS
   @RHF iter   5:    -7.86224631040868   -6.83202e-08   3.24230e-07 DIIS
   @RHF iter   6:    -7.86224631041032   -1.64135e-12   1.56779e-08 DIIS
   @RHF iter   7:    -7.86224631041034   -1.77636e-14   2.79325e-12 DIIS
  Energy and wave function converged.


  ==> Post-Iterations <==

    Orbital Energies [Eh]
    ---------------------

    Doubly Occupied:                                                      

       1A1    -2.348477     2A1    -0.286330  

    Virtual:                                                              

       3A1     0.078326     1B1     0.163933     1B2     0.163933  
       4A1     0.551172  

    Final Occupation by Irrep:
             A1    A2    B1    B2 
    DOCC [     2,    0,    0,    0 ]
    NA   [     2,    0,    0,    0 ]
    NB   [     2,    0,    0,    0 ]

  @RHF Final Energy:    -7.86224631041034

   => Energetics <=

    Nuclear Repulsion Energy =              1.0000000000000000
    One-Electron Energy =                 -12.4548780553254126
    Two-Electron Energy =                   3.5926317449150740
    Total Energy =                         -7.8622463104103382

Computation Completed


Properties will be evaluated at   0.000000,   0.000000,   0.000000 [a0]

Properties computed using the SCF density matrix


 Multipole Moments:

 ------------------------------------------------------------------------------------
     Multipole            Electronic (a.u.)      Nuclear  (a.u.)        Total (a.u.)
 ------------------------------------------------------------------------------------

 L = 1.  Multiply by 2.5417464519 to convert [e a0] to [Debye]
 Dipole X            :          0.0000000            0.0000000            0.0000000
 Dipole Y            :          0.0000000            0.0000000            0.0000000
 Dipole Z            :         -3.4031201            1.4927519           -1.9103682
 Magnitude           :                                                    1.9103682

 ------------------------------------------------------------------------------------

*** tstop() called on Brian-Zs-MBA.local at Tue Sep 17 15:25:33 2024
Module time:
	user time   =       0.09 seconds =       0.00 minutes
	system time =       0.01 seconds =       0.00 minutes
	total time  =          0 seconds =       0.00 minutes
Total time:
	user time   =       0.09 seconds =       0.00 minutes
	system time =       0.01 seconds =       0.00 minutes
	total time  =          0 seconds =       0.00 minutes

Scratch directory: /tmp/

  Forte
  ----------------------------------------------------------------------------
  A suite of quantum chemistry methods for strongly correlated electrons

    git branch: rdm4 - git commit: 7780d650

  Developed by:
    Francesco A. Evangelista, Chenyang Li, Kevin P. Hannon,
    Jeffrey B. Schriber, Tianyuan Zhang, Chenxi Cai,
    Nan He, Nicholas Stair, Shuhe Wang, Renke Huang
  ----------------------------------------------------------------------------


  Preparing forte objects from a Psi4 Wavefunction object
  No reference wave function provided for Forte. Computing SCF orbitals using Psi4 ...
   => Libint2 <=

    Primary   basis highest AM E, G, H:  6, 6, 3
    Auxiliary basis highest AM E, G, H:  7, 7, 4
    Onebody   basis highest AM E, G, H:  -, -, -
    Solid Harmonics ordering:            Gaussian

*** tstart() called on Brian-Zs-MBA.local
*** at Tue Sep 17 15:25:33 2024

   => Loading Basis Set <=

    Name: STO-3G
    Role: ORBITAL
    Keyword: BASIS
    atoms 1 entry LI         line    31 file /Users/brianz98/local/psi4/objdir-Release/stage/share/psi4/basis/sto-3g.gbs 
    atoms 2 entry H          line    19 file /Users/brianz98/local/psi4/objdir-Release/stage/share/psi4/basis/sto-3g.gbs 


         ---------------------------------------------------------
                                   SCF
               by Justin Turney, Rob Parrish, Andy Simmonett
                          and Daniel G. A. Smith
                              RHF Reference
                        1 Threads,    500 MiB Core
         ---------------------------------------------------------

  ==> Geometry <==

    Molecular point group: c2v
    Full point group: C_inf_v

    Geometry (in Bohr), charge = 0, multiplicity = 1:

       Center              X                  Y                   Z               Mass       
    ------------   -----------------  -----------------  -----------------  -----------------
         LI           0.000000000000     0.000000000000    -0.376812030371     7.016003436600
         H            0.000000000000     0.000000000000     2.623187969629     1.007825032230

  Running in c2v symmetry.

  Rotational constants: A = ************  B =      7.59029  C =      7.59029 [cm^-1]
  Rotational constants: A = ************  B = 227551.19787  C = 227551.19787 [MHz]
  Nuclear repulsion =    1.000000000000000

  Charge       = 0
  Multiplicity = 1
  Electrons    = 4
  Nalpha       = 2
  Nbeta        = 2

  ==> Algorithm <==

  SCF Algorithm Type is PK.
  DIIS enabled.
  MOM disabled.
  Fractional occupation disabled.
  Guess Type is SAD.
  Energy threshold   = 1.00e-12
  Density threshold  = 1.00e-08
  Integral threshold = 1.00e-12

  ==> Primary Basis <==

  Basis Set: STO-3G
    Blend: STO-3G
    Number of shells: 4
    Number of basis functions: 6
    Number of Cartesian functions: 6
    Spherical Harmonics?: true
    Max angular momentum: 1

  ==> Integral Setup <==

  Using in-core PK algorithm.
   Calculation information:
      Number of atoms:                   2
      Number of AO shells:               4
      Number of primitives:             12
      Number of atomic orbitals:         6
      Number of basis functions:         6

      Integral cutoff                 1.00e-12
      Number of threads:                 1

  Performing in-core PK
  Using 462 doubles for integral storage.
  We computed 55 shell quartets total.
  Whereas there are 55 unique shell quartets.

  ==> DiskJK: Disk-Based J/K Matrices <==

    J tasked:                  Yes
    K tasked:                  Yes
    wK tasked:                  No
    Memory [MiB]:              375
    Schwarz Cutoff:          1E-12

    OpenMP threads:              1

  Minimum eigenvalue in the overlap matrix is 3.4333995519E-01.
  Reciprocal condition number of the overlap matrix is 2.0339047710E-01.
    Using symmetric orthogonalization.

  ==> Pre-Iterations <==

  SCF Guess: Superposition of Atomic Densities via on-the-fly atomic UHF (no occupation information).

   -------------------------
    Irrep   Nso     Nmo    
   -------------------------
     A1         4       4 
     A2         0       0 
     B1         1       1 
     B2         1       1 
   -------------------------
    Total       6       6
   -------------------------

  ==> Iterations <==

                        Total Energy        Delta E     RMS |[F,P]|

   @RHF iter SAD:    -6.75622365412217   -6.75622e+00   0.00000e+00 
   @RHF iter   1:    -7.86092861588784   -1.10470e+00   8.57305e-03 DIIS/ADIIS
   @RHF iter   2:    -7.86223475166447   -1.30614e-03   8.22758e-04 DIIS/ADIIS
   @RHF iter   3:    -7.86224589388798   -1.11422e-05   7.41119e-05 DIIS
   @RHF iter   4:    -7.86224624208850   -3.48201e-07   2.61264e-05 DIIS
   @RHF iter   5:    -7.86224631040868   -6.83202e-08   3.24230e-07 DIIS
   @RHF iter   6:    -7.86224631041032   -1.64135e-12   1.56779e-08 DIIS
   @RHF iter   7:    -7.86224631041034   -1.77636e-14   2.79325e-12 DIIS
  Energy and wave function converged.


  ==> Post-Iterations <==

    Orbital Energies [Eh]
    ---------------------

    Doubly Occupied:                                                      

       1A1    -2.348477     2A1    -0.286330  

    Virtual:                                                              

       3A1     0.078326     1B1     0.163933     1B2     0.163933  
       4A1     0.551172  

    Final Occupation by Irrep:
             A1    A2    B1    B2 
    DOCC [     2,    0,    0,    0 ]
    NA   [     2,    0,    0,    0 ]
    NB   [     2,    0,    0,    0 ]

  @RHF Final Energy:    -7.86224631041034

   => Energetics <=

    Nuclear Repulsion Energy =              1.0000000000000000
    One-Electron Energy =                 -12.4548780553254126
    Two-Electron Energy =                   3.5926317449150740
    Total Energy =                         -7.8622463104103382

Computation Completed


Properties will be evaluated at   0.000000,   0.000000,   0.000000 [a0]

Properties computed using the SCF density matrix


 Multipole Moments:

 ------------------------------------------------------------------------------------
     Multipole            Electronic (a.u.)      Nuclear  (a.u.)        Total (a.u.)
 ------------------------------------------------------------------------------------

 L = 1.  Multiply by 2.5417464519 to convert [e a0] to [Debye]
 Dipole X            :          0.0000000            0.0000000            0.0000000
 Dipole Y            :          0.0000000            0.0000000            0.0000000
 Dipole Z            :         -3.4031201            1.4927519           -1.9103682
 Magnitude           :                                                    1.9103682

 ------------------------------------------------------------------------------------

*** tstop() called on Brian-Zs-MBA.local at Tue Sep 17 15:25:33 2024
Module time:
	user time   =       0.09 seconds =       0.00 minutes
	system time =       0.00 seconds =       0.00 minutes
	total time  =          0 seconds =       0.00 minutes
Total time:
	user time   =       0.31 seconds =       0.01 minutes
	system time =       0.01 seconds =       0.00 minutes
	total time  =          0 seconds =       0.00 minutes


  ==> MO Space Information <==

  -------------------------------------------------
                       A1    A2    B1    B2   Sum
  -------------------------------------------------
    FROZEN_DOCC         0     0     0     0     0
    RESTRICTED_DOCC     0     0     0     0     0
    GAS1                4     0     1     1     6
    GAS2                0     0     0     0     0
    GAS3                0     0     0     0     0
    GAS4                0     0     0     0     0
    GAS5                0     0     0     0     0
    GAS6                0     0     0     0     0
    RESTRICTED_UOCC     0     0     0     0     0
    FROZEN_UOCC         0     0     0     0     0
    Total               4     0     1     1     6
  -------------------------------------------------   => Loading Basis Set <=

    Name: STO-3G
    Role: ORBITAL
    Keyword: MINAO_BASIS
    atoms 1 entry LI         line    31 file /Users/brianz98/local/psi4/objdir-Release/stage/share/psi4/basis/sto-3g.gbs 
    atoms 2 entry H          line    19 file /Users/brianz98/local/psi4/objdir-Release/stage/share/psi4/basis/sto-3g.gbs 


  State Singlet (Ms = 0) A1 GAS min: 0 0 0 0 0 0 ; GAS max: 12 0 0 0 0 0 ; weights:
      1.000000000000
  Forte will use psi4 integrals

  ==> Primary Basis Set Summary <==

  Basis Set: STO-3G
    Blend: STO-3G
    Number of shells: 4
    Number of basis functions: 6
    Number of Cartesian functions: 6
    Spherical Harmonics?: true
    Max angular momentum: 1


  JK created using conventional PK integrals
  Using in-core PK algorithm.
   Calculation information:
      Number of atoms:                   2
      Number of AO shells:               4
      Number of primitives:             12
      Number of atomic orbitals:         6
      Number of basis functions:         6

      Integral cutoff                 1.00e-12
      Number of threads:                 1

  Performing in-core PK
  Using 462 doubles for integral storage.
  We computed 55 shell quartets total.
  Whereas there are 55 unique shell quartets.

  ==> DiskJK: Disk-Based J/K Matrices <==

    J tasked:                  Yes
    K tasked:                  Yes
    wK tasked:                  No
    Memory [MiB]:              400
    Schwarz Cutoff:          1E-12

    OpenMP threads:              1



  ==> Integral Transformation <==

  Number of molecular orbitals:                          6
  Number of correlated molecular orbitals:               6
  Number of frozen occupied orbitals:                    0
  Number of frozen unoccupied orbitals:                  0
  Two-electron integral type:                 Conventional


  Computing Conventional Integrals	Presorting SO-basis two-electron integrals.
	Sorting File: SO Ints (nn|nn) nbuckets = 1
	Constructing frozen core operators
	Starting first half-transformation.
	Sorting half-transformed integrals.
	First half integral transformation complete.
	Starting second half-transformation.
	Two-electron integral transformation complete.

  Integral transformation done. 0.00360425 s
  Reading the two-electron integrals from disk
  Size of two-electron integrals:   0.000029 GB
  Timing for conventional integral transformation:            0.009 s.
  Timing for freezing core and virtual orbitals:              0.000 s.
  Timing for computing conventional integrals:                0.009 s.

          -----------------------------------------------------------
                  Multi-Configurational Self Consistent Field
                Two-Step Approximate Second-Order AO Algorithm
            written by Chenyang Li, Kevin P. Hannon, and Shuhe Wang
          -----------------------------------------------------------


  ==> MCSCF Calculation Information <==

    --------------------------------------------------------
    Print level                                      Default
    Integral type                               CONVENTIONAL
    CI solver type                                     GENCI
    Final orbital type                             CANONICAL
    Derivative type                                     NONE
    Optimize orbitals                                   TRUE
    Include internal rotations                         FALSE
    Debug printing                                     FALSE
    Energy convergence                             1.000e-08
    Gradient convergence                           1.000e-07
    Max value for rotation                         2.000e-01
    Max number of macro iter.                            100
    Max number of micro iter. for orbitals                 6
    Max number of micro iter. for CI                      12
    DIIS start                                            15
    Min DIIS vectors                                       3
    Max DIIS vectors                                       8
    Frequency of DIIS extrapolation                        1
    --------------------------------------------------------

  ==> Independent Orbital Rotations <==

    ORBITAL SPACES                        A1     A2     B1     B2
    -------------------------------------------------------------
             ACTIVE / RESTRICTED_DOCC      0      0      0      0
    RESTRICTED_UOCC /          ACTIVE      0      0      0      0
    RESTRICTED_UOCC / RESTRICTED_DOCC      0      0      0      0
    -------------------------------------------------------------

  ==> Possible Electron Occupations <==

    Config.   Space 1
               α    β 
    -----------------
         1     2    2

  ==> String Lists <==

    --------------------------------------------------------
    number of alpha electrons                              2
    number of beta electrons                               2
    number of alpha strings                               15
    number of beta strings                                15
    --------------------------------------------------------

  ==> String-based CI Solver <==

    --------------------------------------------------------
    Print level                                      Default
    Spin adapt                                         FALSE
    Number of determinants                                69
    Symmetry                                               0
    Multiplicity                                           1
    Number of roots                                        1
    Target root                                            0
    --------------------------------------------------------

  ==> Initial Guess <==

  Initial guess determinants:         50

  Classification of the initial guess solutions

  Number   2S+1   Selected
  ------------------------
    28       1       *
    21       3        
     1       5        
  ------------------------

    Spin    Root           Energy        <S^2>    Status
  -------------------------------------------------------
   singlet    0       -7.882494298809  -0.000000  added
  -------------------------------------------------------

  ==> Davidson-Liu Solver <==

    --------------------------------------------------------
    Print level                                      Default
    Energy convergence threshold                   1.000e-08
    Residual convergence threshold                 1.000e-06
    Schmidt orthogonality threshold                1.000e-12
    Schmidt discard threshold                      1.000e-07
    Size of the space                                     69
    Number of roots                                        1
    Maximum number of iterations                         100
    Collapse subspace size                                 2
    Maximum subspace size                                 10
    --------------------------------------------------------

  Davidson-Liu solver: adding 1 guess vectors
  Iteration     Average Energy            max(∆E)            max(Residual)  Vectors
  ---------------------------------------------------------------------------------
       0       -7.882494298809        7.882494298809        0.008038987350      1
       1       -7.882504307468        0.000010008659        0.000284247755      2
       2       -7.882504329166        0.000000021698        0.000021027585      3
       3       -7.882504329345        0.000000000179        0.000006599970      4
       4       -7.882504329370        0.000000000025        0.000001340396      5
       5       -7.882504329372        0.000000000002        0.000000531683      6
  ---------------------------------------------------------------------------------
  Timing for CI:                                              0.006 s.

  ==> Root No. 0 <==

    2200 0 0     -0.98722460
    2002 0 0      0.11303965

    Total Energy:      -7.882504329372, <S^2>: 0.000000
    Timing for 3-RDM (aab): 0.000 s
    Timing for 3-RDM (abb): 0.000 s
    Timing for 4-RDM (aabb): 0.005 s

==> RDMs Test (max level = 4)<==

    AA 1-RDM Error :   +2.483883e-16
    BB 1-RDM Error :   +1.573397e-16
    AAAA 2-RDM Error :   +4.764858e-16
    BBBB 2-RDM Error :   +4.767134e-16
    ABAB 2-RDM Error :   +2.070125e-16
    AAAAAA 3-RDM Error : +0.000000e+00
    AABAAB 3-RDM Error : +3.585422e-17
    ABBABB 3-RDM Error : +1.834991e-18
    BBBBBB 3-RDM Error : +0.000000e+00
    AAAAAAAA 4-RDM Error : +0.000000e+00
    AAABAAAB 4-RDM Error : +0.000000e+00
    AABBAABB 4-RDM Error : +0.000000e+00
    ABBBABBB 4-RDM Error : +0.000000e+00
    BBBBBBBB 4-RDM Error : +0.000000e+00

  ==> Energy Summary <==

    Multi.(2ms)  Irrep.  No.               Energy      <S^2>
    --------------------------------------------------------
       1  (  0)    A1     0       -7.882504329372   0.000000
    --------------------------------------------------------

==> RDMs Test (max level = 1)<==

    SF 1-RDM Error :   +4.975030e-16

  ==> Natural Orbitals Occupation Numbers <==

        1A1     1.999911      2A1     1.955085      3A1     0.041876  
        1B1     0.001534      1B2     0.001534      4A1     0.000059  


  ==> Dipole Moments [e a0] (Nuclear + Electronic) for Singlet (Ms = 0) A1 <==

       State           DM_X           DM_Y           DM_Z           |DM|
    --------------------------------------------------------------------
         0A1     0.00000000     0.00000000    -1.81815571     1.81815571
    --------------------------------------------------------------------
     Nuclear     0.00000000     0.00000000     1.49275188     1.49275188
    --------------------------------------------------------------------

==> RDMs Test (max level = 1)<==

    SF 1-RDM Error :   +4.975030e-16

  ==> Natural Orbitals Occupation Numbers <==

        1A1     1.999911      2A1     1.955085      3A1     0.041876  
        1B1     0.001534      1B2     0.001534      4A1     0.000059  


  ==> Quadrupole Moments [e a0^2] (Nuclear + Electronic) for Singlet (Ms = 0) A1 <==

       State          QM_XX          QM_XY          QM_XZ          QM_YY          QM_YZ          QM_ZZ
    --------------------------------------------------------------------------------------------------
         0A1    -4.08221296     0.00000000     0.00000000    -4.08221296     0.00000000    -4.94856087
    --------------------------------------------------------------------------------------------------
     Nuclear     0.00000000     0.00000000     0.00000000     0.00000000     0.00000000     7.30707704
    --------------------------------------------------------------------------------------------------

==> RDMs Test (max level = 2)<==

    SF 1-RDM Error :   +4.975030e-16
    AAAA 2-RDM Error :   +5.248916e-08
    BBBB 2-RDM Error :   +5.248916e-08
    ABAB 2-RDM Error :   +5.248916e-08

  ==> Natural Orbitals Occupation Numbers <==

        1A1     1.999911      2A1     1.955085      3A1     0.041876  
        1B1     0.001534      1B2     0.001534      4A1     0.000059  


  ==> Possible Electron Occupations <==

    Config.   Space 1
               α    β 
    -----------------
         1     2    2

  ==> String Lists <==

    --------------------------------------------------------
    number of alpha electrons                              2
    number of beta electrons                               2
    number of alpha strings                               15
    number of beta strings                                15
    --------------------------------------------------------

  ==> String-based CI Solver <==

    --------------------------------------------------------
    Print level                                      Default
    Spin adapt                                         FALSE
    Number of determinants                                69
    Symmetry                                               0
    Multiplicity                                           1
    Number of roots                                        1
    Target root                                            0
    --------------------------------------------------------

  ==> Initial Guess <==

  Initial guess determinants:         50

  Classification of the initial guess solutions

  Number   2S+1   Selected
  ------------------------
    28       1       *
    21       3        
     1       5        
  ------------------------

    Spin    Root           Energy        <S^2>    Status
  -------------------------------------------------------
   singlet    0       -7.882494298809  -0.000000  added
  -------------------------------------------------------

  ==> Davidson-Liu Solver <==

    --------------------------------------------------------
    Print level                                      Default
    Energy convergence threshold                   1.000e-12
    Residual convergence threshold                 1.000e-06
    Schmidt orthogonality threshold                1.000e-12
    Schmidt discard threshold                      1.000e-07
    Size of the space                                     69
    Number of roots                                        1
    Maximum number of iterations                         100
    Collapse subspace size                                 2
    Maximum subspace size                                 10
    --------------------------------------------------------

  Davidson-Liu solver: adding 1 guess vectors
  Iteration     Average Energy            max(∆E)            max(Residual)  Vectors
  ---------------------------------------------------------------------------------
       0       -7.882494298809        7.882494298809        0.008038987350      1
       1       -7.882504307468        0.000010008659        0.000284247755      2
       2       -7.882504329166        0.000000021698        0.000021027585      3
       3       -7.882504329345        0.000000000179        0.000006599970      4
       4       -7.882504329370        0.000000000025        0.000001340396      5
       5       -7.882504329372        0.000000000002        0.000000531683      6
       6       -7.882504329372        0.000000000000        0.000000120716      7
  ---------------------------------------------------------------------------------
  Timing for CI:                                              0.001 s.

  ==> Root No. 0 <==

    2200 0 0      0.98722452
    2002 0 0     -0.11303969

    Total Energy:      -7.882504329372, <S^2>: 0.000000
    Timing for 3-RDM (aab): 0.000 s
    Timing for 3-RDM (abb): 0.000 s
    Timing for 4-RDM (aabb): 0.001 s

==> RDMs Test (max level = 4)<==

    AA 1-RDM Error :   +2.223021e-16
    BB 1-RDM Error :   +1.140409e-16
    AAAA 2-RDM Error :   +1.112128e-17
    BBBB 2-RDM Error :   +6.716114e-17
    ABAB 2-RDM Error :   +4.478902e-16
    AAAAAA 3-RDM Error : +0.000000e+00
    AABAAB 3-RDM Error : +7.676617e-18
    ABBABB 3-RDM Error : +7.248220e-19
    BBBBBB 3-RDM Error : +0.000000e+00
    AAAAAAAA 4-RDM Error : +0.000000e+00
    AAABAAAB 4-RDM Error : +0.000000e+00
    AABBAABB 4-RDM Error : +0.000000e+00
    ABBBABBB 4-RDM Error : +0.000000e+00
    BBBBBBBB 4-RDM Error : +0.000000e+00

  ==> Energy Summary <==

    Multi.(2ms)  Irrep.  No.               Energy      <S^2>
    --------------------------------------------------------
       1  (  0)    A1     0       -7.882504329372   0.000000
    --------------------------------------------------------

==> RDMs Test (max level = 1)<==

    SF 1-RDM Error :   +2.247255e-16

  ==> Natural Orbitals Occupation Numbers <==

        1A1     1.999911      2A1     1.955085      3A1     0.041876  
        1B2     0.001534      1B1     0.001534      4A1     0.000059  


  ==> Dipole Moments [e a0] (Nuclear + Electronic) for Singlet (Ms = 0) A1 <==

       State           DM_X           DM_Y           DM_Z           |DM|
    --------------------------------------------------------------------
         0A1     0.00000000     0.00000000    -1.81815375     1.81815375
    --------------------------------------------------------------------
     Nuclear     0.00000000     0.00000000     1.49275188     1.49275188
    --------------------------------------------------------------------

==> RDMs Test (max level = 1)<==

    SF 1-RDM Error :   +2.247255e-16

  ==> Natural Orbitals Occupation Numbers <==

        1A1     1.999911      2A1     1.955085      3A1     0.041876  
        1B2     0.001534      1B1     0.001534      4A1     0.000059  


  ==> Quadrupole Moments [e a0^2] (Nuclear + Electronic) for Singlet (Ms = 0) A1 <==

       State          QM_XX          QM_XY          QM_XZ          QM_YY          QM_YZ          QM_ZZ
    --------------------------------------------------------------------------------------------------
         0A1    -4.08221616     0.00000000     0.00000000    -4.08221616     0.00000000    -4.94855691
    --------------------------------------------------------------------------------------------------
     Nuclear     0.00000000     0.00000000     0.00000000     0.00000000     0.00000000     7.30707704
    --------------------------------------------------------------------------------------------------

  Time to prepare integrals:        0.128 seconds
  Time to run job          :        0.416 seconds
  Total                    :        0.544 seconds
    AA 1-RDM..............................................................................PASSED
    BB 1-RDM..............................................................................PASSED
    AAAA 2-RDM............................................................................PASSED
    BBBB 2-RDM............................................................................PASSED
    ABAB 2-RDM............................................................................PASSED
    AABAAB 3-RDM..........................................................................PASSED
    ABBABB 3-RDM..........................................................................PASSED
    AAAAAA 3-RDM..........................................................................PASSED
    BBBBBB 3-RDM..........................................................................PASSED
    AAAAAAAA 4-RDM........................................................................PASSED
    AAABAAAB 4-RDM........................................................................PASSED
    AABBAABB 4-RDM........................................................................PASSED
    ABBBABBB 4-RDM........................................................................PASSED
    BBBBBBBB 4-RDM........................................................................PASSED

    Psi4 stopped on: Tuesday, 17 September 2024 03:25PM
    Psi4 wall time for execution: 0:00:01.46

*** Psi4 exiting successfully. Buy a developer a beer!
