
    -----------------------------------------------------------------------
          Psi4: An Open-Source Ab Initio Electronic Structure Package
                               Psi4 1.2a1.dev422 

                         Git: Rev {HEAD} 28e4f15 dirty


    R. M. Parrish, L. A. Burns, D. G. A. Smith, A. C. Simmonett,
    A. E. DePrince III, E. G. Hohenstein, U. Bozkaya, A. Yu. Sokolov,
    R. Di Remigio, R. M. Richard, J. F. Gonthier, A. M. James,
    H. R. McAlexander, A. Kumar, M. Saitow, X. Wang, B. P. Pritchard,
    P. Verma, H. F. Schaefer III, K. Patkowski, R. A. King, E. F. Valeev,
    F. A. Evangelista, J. M. Turney, T. D. Crawford, and C. D. Sherrill,
    J. Chem. Theory Comput. in press (2017).
    (doi: 10.1021/acs.jctc.7b00174)

    -----------------------------------------------------------------------


    Psi4 started on: Thursday, 17 August 2017 03:17PM

    Process ID:  11926
    PSIDATADIR: /opt/software/psi4/psi4-github-bin-g++-4.9.0-opt-c++11/share/psi4
    Memory:     500.0 MiB
    Threads:    1
    
  ==> Input File <==

--------------------------------------------------------------------------
#! Generated using commit GITCOMMIT

import forte

refrohf      = -15.611546532146
refdsrg   = -15.545759344425274

molecule {
  0 3
  Be 0.00000000    0.00000000   0.000000000
  H  0.00000000    1.2750       2.7500
  H  0.00000000   -1.2750       2.7500
  units bohr
  no_reorient
}

basis { 
cartesian
****
Be 0
S 6 1.00 
 1267.07000 0.001940
  190.35600 0.014786
   43.29590 0.071795
   12.14420 0.236348
    3.80923 0.471763
    1.26847 0.355183
S 3 1.00
    5.69388 -0.028876
    1.55563 -0.177565
    0.171855 1.071630
S 1 1.0
    0.057181 1.000000
P 1 1.0
    5.69388  1.000000
P 2 1.0
    1.55563  0.144045
    0.171855 0.949692
****
H 0 
S 3 1.00 
   19.24060  0.032828   
    2.899200 0.231208   
    0.653400 0.817238
S 1 1.0   
    0.177600  1.00000
****
} 

set {
  docc               [2,0,0,0]
  socc               [1,0,0,1]
  reference          rohf
  scf_type           pk
  maxiter            300
  e_convergence      8
  d_convergence      10
}

set forte {
  job_type               mrdsrg
  int_type               cholesky
  CHOLESKY_TOLERANCE     1e-4
  corr_level             ldsrg2
  frozen_docc            [1,0,0,0]
  restricted_docc        [1,0,0,0]
  active                 [1,0,0,1]
  multiplicity           1
  root_sym               0
  nroot                  1
  root                   0
  dsrg_s                 1.0
  maxiter                100
  e_convergence          8
# semi_canonical         false
  dsrg_hbar_seq          true
}

energy('scf')
compare_values(refrohf,get_variable("CURRENT ENERGY"),10,"ROHF energy") #TEST

energy('forte')
compare_values(refdsrg,get_variable("CURRENT ENERGY"),8, "MRDSRG relaxed energy") #TEST
--------------------------------------------------------------------------
/home/zty/Source/forte/forte.so loaded.

*** tstart() called on node18
*** at Thu Aug 17 15:17:19 2017

   => Loading Basis Set <=

    Name: ANONYMOUS292E3376
    Role: ORBITAL
    Keyword: BASIS
    atoms 1   entry BE         line     5 inputblock anonymous292e3376 
    atoms 2-3 entry H          line    25 inputblock anonymous292e3376 


         ---------------------------------------------------------
                                   SCF
            by Justin Turney, Rob Parrish, Andy Simmonett
                             and Daniel Smith
                             ROHF Reference
                        1 Threads,    500 MiB Core
         ---------------------------------------------------------

  ==> Geometry <==

    Molecular point group: c2v
    Full point group: C2v

    Geometry (in Bohr), charge = 0, multiplicity = 3:

       Center              X                  Y                   Z               Mass       
    ------------   -----------------  -----------------  -----------------  -----------------
          BE          0.000000000000     0.000000000000    -0.502640731480     9.012182201000
           H         -0.000000000000     1.275000000000     2.247359268520     1.007825032070
           H          0.000000000000    -1.275000000000     2.247359268520     1.007825032070

  Running in c2v symmetry.

  Rotational constants: A =     18.37210  B =      4.83252  C =      3.82612 [cm^-1]
  Rotational constants: A = 550781.60550  B = 144875.38330  C = 114704.08189 [MHz]
  Nuclear repulsion =    3.031382610983898

  Charge       = 0
  Multiplicity = 3
  Electrons    = 6
  Nalpha       = 4
  Nbeta        = 2

  ==> Algorithm <==

  SCF Algorithm Type is PK.
  DIIS enabled.
  MOM disabled.
  Fractional occupation disabled.
  Guess Type is GWH.
  Energy threshold   = 1.00e-08
  Density threshold  = 1.00e-10
  Integral threshold = 0.00e+00

  ==> Primary Basis <==

  Basis Set: ANONYMOUS292E3376
    Blend: ANONYMOUS292E3376
    Number of shells: 9
    Number of basis function: 13
    Number of Cartesian functions: 13
    Spherical Harmonics?: false
    Max angular momentum: 1

  ==> Pre-Iterations <==

   -------------------------------------------------------
    Irrep   Nso     Nmo     Nalpha   Nbeta   Ndocc  Nsocc
   -------------------------------------------------------
     A1         7       7       3       2       2       1
     A2         0       0       0       0       0       0
     B1         2       2       0       0       0       0
     B2         4       4       1       0       0       1
   -------------------------------------------------------
    Total      13      13       4       2       2       2
   -------------------------------------------------------

  ==> Integral Setup <==

  Using in-core PK algorithm.
   Calculation information:
      Number of atoms:                   3
      Number of AO shells:               9
      Number of primitives:             21
      Number of atomic orbitals:        13
      Number of basis functions:        13

      Integral cutoff                 1.00e-12
      Number of threads:                 1

  Performing in-core PK
  Using 8372 doubles for integral storage.
  We computed 1035 shell quartets total.
  Whereas there are 1035 unique shell quartets.
  ==> DiskJK: Disk-Based J/K Matrices <==

    J tasked:                  Yes
    K tasked:                  Yes
    wK tasked:                  No
    Memory (MB):               375
    Schwarz Cutoff:          1E-12

    OpenMP threads:              1
  Minimum eigenvalue in the overlap matrix is 1.3143755134E-01.
  Using Symmetric Orthogonalization.

  SCF Guess: Generalized Wolfsberg-Helmholtz.

  ==> Iterations <==

                        Total Energy        Delta E     RMS |[F,P]|

   @ROHF iter   1:   -15.45433104192439   -1.54543e+01   1.04833e-01 
   @ROHF iter   2:   -15.60927248244069   -1.54941e-01   4.00568e-03 DIIS
   @ROHF iter   3:   -15.61118408470080   -1.91160e-03   1.07044e-03 DIIS
   @ROHF iter   4:   -15.61147726741053   -2.93183e-04   4.72731e-04 DIIS
   @ROHF iter   5:   -15.61154512994984   -6.78625e-05   7.69087e-05 DIIS
   @ROHF iter   6:   -15.61154648529868   -1.35535e-06   1.40030e-05 DIIS
   @ROHF iter   7:   -15.61154653183158   -4.65329e-08   1.24662e-06 DIIS
   @ROHF iter   8:   -15.61154653214472   -3.13136e-10   8.86151e-08 DIIS
   @ROHF iter   9:   -15.61154653214601   -1.28608e-12   8.47164e-09 DIIS
   @ROHF iter  10:   -15.61154653214600    7.10543e-15   7.12223e-10 DIIS
   @ROHF iter  11:   -15.61154653214600   -3.55271e-15   9.38143e-11 DIIS

  ==> Post-Iterations <==

    Orbital Energies (a.u.)
    -----------------------

    Doubly Occupied:                                                      

       1A1    -4.739412     2A1    -0.555329  

    Singly Occupied:                                                      

       1B2    -0.124111     3A1    -0.109925  

    Virtual:                                                              

       1B1     0.145758     2B2     0.257460     4A1     0.272612  
       5A1     0.325586     3B2     1.130941     6A1     1.208293  
       2B1     8.963573     4B2     9.001730     7A1     9.081773  

    Final Occupation by Irrep:
             A1    A2    B1    B2 
    DOCC [     2,    0,    0,    0 ]
    SOCC [     1,    0,    0,    1 ]

  Energy converged.

  @ROHF Final Energy:   -15.61154653214600

   => Energetics <=

    Nuclear Repulsion Energy =              3.0313826109838984
    One-Electron Energy =                 -26.0505763815493836
    Two-Electron Energy =                   7.4076472384194796
    PCM Polarization Energy =               0.0000000000000000
    Total Energy =                        -15.6115465321460078

    Alert: EFP and PCM quantities not currently incorporated into SCF psivars.

Properties will be evaluated at   0.000000,   0.000000,   0.000000 Bohr

Properties computed using the SCF density matrix

  Nuclear Dipole Moment: (a.u.)
     X:     0.0000      Y:     0.0000      Z:     2.4842

  Electronic Dipole Moment: (a.u.)
     X:     0.0000      Y:     0.0000      Z:    -2.5844

  Dipole Moment: (a.u.)
     X:     0.0000      Y:     0.0000      Z:    -0.1002     Total:     0.1002

  Dipole Moment: (Debye)
     X:     0.0000      Y:     0.0000      Z:    -0.2548     Total:     0.2548


*** tstop() called on node18 at Thu Aug 17 15:17:19 2017
Module time:
	user time   =       0.16 seconds =       0.00 minutes
	system time =       0.03 seconds =       0.00 minutes
	total time  =          0 seconds =       0.00 minutes
Total time:
	user time   =       0.16 seconds =       0.00 minutes
	system time =       0.03 seconds =       0.00 minutes
	total time  =          0 seconds =       0.00 minutes
	ROHF energy.......................................................PASSED

*** tstart() called on node18
*** at Thu Aug 17 15:17:19 2017

   => Loading Basis Set <=

    Name: ANONYMOUS292E3376
    Role: ORBITAL
    Keyword: BASIS
    atoms 1   entry BE         line     5 inputblock anonymous292e3376 
    atoms 2-3 entry H          line    25 inputblock anonymous292e3376 


         ---------------------------------------------------------
                                   SCF
            by Justin Turney, Rob Parrish, Andy Simmonett
                             and Daniel Smith
                             ROHF Reference
                        1 Threads,    500 MiB Core
         ---------------------------------------------------------

  ==> Geometry <==

    Molecular point group: c2v
    Full point group: C2v

    Geometry (in Bohr), charge = 0, multiplicity = 3:

       Center              X                  Y                   Z               Mass       
    ------------   -----------------  -----------------  -----------------  -----------------
          BE          0.000000000000     0.000000000000    -0.502640731480     9.012182201000
           H         -0.000000000000     1.275000000000     2.247359268520     1.007825032070
           H          0.000000000000    -1.275000000000     2.247359268520     1.007825032070

  Running in c2v symmetry.

  Rotational constants: A =     18.37210  B =      4.83252  C =      3.82612 [cm^-1]
  Rotational constants: A = 550781.60550  B = 144875.38330  C = 114704.08189 [MHz]
  Nuclear repulsion =    3.031382610983898

  Charge       = 0
  Multiplicity = 3
  Electrons    = 6
  Nalpha       = 4
  Nbeta        = 2

  ==> Algorithm <==

  SCF Algorithm Type is PK.
  DIIS enabled.
  MOM disabled.
  Fractional occupation disabled.
  Guess Type is GWH.
  Energy threshold   = 1.00e-08
  Density threshold  = 1.00e-10
  Integral threshold = 0.00e+00

  ==> Primary Basis <==

  Basis Set: ANONYMOUS292E3376
    Blend: ANONYMOUS292E3376
    Number of shells: 9
    Number of basis function: 13
    Number of Cartesian functions: 13
    Spherical Harmonics?: false
    Max angular momentum: 1

  ==> Pre-Iterations <==

   -------------------------------------------------------
    Irrep   Nso     Nmo     Nalpha   Nbeta   Ndocc  Nsocc
   -------------------------------------------------------
     A1         7       7       3       2       2       1
     A2         0       0       0       0       0       0
     B1         2       2       0       0       0       0
     B2         4       4       1       0       0       1
   -------------------------------------------------------
    Total      13      13       4       2       2       2
   -------------------------------------------------------

  ==> Integral Setup <==

  Using in-core PK algorithm.
   Calculation information:
      Number of atoms:                   3
      Number of AO shells:               9
      Number of primitives:             21
      Number of atomic orbitals:        13
      Number of basis functions:        13

      Integral cutoff                 1.00e-12
      Number of threads:                 1

  Performing in-core PK
  Using 8372 doubles for integral storage.
  We computed 1035 shell quartets total.
  Whereas there are 1035 unique shell quartets.
  ==> DiskJK: Disk-Based J/K Matrices <==

    J tasked:                  Yes
    K tasked:                  Yes
    wK tasked:                  No
    Memory (MB):               375
    Schwarz Cutoff:          1E-12

    OpenMP threads:              1
  Minimum eigenvalue in the overlap matrix is 1.3143755134E-01.
  Using Symmetric Orthogonalization.

  SCF Guess: Generalized Wolfsberg-Helmholtz.

  ==> Iterations <==

                        Total Energy        Delta E     RMS |[F,P]|

   @ROHF iter   1:   -15.45433104192439   -1.54543e+01   1.04833e-01 
   @ROHF iter   2:   -15.60927248244069   -1.54941e-01   4.00568e-03 DIIS
   @ROHF iter   3:   -15.61118408470080   -1.91160e-03   1.07044e-03 DIIS
   @ROHF iter   4:   -15.61147726741053   -2.93183e-04   4.72731e-04 DIIS
   @ROHF iter   5:   -15.61154512994984   -6.78625e-05   7.69087e-05 DIIS
   @ROHF iter   6:   -15.61154648529868   -1.35535e-06   1.40030e-05 DIIS
   @ROHF iter   7:   -15.61154653183158   -4.65329e-08   1.24662e-06 DIIS
   @ROHF iter   8:   -15.61154653214472   -3.13136e-10   8.86151e-08 DIIS
   @ROHF iter   9:   -15.61154653214601   -1.28608e-12   8.47164e-09 DIIS
   @ROHF iter  10:   -15.61154653214600    7.10543e-15   7.12223e-10 DIIS
   @ROHF iter  11:   -15.61154653214600   -3.55271e-15   9.38143e-11 DIIS

  ==> Post-Iterations <==

    Orbital Energies (a.u.)
    -----------------------

    Doubly Occupied:                                                      

       1A1    -4.739412     2A1    -0.555329  

    Singly Occupied:                                                      

       1B2    -0.124111     3A1    -0.109925  

    Virtual:                                                              

       1B1     0.145758     2B2     0.257460     4A1     0.272612  
       5A1     0.325586     3B2     1.130941     6A1     1.208293  
       2B1     8.963573     4B2     9.001730     7A1     9.081773  

    Final Occupation by Irrep:
             A1    A2    B1    B2 
    DOCC [     2,    0,    0,    0 ]
    SOCC [     1,    0,    0,    1 ]

  Energy converged.

  @ROHF Final Energy:   -15.61154653214600

   => Energetics <=

    Nuclear Repulsion Energy =              3.0313826109838984
    One-Electron Energy =                 -26.0505763815493836
    Two-Electron Energy =                   7.4076472384194796
    Total Energy =                        -15.6115465321460078



Properties will be evaluated at   0.000000,   0.000000,   0.000000 Bohr

Properties computed using the SCF density matrix

  Nuclear Dipole Moment: (a.u.)
     X:     0.0000      Y:     0.0000      Z:     2.4842

  Electronic Dipole Moment: (a.u.)
     X:     0.0000      Y:     0.0000      Z:    -2.5844

  Dipole Moment: (a.u.)
     X:     0.0000      Y:     0.0000      Z:    -0.1002     Total:     0.1002

  Dipole Moment: (Debye)
     X:     0.0000      Y:     0.0000      Z:    -0.2548     Total:     0.2548


*** tstop() called on node18 at Thu Aug 17 15:17:20 2017
Module time:
	user time   =       0.13 seconds =       0.00 minutes
	system time =       0.01 seconds =       0.00 minutes
	total time  =          1 seconds =       0.02 minutes
Total time:
	user time   =       0.31 seconds =       0.01 minutes
	system time =       0.04 seconds =       0.00 minutes
	total time  =          1 seconds =       0.02 minutes
   => Loading Basis Set <=

    Name: STO-3G
    Role: ORBITAL
    Keyword: MINAO_BASIS
    atoms 1   entry BE         line    41 file /opt/software/psi4/psi4-github-bin-g++-4.9.0-opt-c++11/share/psi4/basis/sto-3g.gbs 
    atoms 2-3 entry H          line    19 file /opt/software/psi4/psi4-github-bin-g++-4.9.0-opt-c++11/share/psi4/basis/sto-3g.gbs 


Reading options from the FORTE block
Calling plugin forte.so.



  Forte
  ----------------------------------------------------------------------------
  A suite of quantum chemistry methods for strongly correlated electrons

    git branch: DSRG_DF - git commit: ed4a1dd

  Developed by:
    Francesco A. Evangelista, Chenyang Li, Kevin P. Hannon,
    Jeffrey B. Schriber, Tianyuan Zhang, Chenxi Cai
  ----------------------------------------------------------------------------


  ==> MO Space Information <==

  Read options for space FROZEN_DOCC
  Read options for space RESTRICTED_DOCC
  Read options for space ACTIVE
 Removing orbital 0
  -------------------------------------------------
                       A1    A2    B1    B2   Sum
  -------------------------------------------------
    FROZEN_DOCC         1     0     0     0     1
    RESTRICTED_DOCC     1     0     0     0     1
    ACTIVE              1     0     0     1     2
    RESTRICTED_UOCC     4     0     2     3     9
    FROZEN_UOCC         0     0     0     0     0
    Total               7     0     2     4    13
  -------------------------------------------------

  ==> Integral Transformation <==

  Number of molecular orbitals:               13
  Number of correlated molecular orbitals:    12
  Number of frozen occupied orbitals:          1
  Number of frozen unoccupied orbitals:        0

    Molecular point group: c2v
    Full point group: C2v

    Geometry (in Bohr), charge = 0, multiplicity = 3:

       Center              X                  Y                   Z               Mass       
    ------------   -----------------  -----------------  -----------------  -----------------
          BE          0.000000000000     0.000000000000    -0.502640731480     9.012182201000
           H         -0.000000000000     1.275000000000     2.247359268520     1.007825032070
           H          0.000000000000    -1.275000000000     2.247359268520     1.007825032070

  -AO BASIS SET INFORMATION:
    Name                   = ANONYMOUS292E3376
    Blend                  = ANONYMOUS292E3376
    Total number of shells = 9
    Number of primitives   = 21
    Number of AO           = 13
    Number of SO           = 13
    Maximum AM             = 1
    Spherical Harmonics    = FALSE

  -Contraction Scheme:
    Atom   Type   All Primitives // Shells:
   ------ ------ --------------------------
       1    BE     10s 3p // 3s 2p 
       2     H     4s // 2s 
       3     H     4s // 2s 

  ==> AO Basis Functions <==

    [ ANONYMOUS292E3376 ]
    cartesian
    ****
   BE   1
    S   6 1.00
                      1267.07000000           0.00194000
                       190.35600000           0.01478600
                        43.29590000           0.07179500
                        12.14420000           0.23634800
                         3.80923000           0.47176300
                         1.26847000           0.35518300
    S   3 1.00
                         5.69388000          -0.02887600
                         1.55563000          -0.17756500
                         0.17185500           1.07163000
    S   1 1.00
                         0.05718100           1.00000000
    P   1 1.00
                         5.69388000           1.00000000
    P   2 1.00
                         1.55563000           0.14404500
                         0.17185500           0.94969200
    ****
    H   2
    S   3 1.00
                        19.24060000           0.03282800
                         2.89920000           0.23120800
                         0.65340000           0.81723800
    S   1 1.00
                         0.17760000           1.00000000
    ****


  Cholesky integrals time
 Computing the Cholesky Vectors 

    Computing CD Integrals               ......Done. Timing        0.028027 s
 Need 0.000069 GB to store cd integrals in core

 Number of cholesky vectors 55 to satisfy       0.000100000000 tolerance
  Using in-core PK algorithm.
   Calculation information:
      Number of atoms:                   3
      Number of AO shells:               9
      Number of primitives:             21
      Number of atomic orbitals:        13
      Number of basis functions:        13

      Integral cutoff                 1.00e-12
      Number of threads:                 1

  Performing in-core PK
  Using 8372 doubles for integral storage.
  We computed 1035 shell quartets total.
  Whereas there are 1035 unique shell quartets.

  Frozen-core energy            -14.929378863416 a.u.

  FrozenOneBody Operator takes  0.05397300 s
  Resorting integrals after freezing core.
  CholeskyIntegrals take 0.09654000

                -----------------------------------------------
                  String-based Full Configuration Interaction
                          by Francesco A. Evangelista
                -----------------------------------------------

  Number of electrons: 6
  Charge: 0
  Multiplicity: 1
  Davidson subspace max dim: 8
  Davidson subspace min dim: 2
  M_s: 0
  A

  ==> String Lists <==

  Number of alpha electrons     = 1
  Number of beta electrons      = 1
  Number of alpha strings       = 2
  Number of beta strings        = 2
  Timing for strings        =      0.000 s
  Timing for NN strings     =      0.000 s
  Timing for VO strings     =      0.000 s
  Timing for OO strings     =      0.000 s
  Timing for VVOO strings   =      0.000 s
  Timing for VOVO strings   =      0.000 s
  Timing for 1-hole strings =      0.000 s
  Timing for 2-hole strings =      0.000 s
  Timing for 3-hole strings =      0.000 s
  Total timing              =      0.000 s

  ==> FCI Solver <==

    Number of determinants                           2
    Symmetry                                         0
    Multiplicity                                     1
    Number of roots                                  1
    Target root                                      0
    Trial vectors per root                          10

  B
  Allocating memory for the Hamiltonian algorithm. Size: 2 x 1 x 1.   Memory: 0.000000 GB

  ==> FCI Initial Guess <==

  ---------------------------------------------
    Root            Energy     <S^2>   Spin
  ---------------------------------------------
      0      -15.483411479480  0.000  singlet
      1      -15.440217680785  0.000  singlet
  ---------------------------------------------
  Timing for initial guess  =      0.003 s

  ==> Diagonalizing Hamiltonian <==

  ----------------------------------------
    Iter.      Avg. Energy       Delta_E
  ----------------------------------------
      1      -15.483411479480  -1.548e+01
      2      -15.483411479480  -3.553e-15
  ----------------------------------------
  The Davidson-Liu algorithm converged in 3 iterations.

  ==> Root No. 0 <==

    0 2     -0.91017273
    2 0      0.41422892

    Total Energy:       -15.483411479480180

  ==> Computing RDMs for Root No. 0 <==

    Timing for 1-RDM: 0.000 s
    Timing for 2-RDM: 0.000 s
    Timing for 3-RDM: 0.000 s

  ==> NATURAL ORBITALS <==

        1B2     1.656829      1A1     0.343171  


       -----------------------------------------------------------------
                            Semi-Canonical Orbitals
         Chenyang Li, Jeffrey B. Schriber and Francesco A. Evangelista
       -----------------------------------------------------------------

  Took 0.001207 s to build Fock matrix

  ==> Checking Fock Matrix Diagonal Blocks <==

    Off-Diag. Elements       Max           2-Norm
    ------------------------------------------------
    Fa actv              0.0000000000   0.0000000000
    Fb actv              0.0000000000   0.0000000000
    ------------------------------------------------
    Fa core              0.0000000000   0.0000000000
    Fb core              0.0000000000   0.0000000000
    ------------------------------------------------
    Fa virt              0.0179823487   0.0459297459
    Fb virt              0.0179823487   0.0459297459
    ------------------------------------------------

  ==> Integral Transformation to Semicanonical Basis <==
    Molecular point group: c2v
    Full point group: C2v

    Geometry (in Bohr), charge = 0, multiplicity = 3:

       Center              X                  Y                   Z               Mass       
    ------------   -----------------  -----------------  -----------------  -----------------
          BE          0.000000000000     0.000000000000    -0.502640731480     9.012182201000
           H         -0.000000000000     1.275000000000     2.247359268520     1.007825032070
           H          0.000000000000    -1.275000000000     2.247359268520     1.007825032070

  -AO BASIS SET INFORMATION:
    Name                   = ANONYMOUS292E3376
    Blend                  = ANONYMOUS292E3376
    Total number of shells = 9
    Number of primitives   = 21
    Number of AO           = 13
    Number of SO           = 13
    Maximum AM             = 1
    Spherical Harmonics    = FALSE

  -Contraction Scheme:
    Atom   Type   All Primitives // Shells:
   ------ ------ --------------------------
       1    BE     10s 3p // 3s 2p 
       2     H     4s // 2s 
       3     H     4s // 2s 

  ==> AO Basis Functions <==

    [ ANONYMOUS292E3376 ]
    cartesian
    ****
   BE   1
    S   6 1.00
                      1267.07000000           0.00194000
                       190.35600000           0.01478600
                        43.29590000           0.07179500
                        12.14420000           0.23634800
                         3.80923000           0.47176300
                         1.26847000           0.35518300
    S   3 1.00
                         5.69388000          -0.02887600
                         1.55563000          -0.17756500
                         0.17185500           1.07163000
    S   1 1.00
                         0.05718100           1.00000000
    P   1 1.00
                         5.69388000           1.00000000
    P   2 1.00
                         1.55563000           0.14404500
                         0.17185500           0.94969200
    ****
    H   2
    S   3 1.00
                        19.24060000           0.03282800
                         2.89920000           0.23120800
                         0.65340000           0.81723800
    S   1 1.00
                         0.17760000           1.00000000
    ****


 Integrals are about to be computed.
 Computing the Cholesky Vectors 

    Computing CD Integrals               ......Done. Timing        0.028482 s
 Need 0.000069 GB to store cd integrals in core

 Number of cholesky vectors 55 to satisfy       0.000100000000 tolerance

 Integrals are about to be updated.  Using in-core PK algorithm.
   Calculation information:
      Number of atoms:                   3
      Number of AO shells:               9
      Number of primitives:             21
      Number of atomic orbitals:        13
      Number of basis functions:        13

      Integral cutoff                 1.00e-12
      Number of threads:                 1

  Performing in-core PK
  Using 8372 doubles for integral storage.
  We computed 1035 shell quartets total.
  Whereas there are 1035 unique shell quartets.

  Frozen-core energy            -14.929378863416 a.u.

  FrozenOneBody Operator takes  0.05799300 s
  Resorting integrals after freezing core.
  Frozen Orbitals takes     0.059 s.

  ==> Reference Transformation to Semicanonical Basis <==

    Transformed 1 cumulants.
    Transformed 2 cumulants and RDMs.
    Transformed 3 cumulants.
  SemiCanonicalize takes 0.386090 s.

           ----------------------------------------------------------
             Multireference Driven Similarity Renormalization Group
                                  Chenyang Li
           ----------------------------------------------------------


  ==> Calculation Information <==

    ntamp                                            15
    diis_min_vecs                                     2
    diis_max_vecs                                     5
    flow parameter                            1.000e+00
    taylor expansion threshold                1.000e-03
    intruder_tamp                             1.000e-01
    corr_level                                   LDSRG2
    int_type                                   CHOLESKY
    source operator                            STANDARD
    smart_dsrg_s                                 DSRG_S
    reference relaxation                           NONE
    dsrg transformation type                    UNITARY
    core virtual source type                     NORMAL

  Warning: I am forcing density Db = Da to avoid spin symmetry breaking.
  If this is not desired, go to mrdsrg.cc build_density() around line 190.

  ==> Density Cumulant Summary <==

    2-body               AA           AB           BB
    -------------------------------------------------
    max            0.142144     0.142144     0.142144
    norm           0.284288     0.604241     0.284288
    -------------------------------------------------
    3-body              AAA          AAB          ABB          BBB
    --------------------------------------------------------------
    max            0.000000     0.093364     0.093364     0.000000
    norm           0.000000     0.264074     0.264074     0.000000
    --------------------------------------------------------------

  ==> Checking Orbitals <==

    Checking if orbitals are semi-canonicalized ...
    Warning! Orbitals are not semi-canonicalized!
    Off-Diagonal norms of the core, active, virtual blocks of Fock matrix
                  core          active         virtual
    --------------------------------------------------
    Fa    0.0000000000    0.0000038212    0.0000647915
    Fb    0.0000000000    0.0000038212    0.0000647915
    --------------------------------------------------

    MR-DSRG will be computed in an arbitrary basis. Orbital invariant formalism is employed.
    We recommend using semi-canonical for all denominator-based source operator.

  ==> Build Initial Amplitude from DSRG-MRPT2 <==

    Computing T2 amplitudes ...          Done. Timing      0.077 s
    Computing T1 amplitudes ...          Done. Timing      0.006 s

  ==> First-Order Excitation Amplitudes Summary <==

    Active Indices:    1    8 
    Largest T1 amplitudes for spin case A:
       i       a                  i       a                  i       a               
    --------------------------------------------------------------------------------
    [  8      10    ]-0.030716 [  8       9    ]-0.020913 [  0       3    ]-0.015844 
    [  1       4    ]-0.015314 [  0       4    ] 0.012583 [  0       1    ] 0.011845 
    [  1       2    ]-0.010014 [  1       3    ] 0.006370 [  0       2    ]-0.002533 
    [  1       5    ]-0.000644 [  8      11    ] 0.000513 [  0       5    ]-0.000442 
    [  8       3    ]-0.000009 [  1      10    ] 0.000004 [  8       4    ]-0.000002 
    --------------------------------------------------------------------------------
    Norm of T1A vector: (nonzero elements: 23)                    0.048095519200794.
    --------------------------------------------------------------------------------
    Largest T1 amplitudes for spin case B:
       _       _                  _       _                  _       _               
       i       a                  i       a                  i       a               
    --------------------------------------------------------------------------------
    [  8      10    ]-0.030716 [  8       9    ]-0.020913 [  0       3    ]-0.015844 
    [  1       4    ]-0.015314 [  0       4    ] 0.012583 [  0       1    ] 0.011845 
    [  1       2    ]-0.010014 [  1       3    ] 0.006370 [  0       2    ]-0.002533 
    [  1       5    ]-0.000644 [  8      11    ] 0.000513 [  0       5    ]-0.000442 
    [  8       3    ]-0.000009 [  1      10    ] 0.000004 [  8       4    ]-0.000002 
    --------------------------------------------------------------------------------
    Norm of T1B vector: (nonzero elements: 23)                    0.048095519200794.
    --------------------------------------------------------------------------------
    Largest T2 amplitudes for spin case AA:
       i   j   a   b              i   j   a   b              i   j   a   b           
    --------------------------------------------------------------------------------
    [  0   1   1   3]-0.031123 [  1   8   1   9] 0.015439 [  0   8   3   9]-0.014312 
    [  1   8   3   9] 0.012538 [  0   1   8   9] 0.012234 [  0   8   2   8]-0.012230 
    [  1   8   4   8]-0.012204 [  1   8   2   9] 0.011231 [  0   8   3   8] 0.009942 
    [  0   1   2   3]-0.009786 [  0   8   1   9] 0.008910 [  0   8   4   8] 0.008832 
    [  1   8   2   8]-0.008288 [  1   8   3   8] 0.008093 [  0   8   1   8] 0.007581 
    --------------------------------------------------------------------------------
    Norm of T2AA vector: (nonzero elements: 432)                  0.106891066394467.
    --------------------------------------------------------------------------------
    Largest T2 amplitudes for spin case AB:
           _       _                  _       _                  _       _           
       i   j   a   b              i   j   a   b              i   j   a   b           
    --------------------------------------------------------------------------------
    [  0   0   8   8]-0.060731 [  8   8   8  10]-0.042448 [  8   8   9   9]-0.041150 
    [  0   8   4   8] 0.033136 [  0   0   3   3]-0.032661 [  1   1   9   9]-0.029472 
    [  0   8   3   9]-0.029301 [  0   0   8  10]-0.026106 [  8   8  10  10]-0.025647 
    [  1   1   1   2]-0.025101 [  0   0   8   9]-0.023634 [  1   8   1   9] 0.023380 
    [  1   1   2   2]-0.022528 [  1   1   6   6]-0.021019 [  0   1   8   9] 0.020931 
    --------------------------------------------------------------------------------
    Norm of T2AB vector: (nonzero elements: 733)                  0.199958026888591.
    --------------------------------------------------------------------------------
    Largest T2 amplitudes for spin case BB:
       _   _   _   _              _   _   _   _              _   _   _   _           
       i   j   a   b              i   j   a   b              i   j   a   b           
    --------------------------------------------------------------------------------
    [  0   1   1   3]-0.031123 [  1   8   1   9] 0.015439 [  0   8   3   9]-0.014312 
    [  1   8   3   9] 0.012538 [  0   1   8   9] 0.012234 [  0   8   2   8]-0.012230 
    [  1   8   4   8]-0.012204 [  1   8   2   9] 0.011231 [  0   8   3   8] 0.009942 
    [  0   1   2   3]-0.009786 [  0   8   1   9] 0.008910 [  0   8   4   8] 0.008832 
    [  1   8   2   8]-0.008288 [  1   8   3   8] 0.008093 [  0   8   1   8] 0.007581 
    --------------------------------------------------------------------------------
    Norm of T2BB vector: (nonzero elements: 432)                  0.106891066394467.
    --------------------------------------------------------------------------------

  ==> Possible Intruders <==

    T1 amplitudes larger than 0.1000 for spin case A: NULL
    T1 amplitudes larger than 0.1000 for spin case B: NULL
    T2 amplitudes larger than 0.1000 for spin case AA: NULL
    T2 amplitudes larger than 0.1000 for spin case AB: NULL
    T2 amplitudes larger than 0.1000 for spin case BB: NULL

  ==> Computing MR-LDSRG(2) Energy <==

    Reference:
      J. Chem. Phys. 2016, 144, 164114.

                  Energy (a.u.)           Non-Diagonal Norm        Amplitude RMS         Timings (s)   
           ---------------------------  ---------------------  ---------------------  -----------------
    Iter.        Corr.         Delta       Hbar1      Hbar2        T1         T2        Hbar     Amp.  
    ---------------------------------------------------------------------------------------------------
        0   -0.058078923253 -5.808e-02   1.271e-01  3.999e-01   8.763e-03  3.692e-02     3.992    0.110
        1   -0.061280609275 -3.202e-03   1.285e-01  3.878e-01   2.972e-03  9.745e-03     3.827    0.110
        2   -0.062052634357 -7.720e-04   1.288e-01  3.857e-01   1.071e-03  3.196e-03     4.259    0.111
        3   -0.062253650055 -2.010e-04   1.289e-01  3.854e-01   3.637e-04  1.177e-03     4.251    0.111
        4   -0.062315577927 -6.193e-05   1.290e-01  3.853e-01   1.284e-04  4.501e-04     4.231    0.111
        5   -0.062336509014 -2.093e-05   1.290e-01  3.853e-01   4.715e-05  1.767e-04     4.228    0.110 -> DIIS
        6   -0.062343777709 -7.269e-06   1.290e-01  3.853e-01   1.788e-05  7.054e-05     4.242    0.114 -> DIIS
        7   -0.062347894215 -4.117e-06   1.290e-01  3.853e-01   8.618e-08  8.157e-07     4.226    0.110 -> DIIS
        8   -0.062347868882  2.533e-08   1.290e-01  3.853e-01   2.729e-08  1.708e-07     4.213    0.110 -> DIIS
        9   -0.062347864926  3.955e-09   1.290e-01  3.853e-01   9.969e-09  2.566e-08     4.213    0.110
    ---------------------------------------------------------------------------------------------------

  ==> MR-LDSRG(2) Energy Summary <==

    E0 (reference)                 =     -15.483411479480180
    MR-LDSRG(2) correlation energy =      -0.062347864926240
    MR-LDSRG(2) total energy       =     -15.545759344406420

  ==> Final Excitation Amplitudes Summary <==

    Active Indices:    1    8 
    Largest T1 amplitudes for spin case A:
       i       a                  i       a                  i       a               
    --------------------------------------------------------------------------------
    [  8      10    ]-0.025500 [  8       9    ]-0.020602 [  0       3    ]-0.014982 
    [  1       4    ]-0.012988 [  0       1    ] 0.012274 [  1       2    ]-0.010535 
    [  0       4    ] 0.005694 [  1       3    ] 0.005389 [  0       2    ]-0.001283 
    [  8      11    ] 0.000645 [  0       5    ]-0.000614 [  1       5    ]-0.000536 
    [  8       3    ]-0.000012 [  8       4    ]-0.000005 [  1      10    ] 0.000005 
    --------------------------------------------------------------------------------
    Norm of T1A vector: (nonzero elements: 23)                    0.042352227112022.
    --------------------------------------------------------------------------------
    Largest T1 amplitudes for spin case B:
       _       _                  _       _                  _       _               
       i       a                  i       a                  i       a               
    --------------------------------------------------------------------------------
    [  8      10    ]-0.025500 [  8       9    ]-0.020602 [  0       3    ]-0.014982 
    [  1       4    ]-0.012988 [  0       1    ] 0.012274 [  1       2    ]-0.010535 
    [  0       4    ] 0.005694 [  1       3    ] 0.005389 [  0       2    ]-0.001283 
    [  8      11    ] 0.000645 [  0       5    ]-0.000614 [  1       5    ]-0.000536 
    [  8       3    ]-0.000012 [  8       4    ]-0.000005 [  1      10    ] 0.000005 
    --------------------------------------------------------------------------------
    Norm of T1B vector: (nonzero elements: 23)                    0.042352227112022.
    --------------------------------------------------------------------------------
    Largest T2 amplitudes for spin case AA:
       i   j   a   b              i   j   a   b              i   j   a   b           
    --------------------------------------------------------------------------------
    [  0   1   1   3]-0.030401 [  0   8   3   9]-0.015817 [  0   1   8   9] 0.013601 
    [  1   8   3   9] 0.013209 [  0   8   3   8] 0.013152 [  1   8   1   9] 0.012822 
    [  0   8   2   8]-0.012799 [  1   8   4   8]-0.012699 [  1   8   1  10]-0.010764 
    [  1   8   2   9] 0.010416 [  0   8   4   8] 0.010182 [  0   1   2   3]-0.008986 
    [  0   8   1   9] 0.008954 [  1   8   2   8]-0.008503 [  1   8   3   8] 0.007381 
    --------------------------------------------------------------------------------
    Norm of T2AA vector: (nonzero elements: 440)                  0.110036818973490.
    --------------------------------------------------------------------------------
    Largest T2 amplitudes for spin case AB:
           _       _                  _       _                  _       _           
       i   j   a   b              i   j   a   b              i   j   a   b           
    --------------------------------------------------------------------------------
    [  0   0   8   8]-0.058291 [  8   8   9   9]-0.050360 [  0   0   3   3]-0.047195 
    [  8   8   8  10]-0.042841 [  0   8   3   9]-0.039856 [  0   8   4   8] 0.038310 
    [  0   0   8  10]-0.034291 [  1   1   9   9]-0.029262 [  0   0   8   9]-0.029127 
    [  8   8  10  10]-0.026306 [  0   0   9   9]-0.025011 [  0   1   8   9] 0.024068 
    [  0   0  10  10]-0.024036 [  1   1   1   2]-0.023565 [  1   8   4   8]-0.023020 
    --------------------------------------------------------------------------------
    Norm of T2AB vector: (nonzero elements: 749)                  0.230457057559526.
    --------------------------------------------------------------------------------
    Largest T2 amplitudes for spin case BB:
       _   _   _   _              _   _   _   _              _   _   _   _           
       i   j   a   b              i   j   a   b              i   j   a   b           
    --------------------------------------------------------------------------------
    [  0   1   1   3]-0.030401 [  0   8   3   9]-0.015817 [  0   1   8   9] 0.013601 
    [  1   8   3   9] 0.013209 [  0   8   3   8] 0.013152 [  1   8   1   9] 0.012822 
    [  0   8   2   8]-0.012799 [  1   8   4   8]-0.012699 [  1   8   1  10]-0.010764 
    [  1   8   2   9] 0.010416 [  0   8   4   8] 0.010182 [  0   1   2   3]-0.008986 
    [  0   8   1   9] 0.008954 [  1   8   2   8]-0.008503 [  1   8   3   8] 0.007381 
    --------------------------------------------------------------------------------
    Norm of T2BB vector: (nonzero elements: 440)                  0.110036818973490.
    --------------------------------------------------------------------------------

  ==> Possible Intruders <==

    T1 amplitudes larger than 0.1000 for spin case A: NULL
    T1 amplitudes larger than 0.1000 for spin case B: NULL
    T2 amplitudes larger than 0.1000 for spin case AA: NULL
    T2 amplitudes larger than 0.1000 for spin case AB: NULL
    T2 amplitudes larger than 0.1000 for spin case BB: NULL

  ==> Total Timings (s) for Computing Commutators <==

             [H1, T1]    [H1, T2]    [H2, T1]    [H2, T2]
    -----------------------------------------------------
    -> C0       0.000       0.071       0.000       2.309
    -> C1       0.000       0.549       0.000      10.277
    -> C2                   2.023       0.000      25.050
    -----------------------------------------------------
	MRDSRG relaxed energy.............................................PASSED

*** Psi4 exiting successfully. Buy a developer a beer!
