
    -----------------------------------------------------------------------
          Psi4: An Open-Source Ab Initio Electronic Structure Package
                               Psi4 undefined 

                         Git: Rev {master} 3c26e8e 


    R. M. Parrish, L. A. Burns, D. G. A. Smith, A. C. Simmonett,
    A. E. DePrince III, E. G. Hohenstein, U. Bozkaya, A. Yu. Sokolov,
    R. Di Remigio, R. M. Richard, J. F. Gonthier, A. M. James,
    H. R. McAlexander, A. Kumar, M. Saitow, X. Wang, B. P. Pritchard,
    P. Verma, H. F. Schaefer III, K. Patkowski, R. A. King, E. F. Valeev,
    F. A. Evangelista, J. M. Turney, T. D. Crawford, and C. D. Sherrill,
    J. Chem. Theory Comput. 13(7) pp 3185--3197 (2017).
    (doi: 10.1021/acs.jctc.7b00174)


                         Additional Contributions by
    P. Kraus, H. Kruse, M. H. Lechner, M. C. Schieber, and R. A. Shaw

    -----------------------------------------------------------------------


    Psi4 started on: Thursday, 25 October 2018 04:29PM

    Process ID: 93955
    Host:       jeffschriber
    PSIDATADIR: /Users/jeffschriber/src/psi4-debug-install/share/psi4
    Memory:     500.0 MiB
    Threads:    1
    
  ==> Input File <==

--------------------------------------------------------------------------
#! Generated using commit GITCOMMIT

import forte
memory 500 mb

refdsrgpt2   =  -100.067222640227044

molecule HF{
  0 1
  F
  H  1 R
  R = 1.00
}

set globals{
   basis                   cc-pvdz
   reference               rhf
   scf_type                pk
   d_convergence           12
   e_convergence           15
   docc                    [3,0,1,1]
}

set forte{
  job_type                active-dsrgpt2
  frozen_docc             [1,0,0,0]
  restricted_docc         [0,0,0,0]
  active                  [4,0,2,2]
  frozen_uocc             [5,1,2,2]
  nrootpi                 [1,0,0,0]
  dsrg_s                  1.0
  cas_type                cas
  fcimo_actv_type         cisd
  fcimo_cisd_nohf         true
  internal_amp            singles_doubles
  internal_amp_select     all
  ntamp                   60
}

Escf, wfn = energy('scf', return_wfn=True)
Edsrg = energy('forte', ref_wfn=wfn)
compare_values(refdsrgpt2,get_variable("CURRENT ENERGY"),10,"DSRG-MRPT2 energy")

# now test CD-DSRG-MRPT2
set forte{
  int_type                cholesky
  cholesky_tolerance      8
}
energy('forte', ref_wfn=wfn)
compare_values(refdsrgpt2,get_variable("CURRENT ENERGY"),7,"CD-DSRG-MRPT2 energy")

# now do single reference DSRG-PT2
set forte{
  job_type                dsrg-mrpt2
  int_type                conventional
  frozen_docc             [1,0,0,0]
  restricted_docc         [2,0,1,1]
  active                  [0,0,0,0]
  frozen_uocc             [5,1,2,2]
  internal_amp            none
}
Edsrg_sr = energy('forte', ref_wfn=wfn)
compare_values(Edsrg_sr,Edsrg,10,"DSRG-MRPT2 internal vs SR-DSRG-PT2")
--------------------------------------------------------------------------

  Memory set to 476.837 MiB by Python driver.

*** tstart() called on jeffschriber
*** at Thu Oct 25 16:29:52 2018

   => Loading Basis Set <=

    Name: CC-PVDZ
    Role: ORBITAL
    Keyword: BASIS
    atoms 1 entry F          line   228 file /Users/jeffschriber/src/psi4-debug-install/share/psi4/basis/cc-pvdz.gbs 
    atoms 2 entry H          line    22 file /Users/jeffschriber/src/psi4-debug-install/share/psi4/basis/cc-pvdz.gbs 


         ---------------------------------------------------------
                                   SCF
            by Justin Turney, Rob Parrish, Andy Simmonett
                             and Daniel Smith
                              RHF Reference
                        1 Threads,    476 MiB Core
         ---------------------------------------------------------

  ==> Geometry <==

    Molecular point group: c2v
    Full point group: C_inf_v

    Geometry (in Angstrom), charge = 0, multiplicity = 1:

       Center              X                  Y                   Z               Mass       
    ------------   -----------------  -----------------  -----------------  -----------------
         F            0.000000000000     0.000000000000    -0.050375564008    18.998403224000
         H            0.000000000000     0.000000000000     0.949624435992     1.007825032070

  Running in c2v symmetry.

  Rotational constants: A = ************  B =     17.61406  C =     17.61406 [cm^-1]
  Rotational constants: A = ************  B = 528056.23734  C = 528056.23734 [MHz]
  Nuclear repulsion =    4.762594896030000

  Charge       = 0
  Multiplicity = 1
  Electrons    = 10
  Nalpha       = 5
  Nbeta        = 5

  ==> Algorithm <==

  SCF Algorithm Type is PK.
  DIIS enabled.
  MOM disabled.
  Fractional occupation disabled.
  Guess Type is SAD.
  Energy threshold   = 1.00e-15
  Density threshold  = 1.00e-12
  Integral threshold = 0.00e+00

  ==> Primary Basis <==

  Basis Set: CC-PVDZ
    Blend: CC-PVDZ
    Number of shells: 9
    Number of basis function: 19
    Number of Cartesian functions: 20
    Spherical Harmonics?: true
    Max angular momentum: 2

  ==> Pre-Iterations <==

   -------------------------------------------------------
    Irrep   Nso     Nmo     Nalpha   Nbeta   Ndocc  Nsocc
   -------------------------------------------------------
     A1        10      10       3       3       3       0
     A2         1       1       0       0       0       0
     B1         4       4       1       1       1       0
     B2         4       4       1       1       1       0
   -------------------------------------------------------
    Total      19      19       5       5       5       0
   -------------------------------------------------------

  ==> Integral Setup <==

  Using in-core PK algorithm.
   Calculation information:
      Number of atoms:                   2
      Number of AO shells:               9
      Number of primitives:             27
      Number of atomic orbitals:        20
      Number of basis functions:        19

      Integral cutoff                 1.00e-12
      Number of threads:                 1

  Performing in-core PK
  Using 36290 doubles for integral storage.
  We computed 1035 shell quartets total.
  Whereas there are 1035 unique shell quartets.

  ==> DiskJK: Disk-Based J/K Matrices <==

    J tasked:                  Yes
    K tasked:                  Yes
    wK tasked:                  No
    Memory [MiB]:              357
    Schwarz Cutoff:          1E-12

    OpenMP threads:              1

  Minimum eigenvalue in the overlap matrix is 6.0264792053E-02.
  Using Symmetric Orthogonalization.

  SCF Guess: Superposition of Atomic Densities via on-the-fly atomic UHF.

  ==> Iterations <==

                        Total Energy        Delta E     RMS |[F,P]|

   @RHF iter   0:   -99.92911410104222   -9.99291e+01   8.93287e-02 
   @RHF iter   1:   -99.96479329319260   -3.56792e-02   2.62975e-02 
   @RHF iter   2:  -100.00114392559358   -3.63506e-02   1.41917e-02 DIIS
   @RHF iter   3:  -100.00904417145065   -7.90025e-03   2.57688e-03 DIIS
   @RHF iter   4:  -100.00980490537972   -7.60734e-04   7.71101e-04 DIIS
   @RHF iter   5:  -100.00986851219973   -6.36068e-05   1.02409e-04 DIIS
   @RHF iter   6:  -100.00986999873309   -1.48653e-06   1.63079e-05 DIIS
   @RHF iter   7:  -100.00987003264329   -3.39102e-08   2.03419e-06 DIIS
   @RHF iter   8:  -100.00987003301853   -3.75238e-10   2.39837e-07 DIIS
   @RHF iter   9:  -100.00987003302370   -5.17275e-12   2.07715e-08 DIIS
   @RHF iter  10:  -100.00987003302369    1.42109e-14   3.05607e-09 DIIS
   @RHF iter  11:  -100.00987003302367    1.42109e-14   1.96122e-10 DIIS
   @RHF iter  12:  -100.00987003302365    2.84217e-14   1.34842e-11 DIIS
   @RHF iter  13:  -100.00987003302369   -4.26326e-14   2.43029e-12 DIIS
   @RHF iter  14:  -100.00987003302374   -5.68434e-14   7.57065e-14 DIIS
   @RHF iter  15:  -100.00987003302362    1.27898e-13   2.08096e-14 DIIS
   @RHF iter  16:  -100.00987003302374   -1.27898e-13   9.13039e-15 DIIS
   @RHF iter  17:  -100.00987003302370    4.26326e-14   3.68479e-15 DIIS
   @RHF iter  18:  -100.00987003302372   -1.42109e-14   3.32815e-15 DIIS
   @RHF iter  19:  -100.00987003302367    4.26326e-14   4.35472e-15 DIIS
   @RHF iter  20:  -100.00987003302373   -5.68434e-14   3.76576e-15 DIIS
   @RHF iter  21:  -100.00987003302372    1.42109e-14   3.06712e-15 DIIS
   @RHF iter  22:  -100.00987003302365    7.10543e-14   3.46300e-15 DIIS
   @RHF iter  23:  -100.00987003302367   -2.84217e-14   4.11042e-15 DIIS
   @RHF iter  24:  -100.00987003302382   -1.42109e-13   5.20319e-15 DIIS
   @RHF iter  25:  -100.00987003302374    7.10543e-14   5.36471e-15 DIIS
   @RHF iter  26:  -100.00987003302362    1.27898e-13   3.21960e-15 DIIS
   @RHF iter  27:  -100.00987003302372   -9.94760e-14   4.24102e-15 DIIS
   @RHF iter  28:  -100.00987003302373   -1.42109e-14   2.80496e-15 DIIS
   @RHF iter  29:  -100.00987003302367    5.68434e-14   4.03081e-15 DIIS
   @RHF iter  30:  -100.00987003302367    0.00000e+00   2.72542e-15 DIIS
  Energy converged.


  ==> Post-Iterations <==

    Orbital Energies [Eh]
    ---------------------

    Doubly Occupied:                                                      

       1A1   -26.279280     2A1    -1.557452     3A1    -0.714908  
       1B2    -0.621198     1B1    -0.621198  

    Virtual:                                                              

       4A1     0.164493     5A1     0.737647     2B2     1.383060  
       2B1     1.383060     6A1     1.446649     3B1     1.616045  
       3B2     1.616045     7A1     2.133481     8A1     2.301792  
       9A1     4.012209     1A2     4.012209     4B2     4.207293  
       4B1     4.207293    10A1     4.935778  

    Final Occupation by Irrep:
             A1    A2    B1    B2 
    DOCC [     3,    0,    1,    1 ]

  @RHF Final Energy:  -100.00987003302367

   => Energetics <=

    Nuclear Repulsion Energy =              4.7625948960300004
    One-Electron Energy =                -149.9568562980554702
    Two-Electron Energy =                  45.1843913690017871
    Total Energy =                       -100.0098700330236738

Computation Completed


Properties will be evaluated at   0.000000,   0.000000,   0.000000 [a0]

Properties computed using the SCF density matrix

  Nuclear Dipole Moment: [e a0]
     X:     0.0000      Y:     0.0000      Z:     0.9378

  Electronic Dipole Moment: [e a0]
     X:     0.0000      Y:     0.0000      Z:    -0.1057

  Dipole Moment: [e a0]
     X:     0.0000      Y:     0.0000      Z:     0.8320     Total:     0.8320

  Dipole Moment: [D]
     X:     0.0000      Y:     0.0000      Z:     2.1148     Total:     2.1148


*** tstop() called on jeffschriber at Thu Oct 25 16:29:52 2018
Module time:
	user time   =       0.55 seconds =       0.01 minutes
	system time =       0.03 seconds =       0.00 minutes
	total time  =          0 seconds =       0.00 minutes
Total time:
	user time   =       0.55 seconds =       0.01 minutes
	system time =       0.03 seconds =       0.00 minutes
	total time  =          0 seconds =       0.00 minutes
   => Loading Basis Set <=

    Name: STO-3G
    Role: ORBITAL
    Keyword: MINAO_BASIS
    atoms 1 entry F          line    91 file /Users/jeffschriber/src/psi4-debug-install/share/psi4/basis/sto-3g.gbs 
    atoms 2 entry H          line    19 file /Users/jeffschriber/src/psi4-debug-install/share/psi4/basis/sto-3g.gbs 


Reading options from the FORTE block
Calling plugin forte.so.



  Forte
  ----------------------------------------------------------------------------
  A suite of quantum chemistry methods for strongly correlated electrons

    git branch: master - git commit: 9480afcf

  Developed by:
    Francesco A. Evangelista, Chenyang Li, Kevin P. Hannon,
    Jeffrey B. Schriber, Tianyuan Zhang, Chenxi Cai
  ----------------------------------------------------------------------------

  Size of Determinant class: 16

  ==> MO Space Information <==

  Read options for space FROZEN_DOCC
  Read options for space RESTRICTED_DOCC
  Read options for space ACTIVE
  Read options for space FROZEN_UOCC
  -------------------------------------------------
                       A1    A2    B1    B2   Sum
  -------------------------------------------------
    FROZEN_DOCC         1     0     0     0     1
    RESTRICTED_DOCC     0     0     0     0     0
    ACTIVE              4     0     2     2     8
    RESTRICTED_UOCC     0     0     0     0     0
    FROZEN_UOCC         5     1     2     2    10
    Total              10     1     4     4    19
  -------------------------------------------------

  ==> Integral Transformation <==

  Number of molecular orbitals:                    19
  Number of correlated molecular orbitals:          8
  Number of frozen occupied orbitals:               1
  Number of frozen unoccupied orbitals:            10
  Two-electron integral type:              Conventional


  Overall Conventional Integrals timings

	Presorting SO-basis two-electron integrals.
	Sorting File: SO Ints (nn|nn) nbuckets = 1
	Transforming the one-electron integrals and constructing Fock matrices
	Starting first half-transformation.
	Sorting half-transformed integrals.
	First half integral transformation complete.
	Starting second half-transformation.
	Two-electron integral transformation complete.

  Integral transformation done. 0.01676366 s
  Reading the two-electron integrals from disk
  Size of two-electron integrals:   0.002913 GB  Using in-core PK algorithm.
   Calculation information:
      Number of atoms:                   2
      Number of AO shells:               9
      Number of primitives:             27
      Number of atomic orbitals:        20
      Number of basis functions:        19

      Integral cutoff                 1.00e-12
      Number of threads:                 1

  Performing in-core PK
  Using 36290 doubles for integral storage.
  We computed 1035 shell quartets total.
  Whereas there are 1035 unique shell quartets.


  Frozen-core energy            -76.535749122419 a.u.
  Timing for frozen one-body operator:                        0.064 s.
  Resorting integrals after freezing core.
  Timing for freezing core and virtual orbitals:              0.069 s.
  Conventional integrals take 0.14835667 s

              ---------------------------------------------------
                               ACTIVE-DSRG-MRPT2
                Wrapper for Multiple SS-DSRG-MRPT2 Computations
                                  Chenyang Li
              ---------------------------------------------------

  Note: Orbitals are NOT optimized throughout the process.
  Reference selection criteria (CAS/CIS/CISD) will NOT change.
  Each state uses its OWN semicanonical orbitals.
  Ground state is assumed to be a singlet.
  Otherwise, please run separate DSRG-MRPT2 jobs.

  ==> Input Summary <==

    total roots requested (include S0)                     1
    multiplicity                                           1
    reference space type                                CISD
    separate HF in CISD                                 TURE
    DSRG-MRPT2 internal amplitudes           SINGLES_DOUBLES
    DSRG-MRPT2 internal type                             ALL

  ==> Roots Summary <==

                A1    A2    B1    B2
    ----------------------------------
      NROOTS     1     0     0     0
    ----------------------------------

              ---------------------------------------------------
                Complete Active Space Configuration Interaction
                                  Chenyang Li
              ---------------------------------------------------


  ==> Input Summary <==

    No. a electrons in active      =     4
    No. b electrons in active      =     4
    multiplicity                   =     1
    spin ms (2 * Sz)               =     0

  ==> Orbital Spaces <==

    TOTAL MO                      [   10     1     4     4 ]
    FROZEN CORE                   [    1     0     0     0 ]
    FROZEN VIRTUAL                [    5     1     2     2 ]
    CORRELATED MO                 [    4     0     2     2 ]
    CORE                          [    0     0     0     0 ]
    ACTIVE                        [    4     0     2     2 ]
    VIRTUAL                       [    0     0     0     0 ]

  ==============================
  Current Job: Singlet A1 states
  ==============================

  Forming determinants                ...  Done. Timing        0.000062 s

  ==> Determinants Summary <==

    number of alpha active electrons         =     4
    number of beta active electrons          =     4
    root symmetry (zero based)               =     0
    number of determinants (include RHF)     =   105

  Isolate RHF determinant to the rest determinants.
  Recompute RHF energy ... Done.

  * * * * * * * * * * * * * * * * *
  *  CI Vectors & Configurations  *
  * * * * * * * * * * * * * * * * *

  ==> Root No. 0 <==

    2200 20 20          1.0000000000

    Total Energy:   -100.009870033023731



  ==> Permanent Dipole Moments (A1) <==

  Only print nonzero (> 1.0e-5) elements.
  Permanent dipole moments (a.u.) 0 -> 0:  X:  0.0000  Y:  0.0000  Z:  0.8320  Total:  0.8320


  ==> Prepare Fock Matrices in the Original Basis <==

  Computing 1-cumulants ... Done. Timing        0.000952 s

  Forming generalized Fock matrix     ...  Done. Timing        0.000032 s
  Computing VCISD reference oscillator strength 0A1 -> nA1 ... Done.

  ==> Working on Root 0 <==

  Computing 1-, 2- and 3-cumulants ... Done. Timing        0.115226 s


  ==> Checking Fock Matrix Diagonal Blocks <==

    Off-Diag. Elements       Max           2-Norm
    ------------------------------------------------
    Fa actv_docc         0.0000000000   0.0000000000
    Fb actv_docc         0.0000000000   0.0000000000
    ------------------------------------------------
    Fa actv_virt         0.0000000000   0.0000000000
    Fb actv_virt         0.0000000000   0.0000000000
    ------------------------------------------------
    Fa core              0.0000000000   0.0000000000
    Fb core              0.0000000000   0.0000000000
    ------------------------------------------------
    Fa virt              0.0000000000   0.0000000000
    Fb virt              0.0000000000   0.0000000000
    ------------------------------------------------
  Orbitals are already semicanonicalized.

  ==> Multireference Driven Similarity Renormalization Group <==

    Reading DSRG options ............................ Done
    Setting ambit MO space .......................... Done
    Preparing tensors for density cumulants ......... Done
    Building Fock matrix ............................ Done
    Checking reference energy ....................... Done

              ----------------------------------------------------
                    MR-DSRG Second-Order Perturbation Theory
                Chenyang Li, Kevin Hannon, Francesco Evangelista
              ----------------------------------------------------

    References:
      u-DSRG-MRPT2:    J. Chem. Theory Comput. 2015, 11, 2097.
      (pr-)DSRG-MRPT2: J. Chem. Phys. 2017, 146, 124132.

  ==> Calculation Information <==

    ntamp                                                 60
    flow parameter                                 1.000e+00
    taylor expansion threshold                     1.000e-03
    intruder_tamp                                  1.000e-01
    int_type                                    CONVENTIONAL
    source operator                                 STANDARD
    reference relaxation                                NONE
    state_type                                STATE-SPECIFIC
    internal_amp                             SINGLES_DOUBLES
    internal_amp_select                                  ALL
    form Hbar3                                         FALSE

  ==> Checking Semicanonical Orbitals <==

    Abs. max of Fock core, active, virtual blocks (Fij, i != j)
                  core          active         virtual
    --------------------------------------------------
    Fα    0.0000000000    0.0000000000    0.0000000000
    Fβ    0.0000000000    0.0000000000    0.0000000000
    --------------------------------------------------

    1-Norm of Fock core, active, virtual blocks (Fij, i != j)
                  core          active         virtual
    --------------------------------------------------
    Fα    0.0000000000    0.0000000000    0.0000000000
    Fβ    0.0000000000    0.0000000000    0.0000000000
    --------------------------------------------------

    Orbitals are semi-canonicalized.
    It is OK for Fock (active) not being diagonal because CISD active space is incomplete.
    Please inspect if the Fock diag. blocks (C, AH, AP, V) are diagonal or not in the prior CI step.


  ==> Computing DSRG-MRPT2 ... <==

    Computing T2 amplitudes                  ...  Done. Timing        0.007751 s
    Computing T1 amplitudes                  ...  Done. Timing        0.001190 s
    Renormalizing two-electron integrals     ...  Done. Timing        0.000923 s
    Renormalizing Fock matrix elements       ...  Done. Timing        0.001174 s
    Computing <[F, T1]>                      ...  Done. Timing        0.001160 s
    Computing <[F, T2]>                      ...  Done. Timing        0.003129 s
    Computing <[V, T1]>                      ...  Done. Timing        0.003396 s
    Computing <[V, T2]> (C_2)^4              ...  Done. Timing        0.016889 s
    Computing <[V, T2]> C_4 (C_2)^2 HH       ...  Done. Timing        0.005023 s
    Computing <[V, T2]> C_4 (C_2)^2 PP       ...  Done. Timing        0.005004 s
    Computing <[V, T2]> C_4 (C_2)^2 PH       ...  Done. Timing        0.019302 s
    Computing <[V, T2]> C_6 C_2              ...  Done. Timing        0.094473 s

  ==> Excitation Amplitudes Summary <==

    Active Indices:    0    1    2    3    4    5    6    7 
    Largest T1 amplitudes for spin case A:
       i       a                  i       a                  i       a               
    --------------------------------------------------------------------------------
    [  1       3    ]-0.000000 [  2       3    ] 0.000000 [  0       3    ]-0.000000 
    [  6       7    ]-0.000000 [  0       2    ] 0.000000 [  1       2    ] 0.000000 
    [  4       5    ]-0.000000 
    --------------------------------------------------------------------------------
    Norm of T1A vector: (nonzero elements: 7)                     0.000000000000003.
    --------------------------------------------------------------------------------
    Largest T1 amplitudes for spin case B:
       _       _                  _       _                  _       _               
       i       a                  i       a                  i       a               
    --------------------------------------------------------------------------------
    [  1       3    ]-0.000000 [  2       3    ] 0.000000 [  0       3    ]-0.000000 
    [  6       7    ]-0.000000 [  0       2    ] 0.000000 [  1       2    ] 0.000000 
    [  4       5    ]-0.000000 
    --------------------------------------------------------------------------------
    Norm of T1B vector: (nonzero elements: 7)                     0.000000000000003.
    --------------------------------------------------------------------------------
    Largest T2 amplitudes for spin case AA:
       i   j   a   b              i   j   a   b              i   j   a   b           
    --------------------------------------------------------------------------------
    [  4   6   4   7]-0.086588 [  4   6   5   6]-0.086588 [  0   6   0   7]-0.075022 
    [  0   4   0   5]-0.075022 [  1   6   1   7]-0.068859 [  1   4   1   5]-0.068859 
    [  1   4   2   4] 0.065689 [  1   6   2   6] 0.065689 [  1   4   3   4]-0.061381 
    [  1   6   3   6]-0.061381 [  2   4   3   4] 0.052815 [  2   6   3   6] 0.052815 
    [  0   1   0   2] 0.052146 [  0   2   0   3] 0.051009 [  0   1   1   2] 0.048390 
    [  2   5   3   5] 0.047662 [  2   7   3   7] 0.047662 [  4   7   5   7]-0.047014 
    [  5   6   5   7]-0.047014 [  0   1   0   3]-0.044484 [  0   4   2   4]-0.039700 
    [  0   6   2   6]-0.039700 [  1   7   2   7] 0.035470 [  1   5   2   5] 0.035470 
    [  1   2   1   3] 0.034629 [  0   3   1   3] 0.033599 [  0   5   2   5]-0.031724 
    [  0   7   2   7]-0.031724 [  0   1   1   3]-0.031332 [  1   5   2   4]-0.030809 
    [  1   7   2   6]-0.030809 [  1   5   3   4] 0.027879 [  1   7   3   6] 0.027879 
    [  4   6   5   7]-0.023909 [  1   2   2   3]-0.023293 [  1   6   3   7]-0.019808 
    [  1   4   3   5]-0.019808 [  1   6   2   7] 0.017491 [  1   4   2   5] 0.017491 
    [  2   7   3   6]-0.016551 [  2   5   3   4]-0.016551 [  0   3   2   3]-0.015646 
    [  0   5   1   5] 0.014791 [  0   7   1   7] 0.014791 [  3   4   3   5]-0.013915 
    [  3   6   3   7]-0.013915 [  0   2   1   2] 0.012412 [  1   7   3   7]-0.011798 
    [  1   5   3   5]-0.011798 [  2   4   2   5]-0.010817 [  2   6   2   7]-0.010817 
    [  0   6   1   6]-0.010388 [  0   4   1   4]-0.010388 [  0   6   1   7]-0.009682 
    [  0   4   1   5]-0.009682 [  0   2   4   5]-0.009487 [  0   2   6   7]-0.009487 
    [  2   6   3   7] 0.008873 [  2   4   3   5] 0.008873 [  0   4   3   4] 0.008659 
    --------------------------------------------------------------------------------
    Norm of T2AA vector: (nonzero elements: 363)                  0.622078333890375.
    --------------------------------------------------------------------------------
    Largest T2 amplitudes for spin case AB:
           _       _                  _       _                  _       _           
       i   j   a   b              i   j   a   b              i   j   a   b           
    --------------------------------------------------------------------------------
    [  4   4   4   5]-0.106014 [  6   6   6   7]-0.106014 [  0   6   0   7]-0.094602 
    [  0   4   0   5]-0.094602 [  4   6   4   7]-0.093064 [  4   6   5   6]-0.093064 
    [  0   0   1   1]-0.090212 [  0   0   4   4]-0.085649 [  0   0   6   6]-0.085649 
    [  0   1   0   2] 0.073828 [  1   4   1   5]-0.072420 [  1   6   1   7]-0.072420 
    [  1   4   2   4] 0.070256 [  1   6   2   6] 0.070256 [  2   3   3   3] 0.070106 
    [  1   3   3   3] 0.067501 [  1   2   1   3] 0.066994 [  1   4   3   4]-0.066843 
    [  1   6   3   6]-0.066843 [  0   2   0   3] 0.065678 [  0   1   0   3]-0.060352 
    [  1   1   1   2] 0.059416 [  0   0   0   2]-0.057299 [  2   4   3   4] 0.056916 
    [  2   6   3   6] 0.056916 [  2   5   3   5] 0.055411 [  2   7   3   7] 0.055411 
    [  0   3   1   3] 0.052616 [  6   7   7   7]-0.051249 [  4   5   5   5]-0.051249 
    [  0   4   2   4]-0.051224 [  0   6   2   6]-0.051224 [  4   7   5   7]-0.048426 
    [  5   6   5   7]-0.048426 [  1   1   3   3]-0.041071 [  2   2   3   3]-0.040622 
    [  1   1   1   3]-0.040573 [  0   3   1   1] 0.038920 [  6   6   7   7]-0.034716 
    [  4   4   5   5]-0.034716 [  1   5   2   4]-0.034074 [  1   7   2   6]-0.034074 
    [  1   5   3   4] 0.033375 [  1   7   3   6] 0.033375 [  0   1   1   3]-0.033120 
    [  0   7   1   6] 0.029852 [  0   5   1   4] 0.029852 [  1   1   2   2]-0.029849 
    [  2   2   2   3] 0.029546 [  0   2   1   2] 0.029137 [  1   1   2   3] 0.028286 
    [  0   5   2   5]-0.028098 [  0   7   2   7]-0.028098 [  4   6   5   7]-0.027511 
    [  0   6   1   6]-0.026208 [  0   4   1   4]-0.026208 [  1   7   2   7] 0.023031 
    [  1   5   2   5] 0.023031 [  0   4   3   4] 0.021045 [  0   6   3   6] 0.021045 
    --------------------------------------------------------------------------------
    Norm of T2AB vector: (nonzero elements: 542)                  0.640546714918428.
    --------------------------------------------------------------------------------
    Largest T2 amplitudes for spin case BB:
       _   _   _   _              _   _   _   _              _   _   _   _           
       i   j   a   b              i   j   a   b              i   j   a   b           
    --------------------------------------------------------------------------------
    [  4   6   4   7]-0.086588 [  4   6   5   6]-0.086588 [  0   6   0   7]-0.075022 
    [  0   4   0   5]-0.075022 [  1   4   1   5]-0.068859 [  1   6   1   7]-0.068859 
    [  1   4   2   4] 0.065689 [  1   6   2   6] 0.065689 [  1   4   3   4]-0.061381 
    [  1   6   3   6]-0.061381 [  2   4   3   4] 0.052815 [  2   6   3   6] 0.052815 
    [  0   1   0   2] 0.052146 [  0   2   0   3] 0.051009 [  0   1   1   2] 0.048390 
    [  2   5   3   5] 0.047662 [  2   7   3   7] 0.047662 [  4   7   5   7]-0.047014 
    [  5   6   5   7]-0.047014 [  0   1   0   3]-0.044484 [  0   4   2   4]-0.039700 
    [  0   6   2   6]-0.039700 [  1   7   2   7] 0.035470 [  1   5   2   5] 0.035470 
    [  1   2   1   3] 0.034629 [  0   3   1   3] 0.033599 [  0   5   2   5]-0.031724 
    [  0   7   2   7]-0.031724 [  0   1   1   3]-0.031332 [  1   5   2   4]-0.030809 
    [  1   7   2   6]-0.030809 [  1   5   3   4] 0.027879 [  1   7   3   6] 0.027879 
    [  4   6   5   7]-0.023909 [  1   2   2   3]-0.023293 [  1   4   3   5]-0.019808 
    [  1   6   3   7]-0.019808 [  1   6   2   7] 0.017491 [  1   4   2   5] 0.017491 
    [  2   7   3   6]-0.016551 [  2   5   3   4]-0.016551 [  0   3   2   3]-0.015646 
    [  0   5   1   5] 0.014791 [  0   7   1   7] 0.014791 [  3   4   3   5]-0.013915 
    [  3   6   3   7]-0.013915 [  0   2   1   2] 0.012412 [  1   7   3   7]-0.011798 
    [  1   5   3   5]-0.011798 [  2   4   2   5]-0.010817 [  2   6   2   7]-0.010817 
    [  0   6   1   6]-0.010388 [  0   4   1   4]-0.010388 [  0   6   1   7]-0.009682 
    [  0   4   1   5]-0.009682 [  0   2   4   5]-0.009487 [  0   2   6   7]-0.009487 
    [  2   6   3   7] 0.008873 [  2   4   3   5] 0.008873 [  0   4   3   4] 0.008659 
    --------------------------------------------------------------------------------
    Norm of T2BB vector: (nonzero elements: 363)                  0.622078333890375.
    --------------------------------------------------------------------------------

  ==> Possible Intruders <==

    T1 amplitudes larger than 0.1000 for spin case A: NULL
    T1 amplitudes larger than 0.1000 for spin case B: NULL
    T2 amplitudes larger than 0.1000 for spin case AA: NULL
    T2 amplitudes larger than 0.1000 for spin case AB:
        Amplitude         Value                               Denominator                           
    ------------------------------------------------------------------------------------------------
    [  4   4   4   5]   -0.10601436 ( -0.621198 +  -0.621198 -  -0.621198 -   1.383060 =  -2.004258)
    [  6   6   6   7]   -0.10601436 ( -0.621198 +  -0.621198 -  -0.621198 -   1.383060 =  -2.004258)
    ------------------------------------------------------------------------------------------------
    T2 amplitudes larger than 0.1000 for spin case BB: NULL

  ==> DSRG-MRPT2 Energy Summary <==

    E0 (reference)                 =   -100.009870033023731
    <[F, T1]>                      =     -0.000000000000000
    <[F, T2]>                      =      0.000000000000000
    <[V, T1]>                      =      0.000000000000000
    <[V, T2]> (C_2)^4              =     -0.057352607203308
    <[V, T2]> C_4 (C_2)^2 HH       =      0.000000000000000
    <[V, T2]> C_4 (C_2)^2 PP       =      0.000000000000000
    <[V, T2]> C_4 (C_2)^2 PH       =      0.000000000000000
    <[V, T2]> C_6 C_2              =      0.000000000000000
    <[V, T2]>                      =     -0.057352607203308
    DSRG-MRPT2 correlation energy  =     -0.057352607203308
    DSRG-MRPT2 total energy        =   -100.067222640227044
    max(T1)                        =      0.000000000000002
    max(T2)                        =      0.106014359105455
    ||T1||                         =      0.000000000000005
    ||T2||                         =      1.554079561336166

  Energy took      0.165 s


  ==> Total Timings (s) for Computing Commutators <==

             [H1, T1]    [H1, T2]    [H2, T1]    [H2, T2]
    -----------------------------------------------------
    -> C0       0.001       0.003       0.003       0.141
    -> C1       0.000       0.000       0.000       0.000
    -> C2                   0.000       0.000       0.000
    -----------------------------------------------------


  ==> VCISD Transition Dipole Moment (a.u.) <==


  ==> VCISD Oscillator Strength (a.u.) <==


  ==> VCISD-DSRG-PT2 Transition Dipole Moment (a.u.) <==


  ==> VCISD-DSRG-PT2 Oscillator Strength (a.u.) <==



  ==> ACTIVE-DSRG-MRPT2 Summary <==

    2S+1  Sym.  ROOT               VCISD      VCISD-DSRG-PT2    % T1
    ----------------------------------------------------------------
       1    A1     0     -100.0098700330     -100.0672226402    0.00
    ----------------------------------------------------------------	DSRG-MRPT2 energy.................................................PASSED
   => Loading Basis Set <=

    Name: STO-3G
    Role: ORBITAL
    Keyword: MINAO_BASIS
    atoms 1 entry F          line    91 file /Users/jeffschriber/src/psi4-debug-install/share/psi4/basis/sto-3g.gbs 
    atoms 2 entry H          line    19 file /Users/jeffschriber/src/psi4-debug-install/share/psi4/basis/sto-3g.gbs 


Reading options from the FORTE block
Calling plugin forte.so.



  Forte
  ----------------------------------------------------------------------------
  A suite of quantum chemistry methods for strongly correlated electrons

    git branch: master - git commit: 9480afcf

  Developed by:
    Francesco A. Evangelista, Chenyang Li, Kevin P. Hannon,
    Jeffrey B. Schriber, Tianyuan Zhang, Chenxi Cai
  ----------------------------------------------------------------------------

  Size of Determinant class: 16

  ==> MO Space Information <==

  Read options for space FROZEN_DOCC
  Read options for space RESTRICTED_DOCC
  Read options for space ACTIVE
  Read options for space FROZEN_UOCC
  -------------------------------------------------
                       A1    A2    B1    B2   Sum
  -------------------------------------------------
    FROZEN_DOCC         1     0     0     0     1
    RESTRICTED_DOCC     0     0     0     0     0
    ACTIVE              4     0     2     2     8
    RESTRICTED_UOCC     0     0     0     0     0
    FROZEN_UOCC         5     1     2     2    10
    Total              10     1     4     4    19
  -------------------------------------------------

  ==> Integral Transformation <==

  Number of molecular orbitals:                    19
  Number of correlated molecular orbitals:          8
  Number of frozen occupied orbitals:               1
  Number of frozen unoccupied orbitals:            10
  Two-electron integral type:              Cholesky decomposition


  Computing the Cholesky Vectors 

  Computing CD Integrals               ......Done.
  Timing for cholesky transformation:                         0.119 s.
  Need 462.08 KB to store CD integrals in core

  Number of Cholesky vectors required for 1.000e-08 tolerance: 160
  Using in-core PK algorithm.
   Calculation information:
      Number of atoms:                   2
      Number of AO shells:               9
      Number of primitives:             27
      Number of atomic orbitals:        20
      Number of basis functions:        19

      Integral cutoff                 1.00e-12
      Number of threads:                 1

  Performing in-core PK
  Using 36290 doubles for integral storage.
  We computed 1035 shell quartets total.
  Whereas there are 1035 unique shell quartets.


  Frozen-core energy            -76.535749122419 a.u.
  Timing for frozen one-body operator:                        0.065 s.
  Resorting integrals after freezing core.
  Timing for freezing core and virtual orbitals:              0.066 s.
  Timing for computing Cholesky integrals:                    0.194 s.

              ---------------------------------------------------
                               ACTIVE-DSRG-MRPT2
                Wrapper for Multiple SS-DSRG-MRPT2 Computations
                                  Chenyang Li
              ---------------------------------------------------

  Note: Orbitals are NOT optimized throughout the process.
  Reference selection criteria (CAS/CIS/CISD) will NOT change.
  Each state uses its OWN semicanonical orbitals.
  Ground state is assumed to be a singlet.
  Otherwise, please run separate DSRG-MRPT2 jobs.

  ==> Input Summary <==

    total roots requested (include S0)                     1
    multiplicity                                           1
    reference space type                                CISD
    separate HF in CISD                                 TURE
    DSRG-MRPT2 internal amplitudes           SINGLES_DOUBLES
    DSRG-MRPT2 internal type                             ALL

  ==> Roots Summary <==

                A1    A2    B1    B2
    ----------------------------------
      NROOTS     1     0     0     0
    ----------------------------------

              ---------------------------------------------------
                Complete Active Space Configuration Interaction
                                  Chenyang Li
              ---------------------------------------------------


  ==> Input Summary <==

    No. a electrons in active      =     4
    No. b electrons in active      =     4
    multiplicity                   =     1
    spin ms (2 * Sz)               =     0

  ==> Orbital Spaces <==

    TOTAL MO                      [   10     1     4     4 ]
    FROZEN CORE                   [    1     0     0     0 ]
    FROZEN VIRTUAL                [    5     1     2     2 ]
    CORRELATED MO                 [    4     0     2     2 ]
    CORE                          [    0     0     0     0 ]
    ACTIVE                        [    4     0     2     2 ]
    VIRTUAL                       [    0     0     0     0 ]

  ==============================
  Current Job: Singlet A1 states
  ==============================

  Forming determinants                ...  Done. Timing        0.000068 s

  ==> Determinants Summary <==

    number of alpha active electrons         =     4
    number of beta active electrons          =     4
    root symmetry (zero based)               =     0
    number of determinants (include RHF)     =   105

  Isolate RHF determinant to the rest determinants.
  Recompute RHF energy ... Done.

  * * * * * * * * * * * * * * * * *
  *  CI Vectors & Configurations  *
  * * * * * * * * * * * * * * * * *

  ==> Root No. 0 <==

    2200 20 20          1.0000000000

    Total Energy:   -100.009870032620427



  ==> Permanent Dipole Moments (A1) <==

  Only print nonzero (> 1.0e-5) elements.
  Permanent dipole moments (a.u.) 0 -> 0:  X:  0.0000  Y:  0.0000  Z:  0.8320  Total:  0.8320


  ==> Prepare Fock Matrices in the Original Basis <==

  Computing 1-cumulants ... Done. Timing        0.000936 s

  Forming generalized Fock matrix     ...  Done. Timing        0.000750 s
  Computing VCISD reference oscillator strength 0A1 -> nA1 ... Done.

  ==> Working on Root 0 <==

  Computing 1-, 2- and 3-cumulants ... Done. Timing        0.095385 s


  ==> Checking Fock Matrix Diagonal Blocks <==

    Off-Diag. Elements       Max           2-Norm
    ------------------------------------------------
    Fa actv_docc         0.0000000000   0.0000000000
    Fb actv_docc         0.0000000000   0.0000000000
    ------------------------------------------------
    Fa actv_virt         0.0000000078   0.0000000111
    Fb actv_virt         0.0000000078   0.0000000111
    ------------------------------------------------
    Fa core              0.0000000000   0.0000000000
    Fb core              0.0000000000   0.0000000000
    ------------------------------------------------
    Fa virt              0.0000000000   0.0000000000
    Fb virt              0.0000000000   0.0000000000
    ------------------------------------------------

  ==> Integral Transformation to Semicanonical Basis <==

 Integrals are about to be computed.
  Computing the Cholesky Vectors 

  Computing CD Integrals               ......Done.
  Timing for cholesky transformation:                         0.115 s.
  Need 462.08 KB to store CD integrals in core

  Number of Cholesky vectors required for 1.000e-08 tolerance: 160

 Integrals are about to be updated.  Using in-core PK algorithm.
   Calculation information:
      Number of atoms:                   2
      Number of AO shells:               9
      Number of primitives:             27
      Number of atomic orbitals:        20
      Number of basis functions:        19

      Integral cutoff                 1.00e-12
      Number of threads:                 1

  Performing in-core PK
  Using 36290 doubles for integral storage.
  We computed 1035 shell quartets total.
  Whereas there are 1035 unique shell quartets.


  Frozen-core energy            -76.535749122419 a.u.
  Timing for frozen one-body operator:                        0.064 s.
  Resorting integrals after freezing core.
  Timing for freezing core and virtual orbitals:              0.065 s.

  ==> Reference Transformation to Semicanonical Basis <==

    Transformed 1 cumulants.
    Transformed 2 cumulants and RDMs.
    Transformed 3 cumulants.
  SemiCanonicalize takes 0.633409 s.

  ==> Multireference Driven Similarity Renormalization Group <==

    Reading DSRG options ............................ Done
    Setting ambit MO space .......................... Done
    Preparing tensors for density cumulants ......... Done
    Building Fock matrix ............................ Done
    Checking reference energy ....................... Done

                  --------------------------------------------
                      Density Fitted / Cholesky Decomposed
                    MR-DSRG Second-Order Perturbation Theory
                      Kevin Hannon and Chenyang (York) Li
                                 1 thread (OMP)
                  --------------------------------------------

    References:
      u-DSRG-MRPT2:      J. Chem. Theory Comput. 2015, 11, 2097.
      DF/CD-DSRG-MRPT2:  J. Chem. Phys. 2016, 144, 204111.
      (pr-)DSRG-MRPT2:   J. Chem. Phys. 2017, 146, 124132.


  ==> Calculation Information <==

    Flow parameter                                 1.000e+00
    Taylor expansion threshold                     1.000e-03
    Cholesky tolerance                             1.000e-08
    Psi4 ref_type                                        RHF
    Integral type                                   CHOLESKY
    Source operator                                 STANDARD
    CCVV algorithm                                 FLY_AMBIT
    CCVV source                                       NORMAL
    Reference relaxation                                NONE
    State type                                STATE-SPECIFIC
    Internal_amp                             SINGLES_DOUBLES
    Internal_amp_select                                  ALL

  ==> Checking Semicanonical Orbitals <==

    Abs. max of Fock core, active, virtual blocks (Fij, i != j)
                  core          active         virtual
    --------------------------------------------------
    Fα    0.0000000000    0.0000000004    0.0000000000
    Fβ    0.0000000000    0.0000000004    0.0000000000
    --------------------------------------------------

    1-Norm of Fock core, active, virtual blocks (Fij, i != j)
                  core          active         virtual
    --------------------------------------------------
    Fα    0.0000000000    0.0000000023    0.0000000000
    Fβ    0.0000000000    0.0000000023    0.0000000000
    --------------------------------------------------

    Orbitals are semi-canonicalized.
    It is OK for Fock (active) not being diagonal because CISD active space is incomplete.
    Please inspect if the Fock diag. blocks (C, AH, AP, V) are diagonal or not in the prior CI step.


  ==> Computing DSRG-MRPT2 Energy <==

  Reference Energy = -100.009870032620427
    Computing T2                             ...... Done. Timing        0.008101 s
    Renormalizing V                          ...... Done. Timing        0.001008 s
    Computing T1                             ...... Done. Timing        0.001478 s
    Renormalizing F                          ...... Done. Timing        0.001868 s
    Computing <[F, T1]>                      ...... Done. Timing        0.001195 s
    Computing <[F, T2]>                      ...... Done. Timing        0.003425 s
    Computing <[V, T1]>                      ...... Done. Timing        0.003126 s
    Computing <[V, T2]> 4HH                  ...... Done. Timing        0.005153 s
    Computing <V, T2]> 4PP                   ...... Done. Timing        0.005151 s
    Computing [V, T2] 4PH                    ...... Done. Timing        0.019259 s
    Computing [V, T2] λ3                     ...... Done. Timing        0.089231 s
    Computing <[V, T2]> (C_2)^4 (no ccvv)    ...... Done. Timing        0.008769 s
    Computing <[V, T2]> (C_2)^4 ccvv         ...... Done. Timing        0.000130 s
  Eccvv: 0.0000000000

  ==> DSRG-MRPT2 (DF/CD) Energy Summary <==

    E0 (reference)                 =   -100.009870032620427
    <[F, T1]>                      =     -0.000000000000000
    <[F, T2]>                      =      0.000000000000000
    <[V, T1]>                      =      0.000000000000000
    <[V, T2]> C_4 (C_2)^2 HH       =      0.000000000000000
    <[V, T2]> C_4 (C_2)^2 PP       =      0.000000000000000
    <[V, T2]> C_4 (C_2)^2 PH       =      0.000000000000000
    <[V, T2]> C_6 C_2              =      0.000000000000000
    <[V, T2]> (C_2)^4              =     -0.057352606987784
    <[V, T2]>                      =     -0.057352606987784
    DSRG-MRPT2 correlation energy  =     -0.057352606987784
    DSRG-MRPT2 total energy        =   -100.067222639608204
    max(T1)                        =      0.000000000267990
    ||T1||                         =      0.000000000472978

  ==> Total Timings (s) for Computing Commutators <==

             [H1, T1]    [H1, T2]    [H2, T1]    [H2, T2]
    -----------------------------------------------------
    -> C0       0.001       0.003       0.003       0.048
    -> C1       0.000       0.000       0.000       0.000
    -> C2                   0.000       0.000       0.000
    -----------------------------------------------------


  ==> VCISD Transition Dipole Moment (a.u.) <==


  ==> VCISD Oscillator Strength (a.u.) <==


  ==> VCISD-DSRG-PT2 Transition Dipole Moment (a.u.) <==


  ==> VCISD-DSRG-PT2 Oscillator Strength (a.u.) <==



  ==> ACTIVE-DSRG-MRPT2 Summary <==

    2S+1  Sym.  ROOT               VCISD      VCISD-DSRG-PT2    % T1
    ----------------------------------------------------------------
       1    A1     0     -100.0098700326     -100.0672226396    0.00
    ----------------------------------------------------------------	CD-DSRG-MRPT2 energy..............................................PASSED
   => Loading Basis Set <=

    Name: STO-3G
    Role: ORBITAL
    Keyword: MINAO_BASIS
    atoms 1 entry F          line    91 file /Users/jeffschriber/src/psi4-debug-install/share/psi4/basis/sto-3g.gbs 
    atoms 2 entry H          line    19 file /Users/jeffschriber/src/psi4-debug-install/share/psi4/basis/sto-3g.gbs 


Reading options from the FORTE block
Calling plugin forte.so.



  Forte
  ----------------------------------------------------------------------------
  A suite of quantum chemistry methods for strongly correlated electrons

    git branch: master - git commit: 9480afcf

  Developed by:
    Francesco A. Evangelista, Chenyang Li, Kevin P. Hannon,
    Jeffrey B. Schriber, Tianyuan Zhang, Chenxi Cai
  ----------------------------------------------------------------------------

  Size of Determinant class: 16

  ==> MO Space Information <==

  Read options for space FROZEN_DOCC
  Read options for space RESTRICTED_DOCC
  Read options for space ACTIVE
  Read options for space FROZEN_UOCC
  -------------------------------------------------
                       A1    A2    B1    B2   Sum
  -------------------------------------------------
    FROZEN_DOCC         1     0     0     0     1
    RESTRICTED_DOCC     2     0     1     1     4
    ACTIVE              0     0     0     0     0
    RESTRICTED_UOCC     2     0     1     1     4
    FROZEN_UOCC         5     1     2     2    10
    Total              10     1     4     4    19
  -------------------------------------------------

  ==> Integral Transformation <==

  Number of molecular orbitals:                    19
  Number of correlated molecular orbitals:          8
  Number of frozen occupied orbitals:               1
  Number of frozen unoccupied orbitals:            10
  Two-electron integral type:              Conventional


  Overall Conventional Integrals timings

	Presorting SO-basis two-electron integrals.
	Sorting File: SO Ints (nn|nn) nbuckets = 1
	Transforming the one-electron integrals and constructing Fock matrices
	Starting first half-transformation.
	Sorting half-transformed integrals.
	First half integral transformation complete.
	Starting second half-transformation.
	Two-electron integral transformation complete.

  Integral transformation done. 0.01394291 s
  Reading the two-electron integrals from disk
  Size of two-electron integrals:   0.002913 GB  Using in-core PK algorithm.
   Calculation information:
      Number of atoms:                   2
      Number of AO shells:               9
      Number of primitives:             27
      Number of atomic orbitals:        20
      Number of basis functions:        19

      Integral cutoff                 1.00e-12
      Number of threads:                 1

  Performing in-core PK
  Using 36290 doubles for integral storage.
  We computed 1035 shell quartets total.
  Whereas there are 1035 unique shell quartets.


  Frozen-core energy            -76.535749122419 a.u.
  Timing for frozen one-body operator:                        0.064 s.
  Resorting integrals after freezing core.
  Timing for freezing core and virtual orbitals:              0.070 s.
  Conventional integrals take 0.15187641 s

              ---------------------------------------------------
                Complete Active Space Configuration Interaction
                                  Chenyang Li
              ---------------------------------------------------


  ==> Input Summary <==

    No. a electrons in active      =     0
    No. b electrons in active      =     0
    multiplicity                   =     1
    spin ms (2 * Sz)               =     0

  ==> Orbital Spaces <==

    TOTAL MO                      [   10     1     4     4 ]
    FROZEN CORE                   [    1     0     0     0 ]
    FROZEN VIRTUAL                [    5     1     2     2 ]
    CORRELATED MO                 [    4     0     2     2 ]
    CORE                          [    2     0     1     1 ]
    ACTIVE                        [    0     0     0     0 ]
    VIRTUAL                       [    2     0     1     1 ]
  Forming determinants                ...  Done. Timing        0.000014 s

  ==> Determinants Summary <==

    number of alpha active electrons         =     0
    number of beta active electrons          =     0
    root symmetry (zero based)               =     0
    number of determinants (include RHF)     =     1

  Isolate RHF determinant to the rest determinants.
  Recompute RHF energy ... Done.

  * * * * * * * * * * * * * * * * *
  *  CI Vectors & Configurations  *
  * * * * * * * * * * * * * * * * *

  ==> Root No. 0 <==

             1.0000000000

    Total Energy:   -100.009870033023716



  ==> Permanent Dipole Moments (A1) <==

  Only print nonzero (> 1.0e-5) elements.
  Permanent dipole moments (a.u.) 0 -> 0:  X:  0.0000  Y:  0.0000  Z:  0.8320  Total:  0.8320

  Computing 1-, 2- and 3-cumulants ... Done. Timing        0.002696 s


       -----------------------------------------------------------------
                            Semi-Canonical Orbitals
         Chenyang Li, Jeffrey B. Schriber and Francesco A. Evangelista
       -----------------------------------------------------------------

  Took 0.000025 s to build Fock matrix

  ==> Checking Fock Matrix Diagonal Blocks <==

    Off-Diag. Elements       Max           2-Norm
    ------------------------------------------------
    Fa actv_docc         0.0000000000   0.0000000000
    Fb actv_docc         0.0000000000   0.0000000000
    ------------------------------------------------
    Fa actv_virt         0.0000000000   0.0000000000
    Fb actv_virt         0.0000000000   0.0000000000
    ------------------------------------------------
    Fa core              0.0000000000   0.0000000000
    Fb core              0.0000000000   0.0000000000
    ------------------------------------------------
    Fa virt              0.0000000078   0.0000000111
    Fb virt              0.0000000078   0.0000000111
    ------------------------------------------------

  ==> Integral Transformation to Semicanonical Basis <==

 Integrals are about to be computed.	Presorting SO-basis two-electron integrals.
	Sorting File: SO Ints (nn|nn) nbuckets = 1
	Transforming the one-electron integrals and constructing Fock matrices
	Starting first half-transformation.
	Sorting half-transformed integrals.
	First half integral transformation complete.
	Starting second half-transformation.
	Two-electron integral transformation complete.

  Integral transformation done. 0.01353433 s
  Reading the two-electron integrals from disk
  Size of two-electron integrals:   0.002913 GB
 Integrals are about to be updated.  Using in-core PK algorithm.
   Calculation information:
      Number of atoms:                   2
      Number of AO shells:               9
      Number of primitives:             27
      Number of atomic orbitals:        20
      Number of basis functions:        19

      Integral cutoff                 1.00e-12
      Number of threads:                 1

  Performing in-core PK
  Using 36290 doubles for integral storage.
  We computed 1035 shell quartets total.
  Whereas there are 1035 unique shell quartets.


  Frozen-core energy            -76.535749122419 a.u.
  Timing for frozen one-body operator:                        0.064 s.
  Resorting integrals after freezing core.
  Timing for freezing core and virtual orbitals:              0.069 s.

  ==> Reference Transformation to Semicanonical Basis <==

    Transformed 1 cumulants.
    Transformed 2 cumulants and RDMs.
    Transformed 3 cumulants.
  SemiCanonicalize takes 0.511071 s.

  ==> Multireference Driven Similarity Renormalization Group <==

    Reading DSRG options ............................ Done
    Setting ambit MO space .......................... Done
    Preparing tensors for density cumulants ......... Done
    Building Fock matrix ............................ Done
    Checking reference energy ....................... Done

              ----------------------------------------------------
                    MR-DSRG Second-Order Perturbation Theory
                Chenyang Li, Kevin Hannon, Francesco Evangelista
              ----------------------------------------------------

    References:
      u-DSRG-MRPT2:    J. Chem. Theory Comput. 2015, 11, 2097.
      (pr-)DSRG-MRPT2: J. Chem. Phys. 2017, 146, 124132.

  ==> Calculation Information <==

    ntamp                                                 60
    flow parameter                                 1.000e+00
    taylor expansion threshold                     1.000e-03
    intruder_tamp                                  1.000e-01
    int_type                                    CONVENTIONAL
    source operator                                 STANDARD
    reference relaxation                                NONE
    state_type                                STATE-SPECIFIC
    form Hbar3                                         FALSE

  ==> Checking Semicanonical Orbitals <==

    Abs. max of Fock core, active, virtual blocks (Fij, i != j)
                  core          active         virtual
    --------------------------------------------------
    Fα    0.0000000000    0.0000000000    0.0000000000
    Fβ    0.0000000000    0.0000000000    0.0000000000
    --------------------------------------------------

    1-Norm of Fock core, active, virtual blocks (Fij, i != j)
                  core          active         virtual
    --------------------------------------------------
    Fα    0.0000000000    0.0000000000    0.0000000000
    Fβ    0.0000000000    0.0000000000    0.0000000000
    --------------------------------------------------

    Orbitals are semi-canonicalized.
    It is OK for Fock (active) not being diagonal because CISD active space is incomplete.
    Please inspect if the Fock diag. blocks (C, AH, AP, V) are diagonal or not in the prior CI step.


  ==> Computing DSRG-MRPT2 ... <==

    Computing T2 amplitudes                  ...  Done. Timing        0.000758 s
    Computing T1 amplitudes                  ...  Done. Timing        0.000926 s
    Renormalizing two-electron integrals     ...  Done. Timing        0.000150 s
    Renormalizing Fock matrix elements       ...  Done. Timing        0.001062 s
    Computing <[F, T1]>                      ...  Done. Timing        0.000630 s
    Computing <[F, T2]>                      ...  Done. Timing        0.001250 s
    Computing <[V, T1]>                      ...  Done. Timing        0.001199 s
    Computing <[V, T2]> (C_2)^4              ...  Done. Timing        0.008236 s
    Computing <[V, T2]> C_4 (C_2)^2 HH       ...  Done. Timing        0.001978 s
    Computing <[V, T2]> C_4 (C_2)^2 PP       ...  Done. Timing        0.002371 s
    Computing <[V, T2]> C_4 (C_2)^2 PH       ...  Done. Timing        0.008017 s
    Computing <[V, T2]> C_6 C_2              ...  Done. Timing        0.003480 s

  ==> Excitation Amplitudes Summary <==

    Active Indices: 
    Largest T1 amplitudes for spin case A:
       i       a                  i       a                  i       a               
    --------------------------------------------------------------------------------
    [  1       3    ]-0.000000 [  6       7    ]-0.000000 [  1       2    ] 0.000000 
    [  4       5    ]-0.000000 [  0       3    ]-0.000000 
    --------------------------------------------------------------------------------
    Norm of T1A vector: (nonzero elements: 5)                     0.000000000000002.
    --------------------------------------------------------------------------------
    Largest T1 amplitudes for spin case B:
       _       _                  _       _                  _       _               
       i       a                  i       a                  i       a               
    --------------------------------------------------------------------------------
    [  1       3    ]-0.000000 [  6       7    ]-0.000000 [  1       2    ] 0.000000 
    [  4       5    ]-0.000000 [  0       3    ]-0.000000 
    --------------------------------------------------------------------------------
    Norm of T1B vector: (nonzero elements: 5)                     0.000000000000002.
    --------------------------------------------------------------------------------
    Largest T2 amplitudes for spin case AA:
       i   j   a   b              i   j   a   b              i   j   a   b           
    --------------------------------------------------------------------------------
    [  4   6   5   7]-0.023909 [  1   4   3   5]-0.019808 [  1   6   3   7]-0.019808 
    [  1   6   2   7] 0.017491 [  1   4   2   5] 0.017491 [  0   6   2   7]-0.007243 
    [  0   4   2   5]-0.007243 [  0   6   3   7] 0.003925 [  0   4   3   5] 0.003925 
    [  0   1   2   3]-0.000259 
    --------------------------------------------------------------------------------
    Norm of T2AA vector: (nonzero elements: 40)                   0.091738645067755.
    --------------------------------------------------------------------------------
    Largest T2 amplitudes for spin case AB:
           _       _                  _       _                  _       _           
       i   j   a   b              i   j   a   b              i   j   a   b           
    --------------------------------------------------------------------------------
    [  1   1   3   3]-0.041071 [  6   6   7   7]-0.034716 [  4   4   5   5]-0.034716 
    [  1   1   2   2]-0.029849 [  1   1   2   3] 0.028286 [  4   6   5   7]-0.027511 
    [  1   6   3   7]-0.020298 [  1   4   3   5]-0.020298 [  1   6   2   7] 0.018512 
    [  1   4   2   5] 0.018512 [  0   0   2   2]-0.010922 [  0   1   2   2] 0.010645 
    [  0   6   2   7]-0.010387 [  0   4   2   5]-0.010387 [  1   1   5   5]-0.009125 
    [  1   1   7   7]-0.009125 [  0   1   3   3] 0.008411 [  0   0   3   3]-0.008388 
    [  0   0   2   3] 0.007475 [  0   1   2   3]-0.006921 [  0   0   7   7]-0.006875 
    [  0   0   5   5]-0.006875 [  6   6   2   2]-0.006433 [  4   4   2   2]-0.006433 
    [  0   6   3   7] 0.005030 [  0   4   3   5] 0.005030 [  6   6   3   3]-0.004786 
    [  4   4   3   3]-0.004786 [  6   6   2   3] 0.003874 [  4   4   2   3] 0.003874 
    [  6   6   5   5]-0.003602 [  4   4   7   7]-0.003602 [  0   1   5   5] 0.000808 
    [  0   1   7   7] 0.000808 
    --------------------------------------------------------------------------------
    Norm of T2AB vector: (nonzero elements: 72)                   0.114286730929850.
    --------------------------------------------------------------------------------
    Largest T2 amplitudes for spin case BB:
       _   _   _   _              _   _   _   _              _   _   _   _           
       i   j   a   b              i   j   a   b              i   j   a   b           
    --------------------------------------------------------------------------------
    [  4   6   5   7]-0.023909 [  1   4   3   5]-0.019808 [  1   6   3   7]-0.019808 
    [  1   6   2   7] 0.017491 [  1   4   2   5] 0.017491 [  0   6   2   7]-0.007243 
    [  0   4   2   5]-0.007243 [  0   6   3   7] 0.003925 [  0   4   3   5] 0.003925 
    [  0   1   2   3]-0.000259 
    --------------------------------------------------------------------------------
    Norm of T2BB vector: (nonzero elements: 40)                   0.091738645067755.
    --------------------------------------------------------------------------------

  ==> Possible Intruders <==

    T1 amplitudes larger than 0.1000 for spin case A: NULL
    T1 amplitudes larger than 0.1000 for spin case B: NULL
    T2 amplitudes larger than 0.1000 for spin case AA: NULL
    T2 amplitudes larger than 0.1000 for spin case AB: NULL
    T2 amplitudes larger than 0.1000 for spin case BB: NULL

  ==> DSRG-MRPT2 Energy Summary <==

    E0 (reference)                 =   -100.009870033023716
    <[F, T1]>                      =     -0.000000000000000
    <[F, T2]>                      =      0.000000000000000
    <[V, T1]>                      =      0.000000000000000
    <[V, T2]> (C_2)^4              =     -0.057352607203308
    <[V, T2]> C_4 (C_2)^2 HH       =      0.000000000000000
    <[V, T2]> C_4 (C_2)^2 PP       =      0.000000000000000
    <[V, T2]> C_4 (C_2)^2 PH       =      0.000000000000000
    <[V, T2]> C_6 C_2              =      0.000000000000000
    <[V, T2]>                      =     -0.057352607203308
    DSRG-MRPT2 correlation energy  =     -0.057352607203308
    DSRG-MRPT2 total energy        =   -100.067222640227030
    max(T1)                        =      0.000000000000002
    max(T2)                        =      0.041071009701659
    ||T1||                         =      0.000000000000003
    ||T2||                         =      0.262826531127021

  Energy took      0.032 s


  ==> Total Timings (s) for Computing Commutators <==

             [H1, T1]    [H1, T2]    [H2, T1]    [H2, T2]
    -----------------------------------------------------
    -> C0       0.001       0.001       0.001       0.024
    -> C1       0.000       0.000       0.000       0.000
    -> C2                   0.000       0.000       0.000
    -----------------------------------------------------
	DSRG-MRPT2 internal vs SR-DSRG-PT2................................PASSED

    Psi4 stopped on: Thursday, 25 October 2018 04:29PM
    Psi4 wall time for execution: 0:00:03.17

*** Psi4 exiting successfully. Buy a developer a beer!
