
    -----------------------------------------------------------------------
          Psi4: An Open-Source Ab Initio Electronic Structure Package
                               Psi4 undefined 

                         Git: Rev {master} 3c26e8e 


    R. M. Parrish, L. A. Burns, D. G. A. Smith, A. C. Simmonett,
    A. E. DePrince III, E. G. Hohenstein, U. Bozkaya, A. Yu. Sokolov,
    R. Di Remigio, R. M. Richard, J. F. Gonthier, A. M. James,
    H. R. McAlexander, A. Kumar, M. Saitow, X. Wang, B. P. Pritchard,
    P. Verma, H. F. Schaefer III, K. Patkowski, R. A. King, E. F. Valeev,
    F. A. Evangelista, J. M. Turney, T. D. Crawford, and C. D. Sherrill,
    J. Chem. Theory Comput. 13(7) pp 3185--3197 (2017).
    (doi: 10.1021/acs.jctc.7b00174)


                         Additional Contributions by
    P. Kraus, H. Kruse, M. H. Lechner, M. C. Schieber, and R. A. Shaw

    -----------------------------------------------------------------------


    Psi4 started on: Thursday, 25 October 2018 04:16PM

    Process ID: 93464
    Host:       jeffschriber
    PSIDATADIR: /Users/jeffschriber/src/psi4-debug-install/share/psi4
    Memory:     500.0 MiB
    Threads:    1
    
  ==> Input File <==

--------------------------------------------------------------------------
#! This tests the Adaptive Path-Integral FCI procedure with no prescreening
#! Generated using commit GITCOMMIT

import forte

refscf = -14.6097447380899563 #TEST
refpci = -14.646159980219  #TEST
refpostdiag = -14.646164857383  #TEST

molecule li2{
   Li
   Li 1 2.0000
}

set {
  basis sto-3g
  scf_type pk
  e_convergence 12
}

set forte {
  job_type pci_hashvec
  PCI_GENERATOR WALL-CHEBYSHEV
  pci_spawning_threshold 0.0001
  pci_post_diagonalize true
  DIAG_ALGORITHM DLSOLVER
  pci_e_convergence 12
  PCI_STOP_HIGHER_NEW_LOW true
}
energy('scf')
compare_values(refscf, get_variable("CURRENT ENERGY"), 11, "SCF energy") #TEST

energy('forte')
compare_values(refpci, get_variable("PCI ENERGY"), 11, "PCI energy") #TEST
compare_values(refpostdiag, get_variable("PCI POST DIAG ENERGY"), 10, "PCI POST DIAG ENERGY") #TEST

--------------------------------------------------------------------------

*** tstart() called on jeffschriber
*** at Thu Oct 25 16:16:24 2018

   => Loading Basis Set <=

    Name: STO-3G
    Role: ORBITAL
    Keyword: BASIS
    atoms 1-2 entry LI         line    31 file /Users/jeffschriber/src/psi4-debug-install/share/psi4/basis/sto-3g.gbs 


         ---------------------------------------------------------
                                   SCF
            by Justin Turney, Rob Parrish, Andy Simmonett
                             and Daniel Smith
                              RHF Reference
                        1 Threads,    500 MiB Core
         ---------------------------------------------------------

  ==> Geometry <==

    Molecular point group: d2h
    Full point group: D_inf_h

    Geometry (in Angstrom), charge = 0, multiplicity = 1:

       Center              X                  Y                   Z               Mass       
    ------------   -----------------  -----------------  -----------------  -----------------
         LI           0.000000000000     0.000000000000    -1.000000000000     7.016004548000
         LI           0.000000000000     0.000000000000     1.000000000000     7.016004548000

  Running in d2h symmetry.

  Rotational constants: A = ************  B =      1.20137  C =      1.20137 [cm^-1]
  Rotational constants: A = ************  B =  36016.15459  C =  36016.15459 [MHz]
  Nuclear repulsion =    2.381297448014999

  Charge       = 0
  Multiplicity = 1
  Electrons    = 6
  Nalpha       = 3
  Nbeta        = 3

  ==> Algorithm <==

  SCF Algorithm Type is PK.
  DIIS enabled.
  MOM disabled.
  Fractional occupation disabled.
  Guess Type is SAD.
  Energy threshold   = 1.00e-12
  Density threshold  = 1.00e-06
  Integral threshold = 0.00e+00

  ==> Primary Basis <==

  Basis Set: STO-3G
    Blend: STO-3G
    Number of shells: 6
    Number of basis function: 10
    Number of Cartesian functions: 10
    Spherical Harmonics?: true
    Max angular momentum: 1

  ==> Pre-Iterations <==

   -------------------------------------------------------
    Irrep   Nso     Nmo     Nalpha   Nbeta   Ndocc  Nsocc
   -------------------------------------------------------
     Ag         3       3       0       0       0       0
     B1g        0       0       0       0       0       0
     B2g        1       1       0       0       0       0
     B3g        1       1       0       0       0       0
     Au         0       0       0       0       0       0
     B1u        3       3       0       0       0       0
     B2u        1       1       0       0       0       0
     B3u        1       1       0       0       0       0
   -------------------------------------------------------
    Total      10      10       3       3       3       0
   -------------------------------------------------------

  ==> Integral Setup <==

  Using in-core PK algorithm.
   Calculation information:
      Number of atoms:                   2
      Number of AO shells:               6
      Number of primitives:             18
      Number of atomic orbitals:        10
      Number of basis functions:        10

      Integral cutoff                 1.00e-12
      Number of threads:                 1

  Performing in-core PK
  Using 3080 doubles for integral storage.
  We computed 231 shell quartets total.
  Whereas there are 231 unique shell quartets.

  ==> DiskJK: Disk-Based J/K Matrices <==

    J tasked:                  Yes
    K tasked:                  Yes
    wK tasked:                  No
    Memory [MiB]:              375
    Schwarz Cutoff:          1E-12

    OpenMP threads:              1

  Minimum eigenvalue in the overlap matrix is 4.0289192732E-02.
  Using Symmetric Orthogonalization.

  SCF Guess: Superposition of Atomic Densities via on-the-fly atomic UHF.

  ==> Iterations <==

                        Total Energy        Delta E     RMS |[F,P]|

   @RHF iter   0:   -14.58573852679840   -1.45857e+01   6.38128e-02 
   @RHF iter   1:   -14.60879129707151   -2.30528e-02   3.90853e-03 
   @RHF iter   2:   -14.60956780353629   -7.76506e-04   1.49380e-03 DIIS
   @RHF iter   3:   -14.60974068441565   -1.72881e-04   2.15662e-04 DIIS
   @RHF iter   4:   -14.60974473615713   -4.05174e-06   4.32612e-06 DIIS
   @RHF iter   5:   -14.60974473808782   -1.93069e-09   1.41353e-07 DIIS
   @RHF iter   6:   -14.60974473808995   -2.12985e-12   3.63226e-09 DIIS
   @RHF iter   7:   -14.60974473808995    0.00000e+00   1.73383e-11 DIIS
  Energy converged.


  ==> Post-Iterations <==

    Orbital Energies [Eh]
    ---------------------

    Doubly Occupied:                                                      

       1Ag    -2.340313     1B1u   -2.335347     2Ag    -0.163839  

    Virtual:                                                              

       2B1u    0.093646     1B2u    0.108933     1B3u    0.108933  
       3Ag     0.176245     1B2g    0.275579     1B3g    0.275579  
       3B1u    0.645556  

    Final Occupation by Irrep:
             Ag   B1g   B2g   B3g    Au   B1u   B2u   B3u 
    DOCC [     2,    0,    0,    0,    0,    1,    0,    0 ]

  @RHF Final Energy:   -14.60974473808995

   => Energetics <=

    Nuclear Repulsion Energy =              2.3812974480149989
    One-Electron Energy =                 -24.3030864655733545
    Two-Electron Energy =                   7.3120442794684015
    Total Energy =                        -14.6097447380899546

Computation Completed


Properties will be evaluated at   0.000000,   0.000000,   0.000000 [a0]

Properties computed using the SCF density matrix

  Nuclear Dipole Moment: [e a0]
     X:     0.0000      Y:     0.0000      Z:     0.0000

  Electronic Dipole Moment: [e a0]
     X:     0.0000      Y:     0.0000      Z:     0.0000

  Dipole Moment: [e a0]
     X:     0.0000      Y:     0.0000      Z:     0.0000     Total:     0.0000

  Dipole Moment: [D]
     X:     0.0000      Y:     0.0000      Z:     0.0000     Total:     0.0000


*** tstop() called on jeffschriber at Thu Oct 25 16:16:25 2018
Module time:
	user time   =       0.35 seconds =       0.01 minutes
	system time =       0.02 seconds =       0.00 minutes
	total time  =          1 seconds =       0.02 minutes
Total time:
	user time   =       0.35 seconds =       0.01 minutes
	system time =       0.02 seconds =       0.00 minutes
	total time  =          1 seconds =       0.02 minutes
	SCF energy........................................................PASSED

*** tstart() called on jeffschriber
*** at Thu Oct 25 16:16:25 2018

   => Loading Basis Set <=

    Name: STO-3G
    Role: ORBITAL
    Keyword: BASIS
    atoms 1-2 entry LI         line    31 file /Users/jeffschriber/src/psi4-debug-install/share/psi4/basis/sto-3g.gbs 


         ---------------------------------------------------------
                                   SCF
            by Justin Turney, Rob Parrish, Andy Simmonett
                             and Daniel Smith
                              RHF Reference
                        1 Threads,    500 MiB Core
         ---------------------------------------------------------

  ==> Geometry <==

    Molecular point group: d2h
    Full point group: D_inf_h

    Geometry (in Angstrom), charge = 0, multiplicity = 1:

       Center              X                  Y                   Z               Mass       
    ------------   -----------------  -----------------  -----------------  -----------------
         LI           0.000000000000     0.000000000000    -1.000000000000     7.016004548000
         LI           0.000000000000     0.000000000000     1.000000000000     7.016004548000

  Running in d2h symmetry.

  Rotational constants: A = ************  B =      1.20137  C =      1.20137 [cm^-1]
  Rotational constants: A = ************  B =  36016.15459  C =  36016.15459 [MHz]
  Nuclear repulsion =    2.381297448014999

  Charge       = 0
  Multiplicity = 1
  Electrons    = 6
  Nalpha       = 3
  Nbeta        = 3

  ==> Algorithm <==

  SCF Algorithm Type is PK.
  DIIS enabled.
  MOM disabled.
  Fractional occupation disabled.
  Guess Type is SAD.
  Energy threshold   = 1.00e-12
  Density threshold  = 1.00e-08
  Integral threshold = 0.00e+00

  ==> Primary Basis <==

  Basis Set: STO-3G
    Blend: STO-3G
    Number of shells: 6
    Number of basis function: 10
    Number of Cartesian functions: 10
    Spherical Harmonics?: true
    Max angular momentum: 1

  ==> Pre-Iterations <==

   -------------------------------------------------------
    Irrep   Nso     Nmo     Nalpha   Nbeta   Ndocc  Nsocc
   -------------------------------------------------------
     Ag         3       3       0       0       0       0
     B1g        0       0       0       0       0       0
     B2g        1       1       0       0       0       0
     B3g        1       1       0       0       0       0
     Au         0       0       0       0       0       0
     B1u        3       3       0       0       0       0
     B2u        1       1       0       0       0       0
     B3u        1       1       0       0       0       0
   -------------------------------------------------------
    Total      10      10       3       3       3       0
   -------------------------------------------------------

  ==> Integral Setup <==

  Using in-core PK algorithm.
   Calculation information:
      Number of atoms:                   2
      Number of AO shells:               6
      Number of primitives:             18
      Number of atomic orbitals:        10
      Number of basis functions:        10

      Integral cutoff                 1.00e-12
      Number of threads:                 1

  Performing in-core PK
  Using 3080 doubles for integral storage.
  We computed 231 shell quartets total.
  Whereas there are 231 unique shell quartets.

  ==> DiskJK: Disk-Based J/K Matrices <==

    J tasked:                  Yes
    K tasked:                  Yes
    wK tasked:                  No
    Memory [MiB]:              375
    Schwarz Cutoff:          1E-12

    OpenMP threads:              1

  Minimum eigenvalue in the overlap matrix is 4.0289192732E-02.
  Using Symmetric Orthogonalization.

  SCF Guess: Superposition of Atomic Densities via on-the-fly atomic UHF.

  ==> Iterations <==

                        Total Energy        Delta E     RMS |[F,P]|

   @RHF iter   0:   -14.58573852679840   -1.45857e+01   6.38128e-02 
   @RHF iter   1:   -14.60879129707151   -2.30528e-02   3.90853e-03 
   @RHF iter   2:   -14.60956780353629   -7.76506e-04   1.49380e-03 DIIS
   @RHF iter   3:   -14.60974068441564   -1.72881e-04   2.15662e-04 DIIS
   @RHF iter   4:   -14.60974473615713   -4.05174e-06   4.32612e-06 DIIS
   @RHF iter   5:   -14.60974473808782   -1.93069e-09   1.41353e-07 DIIS
   @RHF iter   6:   -14.60974473808996   -2.13340e-12   3.63226e-09 DIIS
   @RHF iter   7:   -14.60974473808996   -1.77636e-15   1.73383e-11 DIIS
  Energy converged.


  ==> Post-Iterations <==

    Orbital Energies [Eh]
    ---------------------

    Doubly Occupied:                                                      

       1Ag    -2.340313     1B1u   -2.335347     2Ag    -0.163839  

    Virtual:                                                              

       2B1u    0.093646     1B2u    0.108933     1B3u    0.108933  
       3Ag     0.176245     1B2g    0.275579     1B3g    0.275579  
       3B1u    0.645556  

    Final Occupation by Irrep:
             Ag   B1g   B2g   B3g    Au   B1u   B2u   B3u 
    DOCC [     2,    0,    0,    0,    0,    1,    0,    0 ]

  @RHF Final Energy:   -14.60974473808996

   => Energetics <=

    Nuclear Repulsion Energy =              2.3812974480149989
    One-Electron Energy =                 -24.3030864655733509
    Two-Electron Energy =                   7.3120442794683944
    Total Energy =                        -14.6097447380899581

Computation Completed


Properties will be evaluated at   0.000000,   0.000000,   0.000000 [a0]

Properties computed using the SCF density matrix

  Nuclear Dipole Moment: [e a0]
     X:     0.0000      Y:     0.0000      Z:     0.0000

  Electronic Dipole Moment: [e a0]
     X:     0.0000      Y:     0.0000      Z:     0.0000

  Dipole Moment: [e a0]
     X:     0.0000      Y:     0.0000      Z:     0.0000     Total:     0.0000

  Dipole Moment: [D]
     X:     0.0000      Y:     0.0000      Z:     0.0000     Total:     0.0000


*** tstop() called on jeffschriber at Thu Oct 25 16:16:25 2018
Module time:
	user time   =       0.34 seconds =       0.01 minutes
	system time =       0.02 seconds =       0.00 minutes
	total time  =          0 seconds =       0.00 minutes
Total time:
	user time   =       0.70 seconds =       0.01 minutes
	system time =       0.04 seconds =       0.00 minutes
	total time  =          1 seconds =       0.02 minutes
   => Loading Basis Set <=

    Name: STO-3G
    Role: ORBITAL
    Keyword: MINAO_BASIS
    atoms 1-2 entry LI         line    31 file /Users/jeffschriber/src/psi4-debug-install/share/psi4/basis/sto-3g.gbs 


Reading options from the FORTE block
Calling plugin forte.so.



  Forte
  ----------------------------------------------------------------------------
  A suite of quantum chemistry methods for strongly correlated electrons

    git branch: master - git commit: 9480afcf

  Developed by:
    Francesco A. Evangelista, Chenyang Li, Kevin P. Hannon,
    Jeffrey B. Schriber, Tianyuan Zhang, Chenxi Cai
  ----------------------------------------------------------------------------

  Size of Determinant class: 16

  ==> MO Space Information <==

  -------------------------------------------------------------------------
                       Ag   B1g   B2g   B3g    Au   B1u   B2u   B3u   Sum
  -------------------------------------------------------------------------
    FROZEN_DOCC         0     0     0     0     0     0     0     0     0
    RESTRICTED_DOCC     0     0     0     0     0     0     0     0     0
    ACTIVE              3     0     1     1     0     3     1     1    10
    RESTRICTED_UOCC     0     0     0     0     0     0     0     0     0
    FROZEN_UOCC         0     0     0     0     0     0     0     0     0
    Total               3     0     1     1     0     3     1     1    10
  -------------------------------------------------------------------------

  ==> Integral Transformation <==

  Number of molecular orbitals:                    10
  Number of correlated molecular orbitals:         10
  Number of frozen occupied orbitals:               0
  Number of frozen unoccupied orbitals:             0
  Two-electron integral type:              Conventional


  Overall Conventional Integrals timings

	Presorting SO-basis two-electron integrals.
	Sorting File: SO Ints (nn|nn) nbuckets = 1
	Transforming the one-electron integrals and constructing Fock matrices
	Starting first half-transformation.
	Sorting half-transformed integrals.
	First half integral transformation complete.
	Starting second half-transformation.
	Two-electron integral transformation complete.

  Integral transformation done. 0.00804208 s
  Reading the two-electron integrals from disk
  Size of two-electron integrals:   0.000224 GB
  Timing for freezing core and virtual orbitals:              0.000 s.
  Conventional integrals take 0.03705648 s
  Number of active alpha electrons: 3
  Number of active beta electrons: 3
  Maximum reference space size: 1000
  |2200020000>

	  ---------------------------------------------------------
	    Projector Configuration Interaction HashVector implementation
	         by Francesco A. Evangelista and Tianyuan Zhang
	                      version Jul. 28 2017
	                       1 thread(s) (OMP)
	  ---------------------------------------------------------

  ==> Calculation Information <==

    Symmetry                                         0
    Multiplicity                                     1
    Number of roots                                  1
    Root used for properties                         0
    Maximum number of iterations                  1000
    Energy estimation frequency                      1
    Number of threads                                1
    Time step (beta)                         1.000e+00
    Spawning threshold                       1.000e-04
    Initial guess spawning threshold         1.000e-03
    Convergence threshold                    1.000e-12
    Energy estimate tollerance               1.000e-06
    Generator type                          Wall-Chebyshev
    Shift the energy                                NO
    Use intermediate normalization                  NO
    Fast variational estimate                       NO
    Result perturbation analysis                    NO
    Using OpenMP                                   YES

  ==> Initial Guess <==     -14.609744738090 -1.461e+01

  Initial guess size = 86
  Spin multiplicity of root 78 not close to integer (4.1231)
  Spin multiplicity of root 79 not close to integer (4.1231)
  Spin multiplicity of root 80 not close to integer (4.1231)
  Found 45 roots with 2S+1 = 1 *
  Found 33 roots with 2S+1 = 3
  Found 5 roots with 2S+1 = 5

  Initial guess energy (variational) =     -14.645947472327 Eh (root = 1)

  Most important contributions to the wave function:

    0         0.9337      0.871796           0 |2200020000000000000000000000000000000000000000000000000000000000>    -16.991042186105
    1      -0.231508     0.0535959           1 |2000020002000000000000000000000000000000000000000000000000000000>    -16.844531944287
    2      -0.231508     0.0535959           2 |2000020020000000000000000000000000000000000000000000000000000000>    -16.844531944287
    3      -0.113963     0.0129877           3 |2000022000000000000000000000000000000000000000000000000000000000>    -16.780684423917
    4     -0.0799895    0.00639832           4 |2020020000000000000000000000000000000000000000000000000000000000>    -16.722588679069
    5     -0.0250221   0.000626107           5 |200002+-00000000000000000000000000000000000000000000000000000000>    -16.358845134715
    6     -0.0250221   0.000626107           6 |200002-+00000000000000000000000000000000000000000000000000000000>    -16.358845134715
    7    -0.00824472   6.79755e-05           7 |2000020200000000000000000000000000000000000000000000000000000000>    -15.877818677698
    8     0.00468421   2.19418e-05           8 |2000220000000000000000000000000000000000000000000000000000000000>    -16.542435848077
    9     0.00468421   2.19418e-05           9 |2002020000000000000000000000000000000000000000000000000000000000>    -16.542435848077

  Spin State: S^2 = 0.000, S = 0.000, singlet (from 3 determinants,97.90)

  ==> Estimate highest excitation energy <==
  Highest Excited determinant:
  |0002200200000000000000000000000000000000000000000000000000000000>
  Determinant Energy                    :  -2.581264114651
  Highest Energy Gershgorin circle Est. :  -0.994024721782

  ==> Characteristic Function <==
    f(x) = -2.159389e-03 * x^5 +7.369952e-03 * x^4 +1.006140e-01 * x^3 -2.575453e-01 * x^2 -8.789971e-01 * x +1.000000e+00
    with tau = 1.000000e+00, shift = -10.201283545070, range = 6.825961375272
    Initial guess: lambda_1= -14.645947472327
    Est. Highest eigenvalue= -0.994024721782

  ==> PCI Iterations <==

  --------------------------------------------------------------------------------------------------------------
    Steps  Beta/Eh      Ndets      NoffDiag     Proj. Energy/Eh     dEp/dt      Approx. Energy/Eh   dEv/dt
  --------------------------------------------------------------------------------------------------------------
        0     0.00        418          2080     -14.646016995171 -6.952e-05     -14.646110589663 -1.504e-04
        1     1.00        418          2224     -14.646055272764 -3.828e-05     -14.646128926207 -1.834e-05
        2     2.00        418          2212     -14.646085702581 -3.043e-05     -14.646137973117 -9.047e-06
        3     3.00        418          2244     -14.646106558365 -2.086e-05     -14.646144891535 -6.918e-06
        4     4.00        418          2244     -14.646123999950 -1.744e-05     -14.646150875876 -5.984e-06
        5     5.00        418          2300     -14.646136192672 -1.219e-05     -14.646155582103 -4.706e-06
        6     6.00        418          2308     -14.646146323659 -1.013e-05     -14.646152867083  2.715e-06
        7     7.00        418          2332     -14.646161463830 -1.514e-05     -14.646154751808 -1.885e-06
        8     8.00        418          2312     -14.646167141707 -5.678e-06     -14.646154608936  1.429e-07
        9     9.00        418          2328     -14.646166358033  7.837e-07
  --------------------------------------------------------------------------------------------------------------

  Calculation stoped in appearance of higher new low.

  ==> Post-Iterations <==

  * Size of CI space                    = 418
  * Number of off-diagonal elements     = 2328
  * Projector-CI Approximate Energy     =   -14.646154608936 Eh
  * Projector-CI Projective  Energy     =   -14.646166358033 Eh

  Most important contributions to the wave function:

    0       0.933172       0.87081           0 |2200020000000000000000000000000000000000000000000000000000000000>    -16.991042186105
    1      -0.230853     0.0532929           1 |2000020002000000000000000000000000000000000000000000000000000000>    -16.844531944287
    2      -0.230853     0.0532929           2 |2000020020000000000000000000000000000000000000000000000000000000>    -16.844531944287
    3      -0.119017      0.014165           3 |2000022000000000000000000000000000000000000000000000000000000000>    -16.780684423917
    4     -0.0804935    0.00647921           4 |2020020000000000000000000000000000000000000000000000000000000000>    -16.722588679069
    5     -0.0245861   0.000604474           5 |200002+-00000000000000000000000000000000000000000000000000000000>    -16.358845134715
    6     -0.0245861   0.000604474           6 |200002-+00000000000000000000000000000000000000000000000000000000>    -16.358845134715
    7     -0.0131812   0.000173745           7 |2-+0020000000000000000000000000000000000000000000000000000000000>    -16.872775657949
    8     -0.0131812   0.000173745           8 |2+-0020000000000000000000000000000000000000000000000000000000000>    -16.872775657949
    9    -0.00782457    6.1224e-05           9 |2000020200000000000000000000000000000000000000000000000000000000>    -15.877818677698

  Spin State: S^2 = 0.000, S = 0.000, singlet (from 3 determinants,97.74)
  Projector-CI (bitset) steps finished in  : 0.040649 s

  Variational energy estimated with 418 determinants to meet the max error 0.000000e+00

  ==> Computing Coupling Lists <==
  --------------------------------
        α          0.001499 s
        β          0.001481 s
        αα         0.001394 s
        ββ         0.001342 s
        αβ         0.003184 s
  --------------------------------
  * Projector-CI Variational Energy     =   -14.646159980219 Eh
  * Projector-CI Var. Corr.  Energy     =    -0.036415242129 Eh
  * 1st order perturbation   Energy     =    -0.000005371283 Eh

  Projector-CI (bitset) ran in  : 0.051655 s

  ==> Post-Diagonalization <==


  ==> Computing Coupling Lists <==
  --------------------------------
        α          0.001466 s
        β          0.001471 s
        αα         0.001293 s
        ββ         0.001391 s
        αβ         0.003131 s
  --------------------------------

  Davidson-Liu solver algorithm
  Using SPARSE sigma builder
  Initial guess space is incomplete!
  Trying to add 40 determinant(s).  34 determinant(s) added.
  Found a guess vector with spin not close to integer value (4.123106)
  Found a guess vector with spin not close to integer value (4.123106)
  Found a guess vector with spin not close to integer value (4.123106)
  Initial guess found 99 solutions with 2S+1 = 1 *
  Initial guess found 109 solutions with 2S+1 = 3  
  Initial guess found 23 solutions with 2S+1 = 5  
  Adding guess 0 (multiplicity = 1.000000)
  Adding guess 1 (multiplicity = 1.000000)

  ==> Diagonalizing Hamiltonian <==

  ----------------------------------------
    Iter.      Avg. Energy       Delta_E
  ----------------------------------------
      1      -17.027304404122  -1.703e+01
      2      -17.027461280057  -1.569e-04
      3      -17.027462276079  -9.960e-07
      4      -17.027462300675  -2.460e-08
      5      -17.027462305276  -4.600e-09
      6      -17.027462305393  -1.167e-10
      7      -17.027462305397  -4.661e-12
      8      -17.027462305398  -6.111e-13
  ----------------------------------------
  The Davidson-Liu algorithm converged in 9 iterations.
  Davidson-Liu procedure took  0.086814 s

  * Projector-CI Post-diag   Energy     =   -14.646164857383 Eh
  * Projector-CI Var. Corr.  Energy     =    -0.036420119293 Eh

  Most important contributions to the wave function:

    0       0.933175      0.870815           0 |2200020000000000000000000000000000000000000000000000000000000000>    -16.991042186105
    1      -0.230295     0.0530357           1 |2000020002000000000000000000000000000000000000000000000000000000>    -16.844531944287
    2      -0.230295     0.0530357           2 |2000020020000000000000000000000000000000000000000000000000000000>    -16.844531944287
    3      -0.120735     0.0145769           3 |2000022000000000000000000000000000000000000000000000000000000000>    -16.780684423917
    4     -0.0804025    0.00646457           4 |2020020000000000000000000000000000000000000000000000000000000000>    -16.722588679069
    5     -0.0245972   0.000605021           5 |200002-+00000000000000000000000000000000000000000000000000000000>    -16.358845134715
    6     -0.0245972   0.000605021           6 |200002+-00000000000000000000000000000000000000000000000000000000>    -16.358845134715
    7     -0.0150823   0.000227477           7 |2+-0020000000000000000000000000000000000000000000000000000000000>    -16.872775657949
    8     -0.0150823   0.000227477           8 |2-+0020000000000000000000000000000000000000000000000000000000000>    -16.872775657949
    9    -0.00775819   6.01895e-05           9 |2000020200000000000000000000000000000000000000000000000000000000>    -15.877818677698

  Spin State: S^2 = 0.000, S = 0.000, singlet (from 3 determinants,97.69)	PCI energy........................................................PASSED
	PCI POST DIAG ENERGY..............................................PASSED

    Psi4 stopped on: Thursday, 25 October 2018 04:16PM
    Psi4 wall time for execution: 0:00:01.09

*** Psi4 exiting successfully. Buy a developer a beer!
