
    -----------------------------------------------------------------------
          Psi4: An Open-Source Ab Initio Electronic Structure Package
                               Psi4 1.8a1.dev65 

                         Git: Rev {socints} 64c9b12 dirty


    D. G. A. Smith, L. A. Burns, A. C. Simmonett, R. M. Parrish,
    M. C. Schieber, R. Galvelis, P. Kraus, H. Kruse, R. Di Remigio,
    A. Alenaizan, A. M. James, S. Lehtola, J. P. Misiewicz, M. Scheurer,
    R. A. Shaw, J. B. Schriber, Y. Xie, Z. L. Glick, D. A. Sirianni,
    J. S. O'Brien, J. M. Waldrop, A. Kumar, E. G. Hohenstein,
    B. P. Pritchard, B. R. Brooks, H. F. Schaefer III, A. Yu. Sokolov,
    K. Patkowski, A. E. DePrince III, U. Bozkaya, R. A. King,
    F. A. Evangelista, J. M. Turney, T. D. Crawford, C. D. Sherrill,
    J. Chem. Phys. 152(18) 184108 (2020). https://doi.org/10.1063/5.0006002

                            Additional Code Authors
    E. T. Seidl, C. L. Janssen, E. F. Valeev, M. L. Leininger,
    J. F. Gonthier, R. M. Richard, H. R. McAlexander, M. Saitow, X. Wang,
    P. Verma, M. H. Lechner, A. Jiang, S. Behnle, A. G. Heide,
    M. F. Herbst, and D. L. Poole

             Previous Authors, Complete List of Code Contributors,
                       and Citations for Specific Modules
    https://github.com/psi4/psi4/blob/master/codemeta.json
    https://github.com/psi4/psi4/graphs/contributors
    http://psicode.org/psi4manual/master/introduction.html#citing-psifour

    -----------------------------------------------------------------------


    Psi4 started on: Saturday, 13 May 2023 05:35PM

    Process ID: 17617
    Host:       CHE-FEVANGE-01i
    PSIDATADIR: /Users/fevange/Source/psi4/objdir-Release/stage/share/psi4
    Memory:     500.0 MiB
    Threads:    1
    
  ==> Input File <==

--------------------------------------------------------------------------
# Test FCI on differnt spin Ms values for doublet CH and triplet CH+

import forte

refscf = -37.43945401822133
reffci = -37.49081328115731

molecule {
0 2
C
H 1 1.0
units bohr
}

set {
  basis 6-31G
  scf_type pk
  reference rohf
  e_convergence 12
  docc [3,0,0,0]
  socc [0,0,1,0]
}

Escf_doublet, wfn0 = energy('scf', return_wfn=True)
compare_values(refscf, variable("CURRENT ENERGY"), 11, "SCF energy on doublet Pi of CH")

set forte {
  active_space_solver fci
  root_sym 2
  ms 0.5
  ci_spin_adapt true
}

energy('forte', ref_wfn=wfn0)
compare_values(reffci, variable("CURRENT ENERGY"), 11, "FCI energy (M_S =  1/2)")

set forte {
  active_space_solver fci
  root_sym 2
  ms -0.5
  ci_spin_adapt true
}

energy('forte', ref_wfn=wfn0)
compare_values(reffci, variable("CURRENT ENERGY"), 11, "FCI energy (M_S = -1/2)")

clean()

# Test triplet manifold of CH+

refscf_triplet = -37.066693498042760
reffci_triplet = -37.088876452204509

molecule {
1 3
C
H 1 1.0
units bohr
}

set {
  basis 6-31G
  scf_type pk
  reference rohf
  e_convergence 12
  docc [2,0,0,0]
  socc [1,0,1,0]
}

scf_triplet = energy('scf')
compare_values(refscf_triplet, variable("CURRENT ENERGY"),11, "SCF energy") #TEST

set forte {
  active_space_solver fci
  root_sym 3
  ms 1.0
  ci_spin_adapt true
}

Escf_triplet, wfn1 = energy('scf', return_wfn=True)
compare_values(refscf_triplet, variable("CURRENT ENERGY"), 11, "SCF energy on triplet Pi of CH+")

set forte {
  active_space_solver fci
  root_sym 3
  ms 1.0
  ci_spin_adapt true
}

energy('forte', ref_wfn=wfn1)
compare_values(reffci_triplet, variable("CURRENT ENERGY"), 11, "FCI energy (M_S =  1)")

set forte ms 0.0
energy('forte', ref_wfn=wfn1)
compare_values(reffci_triplet, variable("CURRENT ENERGY"), 11, "FCI energy (M_S =  0)")

set forte ms -1.0
energy('forte', ref_wfn=wfn1)
compare_values(reffci_triplet, variable("CURRENT ENERGY"), 11, "FCI energy (M_S = -1)")
--------------------------------------------------------------------------

Scratch directory: /tmp/

*** tstart() called on CHE-FEVANGE-01i
*** at Sat May 13 17:35:53 2023

   => Loading Basis Set <=

    Name: 6-31G
    Role: ORBITAL
    Keyword: BASIS
    atoms 1 entry C          line    87 file /Users/fevange/Source/psi4/objdir-Release/stage/share/psi4/basis/6-31g.gbs 
    atoms 2 entry H          line    26 file /Users/fevange/Source/psi4/objdir-Release/stage/share/psi4/basis/6-31g.gbs 


         ---------------------------------------------------------
                                   SCF
               by Justin Turney, Rob Parrish, Andy Simmonett
                          and Daniel G. A. Smith
                             ROHF Reference
                        1 Threads,    500 MiB Core
         ---------------------------------------------------------

  ==> Geometry <==

    Molecular point group: c2v
    Full point group: C_inf_v

    Geometry (in Bohr), charge = 0, multiplicity = 2:

       Center              X                  Y                   Z               Mass       
    ------------   -----------------  -----------------  -----------------  -----------------
         C            0.000000000000     0.000000000000    -0.077478366271    12.000000000000
         H            0.000000000000     0.000000000000     0.922521633729     1.007825032230

  Running in c2v symmetry.

  Rotational constants: A = ************  B =     64.74892  C =     64.74892 [cm^-1]
  Rotational constants: A = ************  B = 1941123.79451  C = 1941123.79451 [MHz]
  Nuclear repulsion =    6.000000000000000

  Charge       = 0
  Multiplicity = 2
  Electrons    = 7
  Nalpha       = 4
  Nbeta        = 3

  ==> Algorithm <==

  SCF Algorithm Type is PK.
  DIIS enabled.
  MOM disabled.
  Fractional occupation disabled.
  Guess Type is SAD.
  Energy threshold   = 1.00e-12
  Density threshold  = 1.00e-06
  Integral threshold = 1.00e-12

  ==> Primary Basis <==

  Basis Set: 6-31G
    Blend: 6-31G
    Number of shells: 7
    Number of basis functions: 11
    Number of Cartesian functions: 11
    Spherical Harmonics?: false
    Max angular momentum: 1

  ==> Integral Setup <==

  Using in-core PK algorithm.
   Calculation information:
      Number of atoms:                   2
      Number of AO shells:               7
      Number of primitives:             18
      Number of atomic orbitals:        11
      Number of basis functions:        11

      Integral cutoff                 1.00e-12
      Number of threads:                 1

  Performing in-core PK
  Using 4422 doubles for integral storage.
  We computed 406 shell quartets total.
  Whereas there are 406 unique shell quartets.

  ==> DiskJK: Disk-Based J/K Matrices <==

    J tasked:                  Yes
    K tasked:                  Yes
    wK tasked:                  No
    Memory [MiB]:              375
    Schwarz Cutoff:          1E-12

    OpenMP threads:              1

  Minimum eigenvalue in the overlap matrix is 4.5543576797E-03.
  Reciprocal condition number of the overlap matrix is 1.3315227887E-03.
    Using symmetric orthogonalization.

  ==> Pre-Iterations <==

  SCF Guess: Superposition of Atomic Densities via on-the-fly atomic UHF (no occupation information).

   -------------------------
    Irrep   Nso     Nmo    
   -------------------------
     A1         7       7 
     A2         0       0 
     B1         2       2 
     B2         2       2 
   -------------------------
    Total      11      11
   -------------------------

  ==> Iterations <==

                        Total Energy        Delta E     RMS |[F,P]|

   @ROHF iter SAD:   -36.98148744987406   -3.69815e+01   0.00000e+00 
   @ROHF iter   1:   -37.43252415627414   -4.51037e-01   8.83892e-03 DIIS
   @ROHF iter   2:   -37.43901895678265   -6.49480e-03   2.11482e-03 DIIS
   @ROHF iter   3:   -37.43944391493785   -4.24958e-04   2.98765e-04 DIIS
   @ROHF iter   4:   -37.43945379284671   -9.87791e-06   3.47889e-05 DIIS
   @ROHF iter   5:   -37.43945401128813   -2.18441e-07   6.01997e-06 DIIS
   @ROHF iter   6:   -37.43945401811901   -6.83088e-09   8.01990e-07 DIIS
   @ROHF iter   7:   -37.43945401821970   -1.00691e-10   1.18239e-07 DIIS
   @ROHF iter   8:   -37.43945401822138   -1.68399e-12   1.25252e-08 DIIS
   @ROHF iter   9:   -37.43945401822139   -7.10543e-15   1.11589e-09 DIIS
  Energy and wave function converged.


  ==> Post-Iterations <==

    Orbital Energies [Eh]
    ---------------------

    Doubly Occupied:                                                      

       1A1   -11.331732     2A1    -1.059599     3A1    -0.454646  

    Singly Occupied:                                                      

       1B1    -0.123607  

    Virtual:                                                              

       1B2     0.073825     4A1     0.329398     5A1     0.647687  
       2B1     0.758697     2B2     0.789443     6A1     0.944490  
       7A1     2.733141  

    Final Occupation by Irrep:
             A1    A2    B1    B2 
    DOCC [     3,    0,    0,    0 ]
    SOCC [     0,    0,    1,    0 ]
    NA   [     3,    0,    1,    0 ]
    NB   [     3,    0,    0,    0 ]

  @ROHF Final Energy:   -37.43945401822139

   => Energetics <=

    Nuclear Repulsion Energy =              6.0000000000000000
    One-Electron Energy =                 -60.7660729641208306
    Two-Electron Energy =                  17.3266189458994404
    Total Energy =                        -37.4394540182213902

Computation Completed


Properties will be evaluated at   0.000000,   0.000000,   0.000000 [a0]

Properties computed using the SCF density matrix


 Multipole Moments:

 ------------------------------------------------------------------------------------
     Multipole            Electronic (a.u.)      Nuclear  (a.u.)        Total (a.u.)
 ------------------------------------------------------------------------------------

 L = 1.  Multiply by 2.5417464519 to convert [e a0] to [Debye]
 Dipole X            :          0.0000000            0.0000000            0.0000000
 Dipole Y            :          0.0000000            0.0000000            0.0000000
 Dipole Z            :          0.3948386            0.4576514            0.8524901
 Magnitude           :                                                    0.8524901

 ------------------------------------------------------------------------------------

*** tstop() called on CHE-FEVANGE-01i at Sat May 13 17:35:53 2023
Module time:
	user time   =       0.06 seconds =       0.00 minutes
	system time =       0.01 seconds =       0.00 minutes
	total time  =          0 seconds =       0.00 minutes
Total time:
	user time   =       0.06 seconds =       0.00 minutes
	system time =       0.01 seconds =       0.00 minutes
	total time  =          0 seconds =       0.00 minutes
    SCF energy on doublet Pi of CH........................................................PASSED

Scratch directory: /tmp/

  Forte
  ----------------------------------------------------------------------------
  A suite of quantum chemistry methods for strongly correlated electrons

    git branch: saci - git commit: 3419a366

  Developed by:
    Francesco A. Evangelista, Chenyang Li, Kevin P. Hannon,
    Jeffrey B. Schriber, Tianyuan Zhang, Chenxi Cai,
    Nan He, Nicholas Stair, Shuhe Wang, Renke Huang
  ----------------------------------------------------------------------------

  Size of Determinant class: 256 bits

  Preparing forte objects from a Psi4 Wavefunction object

  ==> MO Space Information <==

  -------------------------------------------------
                       A1    A2    B1    B2   Sum
  -------------------------------------------------
    FROZEN_DOCC         0     0     0     0     0
    RESTRICTED_DOCC     0     0     0     0     0
    GAS1                7     0     2     2    11
    GAS2                0     0     0     0     0
    GAS3                0     0     0     0     0
    GAS4                0     0     0     0     0
    GAS5                0     0     0     0     0
    GAS6                0     0     0     0     0
    RESTRICTED_UOCC     0     0     0     0     0
    FROZEN_UOCC         0     0     0     0     0
    Total               7     0     2     2    11
  -------------------------------------------------   => Loading Basis Set <=

    Name: 6-31G
    Role: ORBITAL
    Keyword: BASIS
    atoms 1 entry C          line    87 file /Users/fevange/Source/psi4/objdir-Release/stage/share/psi4/basis/6-31g.gbs 
    atoms 2 entry H          line    26 file /Users/fevange/Source/psi4/objdir-Release/stage/share/psi4/basis/6-31g.gbs 


  Checking orbital orthonormality against current geometry ... Done (OK)

   => Loading Basis Set <=

    Name: STO-3G
    Role: ORBITAL
    Keyword: MINAO_BASIS
    atoms 1 entry C          line    61 file /Users/fevange/Source/psi4/objdir-Release/stage/share/psi4/basis/sto-3g.gbs 
    atoms 2 entry H          line    19 file /Users/fevange/Source/psi4/objdir-Release/stage/share/psi4/basis/sto-3g.gbs 


  Forte will use psi4 integrals

  ==> Primary Basis Set Summary <==

  Basis Set: 6-31G
    Blend: 6-31G
    Number of shells: 7
    Number of basis functions: 11
    Number of Cartesian functions: 11
    Spherical Harmonics?: false
    Max angular momentum: 1


  JK created using conventional PK integrals
  Using in-core PK algorithm.
   Calculation information:
      Number of atoms:                   2
      Number of AO shells:               7
      Number of primitives:             18
      Number of atomic orbitals:        11
      Number of basis functions:        11

      Integral cutoff                 1.00e-12
      Number of threads:                 1

  Performing in-core PK
  Using 4422 doubles for integral storage.
  We computed 406 shell quartets total.
  Whereas there are 406 unique shell quartets.

  ==> DiskJK: Disk-Based J/K Matrices <==

    J tasked:                  Yes
    K tasked:                  Yes
    wK tasked:                  No
    Memory [MiB]:              400
    Schwarz Cutoff:          1E-12

    OpenMP threads:              1



  ==> Integral Transformation <==

  Number of molecular orbitals:                         11
  Number of correlated molecular orbitals:              11
  Number of frozen occupied orbitals:                    0
  Number of frozen unoccupied orbitals:                  0
  Two-electron integral type:                 Conventional


  Computing Conventional Integrals	Presorting SO-basis two-electron integrals.
	Sorting File: SO Ints (nn|nn) nbuckets = 1
	Constructing frozen core operators
	Starting first half-transformation.
	Sorting half-transformed integrals.
	First half integral transformation complete.
	Starting second half-transformation.
	Two-electron integral transformation complete.

  Integral transformation done. 0.00393621 s
  Reading the two-electron integrals from disk
  Size of two-electron integrals:   0.000327 GB
  Timing for conventional integral transformation:            0.008 s.
  Timing for freezing core and virtual orbitals:              0.000 s.
  Timing for computing conventional integrals:                0.008 s.

  ==> Summary of Active Space Solver Input <==

    Irrep.  Multi.(2ms)      N
    --------------------------
       B1      2  (  1)      1
    --------------------------
    N: number of roots
    ms: spin z component
    Total number of roots:   1
    --------------------------


  ==> String Lists <==

  Number of alpha electrons     = 4
  Number of beta electrons      = 3
  Number of alpha strings       = 330
  Number of beta strings        = 165
  Timing for strings        =      0.000 s
  Timing for NN strings     =      0.000 s
  Timing for VO strings     =      0.003 s
  Timing for OO strings     =      0.001 s
  Timing for VVOO strings   =      0.007 s
  Timing for 1-hole strings =      0.000 s
  Timing for 2-hole strings =      0.000 s
  Timing for 3-hole strings =      0.000 s
  Total timing              =      0.011 s

  ==> Spin Adapter <==

    Number of CSFs:                              7240
    Number of couplings:                        54616

    Timing for identifying configurations:     0.0007
    Timing for finding the CSFs:               0.0022


  ==> FCI Solver <==

    Number of determinants                       13596
    Symmetry                                         2
    Multiplicity                                     2
    Number of roots                                  1
    Target root                                      0
    Trial vectors per root                          10
    Spin adapt                                    true

  Allocating memory for the Hamiltonian algorithm. Size: 2 x 84 x 84.   Memory: 0.000105 GB

  ==> FCI Initial Guess <==

  Selected 2 CSF
  ---------------------------------------------
    CSF             Energy     <S^2>   Spin
  ---------------------------------------------
      0      -37.439454018221  0.750  doublet
     56      -37.089935659742  0.750  doublet
  ---------------------------------------------
  Timing for initial guess  =      0.000 s


  ==> Diagonalizing Hamiltonian <==

  Energy   convergence: 1.00e-12
  Residual convergence: 1.00e-06
  -----------------------------------------------------
    Iter.      Avg. Energy       Delta_E     Res. Norm
  -----------------------------------------------------
      1      -37.449347256288  -3.745e+01  +3.457e-01
      2      -37.489208774584  -3.986e-02  +7.290e-02
      3      -37.490729259131  -1.520e-03  +1.655e-02
      4      -37.490808274060  -7.901e-05  +4.208e-03
      5      -37.490812990448  -4.716e-06  +9.796e-04
      6      -37.490813262608  -2.722e-07  +2.556e-04
      7      -37.490813280286  -1.768e-08  +5.826e-05
      8      -37.490813281119  -8.330e-10  +1.236e-05
      9      -37.490813281156  -3.655e-11  +2.496e-06
     10      -37.490813281157  -1.528e-12  +6.241e-07
     11      -37.490813281158  -1.421e-13  +1.633e-07
  -----------------------------------------------------
  The Davidson-Liu algorithm converged in 12 iterations.

  ==> Root No. 0 <==

    2220000 a0 00     -0.97523941
    2200000 a0 20     -0.16235259

    Total Energy:     -37.490813281158, <S^2>: 0.750000

  ==> Energy Summary <==

    Multi.(2ms)  Irrep.  No.               Energy      <S^2>
    --------------------------------------------------------
       2  (  1)    B1     0      -37.490813281158   0.750000
    --------------------------------------------------------

  ==> Dipole Moments [e a0] (Nuclear + Electronic) for Doublet (Ms = 1/2) B1 <==


  ==> Computing RDMs for Root No. 0 <==

    Timing for 1-RDM: 0.000 s

  ==> NATURAL ORBITALS <==

        1A1     1.999916      2A1     1.990348      3A1     1.918383  
        1B1     0.995623      1B2     0.069916      4A1     0.011521  
        2B1     0.005518      5A1     0.004192      6A1     0.003508  
        2B2     0.000569      7A1     0.000507  

       State           DM_X           DM_Y           DM_Z           |DM|
    --------------------------------------------------------------------
         0B1     0.00000000     0.00000000     0.78832415     0.78832415
    --------------------------------------------------------------------
     Nuclear     0.00000000     0.00000000     0.45765144     0.45765144
    --------------------------------------------------------------------

  ==> Quadrupole Moments [e a0^2] (Nuclear + Electronic) for Doublet (Ms = 1/2) B1 <==


  ==> Computing RDMs for Root No. 0 <==

    Timing for 1-RDM: 0.000 s

  ==> NATURAL ORBITALS <==

        1A1     1.999916      2A1     1.990348      3A1     1.918383  
        1B1     0.995623      1B2     0.069916      4A1     0.011521  
        2B1     0.005518      5A1     0.004192      6A1     0.003508  
        2B2     0.000569      7A1     0.000507  

       State          QM_XX          QM_XY          QM_XZ          QM_YY          QM_YZ          QM_ZZ
    --------------------------------------------------------------------------------------------------
         0B1    -4.85527956     0.00000000     0.00000000    -3.56865865     0.00000000    -5.08729975
    --------------------------------------------------------------------------------------------------
     Nuclear     0.00000000     0.00000000     0.00000000     0.00000000     0.00000000     0.88706355
    --------------------------------------------------------------------------------------------------

  Time to prepare integrals:        0.012 seconds
  Time to run job          :        0.120 seconds
  Total                    :        0.132 seconds
    FCI energy (M_S =  1/2)...............................................................PASSED

Scratch directory: /tmp/

  Forte
  ----------------------------------------------------------------------------
  A suite of quantum chemistry methods for strongly correlated electrons

    git branch: saci - git commit: 3419a366

  Developed by:
    Francesco A. Evangelista, Chenyang Li, Kevin P. Hannon,
    Jeffrey B. Schriber, Tianyuan Zhang, Chenxi Cai,
    Nan He, Nicholas Stair, Shuhe Wang, Renke Huang
  ----------------------------------------------------------------------------

  Size of Determinant class: 256 bits

  Preparing forte objects from a Psi4 Wavefunction object

  ==> MO Space Information <==

  -------------------------------------------------
                       A1    A2    B1    B2   Sum
  -------------------------------------------------
    FROZEN_DOCC         0     0     0     0     0
    RESTRICTED_DOCC     0     0     0     0     0
    GAS1                7     0     2     2    11
    GAS2                0     0     0     0     0
    GAS3                0     0     0     0     0
    GAS4                0     0     0     0     0
    GAS5                0     0     0     0     0
    GAS6                0     0     0     0     0
    RESTRICTED_UOCC     0     0     0     0     0
    FROZEN_UOCC         0     0     0     0     0
    Total               7     0     2     2    11
  -------------------------------------------------   => Loading Basis Set <=

    Name: 6-31G
    Role: ORBITAL
    Keyword: BASIS
    atoms 1 entry C          line    87 file /Users/fevange/Source/psi4/objdir-Release/stage/share/psi4/basis/6-31g.gbs 
    atoms 2 entry H          line    26 file /Users/fevange/Source/psi4/objdir-Release/stage/share/psi4/basis/6-31g.gbs 


  Checking orbital orthonormality against current geometry ... Done (OK)

   => Loading Basis Set <=

    Name: STO-3G
    Role: ORBITAL
    Keyword: MINAO_BASIS
    atoms 1 entry C          line    61 file /Users/fevange/Source/psi4/objdir-Release/stage/share/psi4/basis/sto-3g.gbs 
    atoms 2 entry H          line    19 file /Users/fevange/Source/psi4/objdir-Release/stage/share/psi4/basis/sto-3g.gbs 


  Forte will use psi4 integrals

  ==> Primary Basis Set Summary <==

  Basis Set: 6-31G
    Blend: 6-31G
    Number of shells: 7
    Number of basis functions: 11
    Number of Cartesian functions: 11
    Spherical Harmonics?: false
    Max angular momentum: 1


  JK created using conventional PK integrals
  Using in-core PK algorithm.
   Calculation information:
      Number of atoms:                   2
      Number of AO shells:               7
      Number of primitives:             18
      Number of atomic orbitals:        11
      Number of basis functions:        11

      Integral cutoff                 1.00e-12
      Number of threads:                 1

  Performing in-core PK
  Using 4422 doubles for integral storage.
  We computed 406 shell quartets total.
  Whereas there are 406 unique shell quartets.

  ==> DiskJK: Disk-Based J/K Matrices <==

    J tasked:                  Yes
    K tasked:                  Yes
    wK tasked:                  No
    Memory [MiB]:              400
    Schwarz Cutoff:          1E-12

    OpenMP threads:              1



  ==> Integral Transformation <==

  Number of molecular orbitals:                         11
  Number of correlated molecular orbitals:              11
  Number of frozen occupied orbitals:                    0
  Number of frozen unoccupied orbitals:                  0
  Two-electron integral type:                 Conventional


  Computing Conventional Integrals	Presorting SO-basis two-electron integrals.
	Sorting File: SO Ints (nn|nn) nbuckets = 1
	Constructing frozen core operators
	Starting first half-transformation.
	Sorting half-transformed integrals.
	First half integral transformation complete.
	Starting second half-transformation.
	Two-electron integral transformation complete.

  Integral transformation done. 0.00341858 s
  Reading the two-electron integrals from disk
  Size of two-electron integrals:   0.000327 GB
  Timing for conventional integral transformation:            0.008 s.
  Timing for freezing core and virtual orbitals:              0.000 s.
  Timing for computing conventional integrals:                0.008 s.

  ==> Summary of Active Space Solver Input <==

    Irrep.  Multi.(2ms)      N
    --------------------------
       B1      2  ( -1)      1
    --------------------------
    N: number of roots
    ms: spin z component
    Total number of roots:   1
    --------------------------


  ==> String Lists <==

  Number of alpha electrons     = 3
  Number of beta electrons      = 4
  Number of alpha strings       = 165
  Number of beta strings        = 330
  Timing for strings        =      0.000 s
  Timing for NN strings     =      0.000 s
  Timing for VO strings     =      0.003 s
  Timing for OO strings     =      0.001 s
  Timing for VVOO strings   =      0.007 s
  Timing for 1-hole strings =      0.000 s
  Timing for 2-hole strings =      0.000 s
  Timing for 3-hole strings =      0.000 s
  Total timing              =      0.011 s

  ==> Spin Adapter <==

    Number of CSFs:                              7240
    Number of couplings:                        54616

    Timing for identifying configurations:     0.0007
    Timing for finding the CSFs:               0.0024


  ==> FCI Solver <==

    Number of determinants                       13596
    Symmetry                                         2
    Multiplicity                                     2
    Number of roots                                  1
    Target root                                      0
    Trial vectors per root                          10
    Spin adapt                                    true

  Allocating memory for the Hamiltonian algorithm. Size: 2 x 84 x 84.   Memory: 0.000105 GB

  ==> FCI Initial Guess <==

  Selected 2 CSF
  ---------------------------------------------
    CSF             Energy     <S^2>   Spin
  ---------------------------------------------
      0      -37.439454018221  0.750  doublet
     56      -37.089935659742  0.750  doublet
  ---------------------------------------------
  Timing for initial guess  =      0.000 s


  ==> Diagonalizing Hamiltonian <==

  Energy   convergence: 1.00e-12
  Residual convergence: 1.00e-06
  -----------------------------------------------------
    Iter.      Avg. Energy       Delta_E     Res. Norm
  -----------------------------------------------------
      1      -37.449347256288  -3.745e+01  +3.457e-01
      2      -37.489208774584  -3.986e-02  +7.290e-02
      3      -37.490729259131  -1.520e-03  +1.655e-02
      4      -37.490808274060  -7.901e-05  +4.208e-03
      5      -37.490812990448  -4.716e-06  +9.796e-04
      6      -37.490813262608  -2.722e-07  +2.556e-04
      7      -37.490813280286  -1.768e-08  +5.826e-05
      8      -37.490813281119  -8.330e-10  +1.236e-05
      9      -37.490813281156  -3.661e-11  +2.496e-06
     10      -37.490813281157  -1.528e-12  +6.241e-07
     11      -37.490813281158  -1.350e-13  +1.633e-07
  -----------------------------------------------------
  The Davidson-Liu algorithm converged in 12 iterations.

  ==> Root No. 0 <==

    2220000 b0 00      0.97523941
    2200000 b0 20      0.16235259

    Total Energy:     -37.490813281158, <S^2>: 0.750000

  ==> Energy Summary <==

    Multi.(2ms)  Irrep.  No.               Energy      <S^2>
    --------------------------------------------------------
       2  ( -1)    B1     0      -37.490813281158   0.750000
    --------------------------------------------------------

  ==> Dipole Moments [e a0] (Nuclear + Electronic) for Doublet (Ms = -1/2) B1 <==


  ==> Computing RDMs for Root No. 0 <==

    Timing for 1-RDM: 0.000 s

  ==> NATURAL ORBITALS <==

        1A1     1.999916      2A1     1.990348      3A1     1.918383  
        1B1     0.995623      1B2     0.069916      4A1     0.011521  
        2B1     0.005518      5A1     0.004192      6A1     0.003508  
        2B2     0.000569      7A1     0.000507  

       State           DM_X           DM_Y           DM_Z           |DM|
    --------------------------------------------------------------------
         0B1     0.00000000     0.00000000     0.78832415     0.78832415
    --------------------------------------------------------------------
     Nuclear     0.00000000     0.00000000     0.45765144     0.45765144
    --------------------------------------------------------------------

  ==> Quadrupole Moments [e a0^2] (Nuclear + Electronic) for Doublet (Ms = -1/2) B1 <==


  ==> Computing RDMs for Root No. 0 <==

    Timing for 1-RDM: 0.000 s

  ==> NATURAL ORBITALS <==

        1A1     1.999916      2A1     1.990348      3A1     1.918383  
        1B1     0.995623      1B2     0.069916      4A1     0.011521  
        2B1     0.005518      5A1     0.004192      6A1     0.003508  
        2B2     0.000569      7A1     0.000507  

       State          QM_XX          QM_XY          QM_XZ          QM_YY          QM_YZ          QM_ZZ
    --------------------------------------------------------------------------------------------------
         0B1    -4.85527956     0.00000000     0.00000000    -3.56865865     0.00000000    -5.08729975
    --------------------------------------------------------------------------------------------------
     Nuclear     0.00000000     0.00000000     0.00000000     0.00000000     0.00000000     0.88706355
    --------------------------------------------------------------------------------------------------

  Time to prepare integrals:        0.012 seconds
  Time to run job          :        0.096 seconds
  Total                    :        0.108 seconds
    FCI energy (M_S = -1/2)...............................................................PASSED

Scratch directory: /tmp/

*** tstart() called on CHE-FEVANGE-01i
*** at Sat May 13 17:35:53 2023

   => Loading Basis Set <=

    Name: 6-31G
    Role: ORBITAL
    Keyword: BASIS
    atoms 1 entry C          line    87 file /Users/fevange/Source/psi4/objdir-Release/stage/share/psi4/basis/6-31g.gbs 
    atoms 2 entry H          line    26 file /Users/fevange/Source/psi4/objdir-Release/stage/share/psi4/basis/6-31g.gbs 


         ---------------------------------------------------------
                                   SCF
               by Justin Turney, Rob Parrish, Andy Simmonett
                          and Daniel G. A. Smith
                             ROHF Reference
                        1 Threads,    500 MiB Core
         ---------------------------------------------------------

  ==> Geometry <==

    Molecular point group: c2v
    Full point group: C_inf_v

    Geometry (in Bohr), charge = 1, multiplicity = 3:

       Center              X                  Y                   Z               Mass       
    ------------   -----------------  -----------------  -----------------  -----------------
         C            0.000000000000     0.000000000000    -0.077478366271    12.000000000000
         H            0.000000000000     0.000000000000     0.922521633729     1.007825032230

  Running in c2v symmetry.

  Rotational constants: A = ************  B =     64.74892  C =     64.74892 [cm^-1]
  Rotational constants: A = ************  B = 1941123.79451  C = 1941123.79451 [MHz]
  Nuclear repulsion =    6.000000000000000

  Charge       = 1
  Multiplicity = 3
  Electrons    = 6
  Nalpha       = 4
  Nbeta        = 2

  ==> Algorithm <==

  SCF Algorithm Type is PK.
  DIIS enabled.
  MOM disabled.
  Fractional occupation disabled.
  Guess Type is SAD.
  Energy threshold   = 1.00e-12
  Density threshold  = 1.00e-06
  Integral threshold = 1.00e-12

  ==> Primary Basis <==

  Basis Set: 6-31G
    Blend: 6-31G
    Number of shells: 7
    Number of basis functions: 11
    Number of Cartesian functions: 11
    Spherical Harmonics?: false
    Max angular momentum: 1

  ==> Integral Setup <==

  Using in-core PK algorithm.
   Calculation information:
      Number of atoms:                   2
      Number of AO shells:               7
      Number of primitives:             18
      Number of atomic orbitals:        11
      Number of basis functions:        11

      Integral cutoff                 1.00e-12
      Number of threads:                 1

  Performing in-core PK
  Using 4422 doubles for integral storage.
  We computed 406 shell quartets total.
  Whereas there are 406 unique shell quartets.

  ==> DiskJK: Disk-Based J/K Matrices <==

    J tasked:                  Yes
    K tasked:                  Yes
    wK tasked:                  No
    Memory [MiB]:              375
    Schwarz Cutoff:          1E-12

    OpenMP threads:              1

  Minimum eigenvalue in the overlap matrix is 4.5543576797E-03.
  Reciprocal condition number of the overlap matrix is 1.3315227887E-03.
    Using symmetric orthogonalization.

  ==> Pre-Iterations <==

  SCF Guess: Superposition of Atomic Densities via on-the-fly atomic UHF (no occupation information).

   -------------------------
    Irrep   Nso     Nmo    
   -------------------------
     A1         7       7 
     A2         0       0 
     B1         2       2 
     B2         2       2 
   -------------------------
    Total      11      11
   -------------------------

  ==> Iterations <==

                        Total Energy        Delta E     RMS |[F,P]|

   @ROHF iter SAD:   -36.98148744987406   -3.69815e+01   0.00000e+00 
   @ROHF iter   1:   -37.00914834838113   -2.76609e-02   3.20045e-02 DIIS
   @ROHF iter   2:   -37.06618742514749   -5.70391e-02   2.90683e-03 DIIS
   @ROHF iter   3:   -37.06667420468500   -4.86780e-04   4.91380e-04 DIIS
   @ROHF iter   4:   -37.06669327853955   -1.90739e-05   5.53546e-05 DIIS
   @ROHF iter   5:   -37.06669349336896   -2.14829e-07   8.53585e-06 DIIS
   @ROHF iter   6:   -37.06669349798709   -4.61813e-09   8.87391e-07 DIIS
   @ROHF iter   7:   -37.06669349804245   -5.53655e-11   7.99487e-08 DIIS
   @ROHF iter   8:   -37.06669349804285   -3.97904e-13   3.24653e-09 DIIS
  Energy and wave function converged.


  ==> Post-Iterations <==

    Orbital Energies [Eh]
    ---------------------

    Doubly Occupied:                                                      

       1A1   -11.886592     2A1    -1.475769  

    Singly Occupied:                                                      

       3A1    -0.709925     1B1    -0.562152  

    Virtual:                                                              

       1B2    -0.339775     4A1     0.062864     5A1     0.265663  
       2B1     0.349645     2B2     0.380794     6A1     0.539118  
       7A1     2.298642  

    Final Occupation by Irrep:
             A1    A2    B1    B2 
    DOCC [     2,    0,    0,    0 ]
    SOCC [     1,    0,    1,    0 ]
    NA   [     3,    0,    1,    0 ]
    NB   [     2,    0,    0,    0 ]

  @ROHF Final Energy:   -37.06669349804285

   => Energetics <=

    Nuclear Repulsion Energy =              6.0000000000000000
    One-Electron Energy =                 -57.3454120798976632
    Two-Electron Energy =                  14.2787185818548110
    Total Energy =                        -37.0666934980428522

Computation Completed


Properties will be evaluated at   0.000000,   0.000000,   0.000000 [a0]

Properties computed using the SCF density matrix


 Multipole Moments:

 ------------------------------------------------------------------------------------
     Multipole            Electronic (a.u.)      Nuclear  (a.u.)        Total (a.u.)
 ------------------------------------------------------------------------------------

 L = 1.  Multiply by 2.5417464519 to convert [e a0] to [Debye]
 Dipole X            :          0.0000000            0.0000000            0.0000000
 Dipole Y            :          0.0000000            0.0000000            0.0000000
 Dipole Z            :         -0.4883774            0.4576514           -0.0307260
 Magnitude           :                                                    0.0307260

 ------------------------------------------------------------------------------------

*** tstop() called on CHE-FEVANGE-01i at Sat May 13 17:35:53 2023
Module time:
	user time   =       0.06 seconds =       0.00 minutes
	system time =       0.01 seconds =       0.00 minutes
	total time  =          0 seconds =       0.00 minutes
Total time:
	user time   =       0.42 seconds =       0.01 minutes
	system time =       0.03 seconds =       0.00 minutes
	total time  =          0 seconds =       0.00 minutes
    SCF energy............................................................................PASSED

Scratch directory: /tmp/

*** tstart() called on CHE-FEVANGE-01i
*** at Sat May 13 17:35:53 2023

   => Loading Basis Set <=

    Name: 6-31G
    Role: ORBITAL
    Keyword: BASIS
    atoms 1 entry C          line    87 file /Users/fevange/Source/psi4/objdir-Release/stage/share/psi4/basis/6-31g.gbs 
    atoms 2 entry H          line    26 file /Users/fevange/Source/psi4/objdir-Release/stage/share/psi4/basis/6-31g.gbs 


         ---------------------------------------------------------
                                   SCF
               by Justin Turney, Rob Parrish, Andy Simmonett
                          and Daniel G. A. Smith
                             ROHF Reference
                        1 Threads,    500 MiB Core
         ---------------------------------------------------------

  ==> Geometry <==

    Molecular point group: c2v
    Full point group: C_inf_v

    Geometry (in Bohr), charge = 1, multiplicity = 3:

       Center              X                  Y                   Z               Mass       
    ------------   -----------------  -----------------  -----------------  -----------------
         C            0.000000000000     0.000000000000    -0.077478366271    12.000000000000
         H            0.000000000000     0.000000000000     0.922521633729     1.007825032230

  Running in c2v symmetry.

  Rotational constants: A = ************  B =     64.74892  C =     64.74892 [cm^-1]
  Rotational constants: A = ************  B = 1941123.79451  C = 1941123.79451 [MHz]
  Nuclear repulsion =    6.000000000000000

  Charge       = 1
  Multiplicity = 3
  Electrons    = 6
  Nalpha       = 4
  Nbeta        = 2

  ==> Algorithm <==

  SCF Algorithm Type is PK.
  DIIS enabled.
  MOM disabled.
  Fractional occupation disabled.
  Guess Type is SAD.
  Energy threshold   = 1.00e-12
  Density threshold  = 1.00e-06
  Integral threshold = 1.00e-12

  ==> Primary Basis <==

  Basis Set: 6-31G
    Blend: 6-31G
    Number of shells: 7
    Number of basis functions: 11
    Number of Cartesian functions: 11
    Spherical Harmonics?: false
    Max angular momentum: 1

  ==> Integral Setup <==

  Using in-core PK algorithm.
   Calculation information:
      Number of atoms:                   2
      Number of AO shells:               7
      Number of primitives:             18
      Number of atomic orbitals:        11
      Number of basis functions:        11

      Integral cutoff                 1.00e-12
      Number of threads:                 1

  Performing in-core PK
  Using 4422 doubles for integral storage.
  We computed 406 shell quartets total.
  Whereas there are 406 unique shell quartets.

  ==> DiskJK: Disk-Based J/K Matrices <==

    J tasked:                  Yes
    K tasked:                  Yes
    wK tasked:                  No
    Memory [MiB]:              375
    Schwarz Cutoff:          1E-12

    OpenMP threads:              1

  Minimum eigenvalue in the overlap matrix is 4.5543576797E-03.
  Reciprocal condition number of the overlap matrix is 1.3315227887E-03.
    Using symmetric orthogonalization.

  ==> Pre-Iterations <==

  SCF Guess: Superposition of Atomic Densities via on-the-fly atomic UHF (no occupation information).

   -------------------------
    Irrep   Nso     Nmo    
   -------------------------
     A1         7       7 
     A2         0       0 
     B1         2       2 
     B2         2       2 
   -------------------------
    Total      11      11
   -------------------------

  ==> Iterations <==

                        Total Energy        Delta E     RMS |[F,P]|

   @ROHF iter SAD:   -36.98148744987406   -3.69815e+01   0.00000e+00 
   @ROHF iter   1:   -37.00914834838113   -2.76609e-02   3.20045e-02 DIIS
   @ROHF iter   2:   -37.06618742514749   -5.70391e-02   2.90683e-03 DIIS
   @ROHF iter   3:   -37.06667420468500   -4.86780e-04   4.91380e-04 DIIS
   @ROHF iter   4:   -37.06669327853955   -1.90739e-05   5.53546e-05 DIIS
   @ROHF iter   5:   -37.06669349336896   -2.14829e-07   8.53585e-06 DIIS
   @ROHF iter   6:   -37.06669349798709   -4.61813e-09   8.87391e-07 DIIS
   @ROHF iter   7:   -37.06669349804245   -5.53655e-11   7.99487e-08 DIIS
   @ROHF iter   8:   -37.06669349804285   -3.97904e-13   3.24653e-09 DIIS
  Energy and wave function converged.


  ==> Post-Iterations <==

    Orbital Energies [Eh]
    ---------------------

    Doubly Occupied:                                                      

       1A1   -11.886592     2A1    -1.475769  

    Singly Occupied:                                                      

       3A1    -0.709925     1B1    -0.562152  

    Virtual:                                                              

       1B2    -0.339775     4A1     0.062864     5A1     0.265663  
       2B1     0.349645     2B2     0.380794     6A1     0.539118  
       7A1     2.298642  

    Final Occupation by Irrep:
             A1    A2    B1    B2 
    DOCC [     2,    0,    0,    0 ]
    SOCC [     1,    0,    1,    0 ]
    NA   [     3,    0,    1,    0 ]
    NB   [     2,    0,    0,    0 ]

  @ROHF Final Energy:   -37.06669349804285

   => Energetics <=

    Nuclear Repulsion Energy =              6.0000000000000000
    One-Electron Energy =                 -57.3454120798976632
    Two-Electron Energy =                  14.2787185818548110
    Total Energy =                        -37.0666934980428522

Computation Completed


Properties will be evaluated at   0.000000,   0.000000,   0.000000 [a0]

Properties computed using the SCF density matrix


 Multipole Moments:

 ------------------------------------------------------------------------------------
     Multipole            Electronic (a.u.)      Nuclear  (a.u.)        Total (a.u.)
 ------------------------------------------------------------------------------------

 L = 1.  Multiply by 2.5417464519 to convert [e a0] to [Debye]
 Dipole X            :          0.0000000            0.0000000            0.0000000
 Dipole Y            :          0.0000000            0.0000000            0.0000000
 Dipole Z            :         -0.4883774            0.4576514           -0.0307260
 Magnitude           :                                                    0.0307260

 ------------------------------------------------------------------------------------

*** tstop() called on CHE-FEVANGE-01i at Sat May 13 17:35:53 2023
Module time:
	user time   =       0.05 seconds =       0.00 minutes
	system time =       0.00 seconds =       0.00 minutes
	total time  =          0 seconds =       0.00 minutes
Total time:
	user time   =       0.49 seconds =       0.01 minutes
	system time =       0.03 seconds =       0.00 minutes
	total time  =          0 seconds =       0.00 minutes
    SCF energy on triplet Pi of CH+.......................................................PASSED

Scratch directory: /tmp/

  Forte
  ----------------------------------------------------------------------------
  A suite of quantum chemistry methods for strongly correlated electrons

    git branch: saci - git commit: 3419a366

  Developed by:
    Francesco A. Evangelista, Chenyang Li, Kevin P. Hannon,
    Jeffrey B. Schriber, Tianyuan Zhang, Chenxi Cai,
    Nan He, Nicholas Stair, Shuhe Wang, Renke Huang
  ----------------------------------------------------------------------------

  Size of Determinant class: 256 bits

  Preparing forte objects from a Psi4 Wavefunction object

  ==> MO Space Information <==

  -------------------------------------------------
                       A1    A2    B1    B2   Sum
  -------------------------------------------------
    FROZEN_DOCC         0     0     0     0     0
    RESTRICTED_DOCC     0     0     0     0     0
    GAS1                7     0     2     2    11
    GAS2                0     0     0     0     0
    GAS3                0     0     0     0     0
    GAS4                0     0     0     0     0
    GAS5                0     0     0     0     0
    GAS6                0     0     0     0     0
    RESTRICTED_UOCC     0     0     0     0     0
    FROZEN_UOCC         0     0     0     0     0
    Total               7     0     2     2    11
  -------------------------------------------------   => Loading Basis Set <=

    Name: 6-31G
    Role: ORBITAL
    Keyword: BASIS
    atoms 1 entry C          line    87 file /Users/fevange/Source/psi4/objdir-Release/stage/share/psi4/basis/6-31g.gbs 
    atoms 2 entry H          line    26 file /Users/fevange/Source/psi4/objdir-Release/stage/share/psi4/basis/6-31g.gbs 


  Checking orbital orthonormality against current geometry ... Done (OK)

   => Loading Basis Set <=

    Name: STO-3G
    Role: ORBITAL
    Keyword: MINAO_BASIS
    atoms 1 entry C          line    61 file /Users/fevange/Source/psi4/objdir-Release/stage/share/psi4/basis/sto-3g.gbs 
    atoms 2 entry H          line    19 file /Users/fevange/Source/psi4/objdir-Release/stage/share/psi4/basis/sto-3g.gbs 


  Forte will use psi4 integrals

  ==> Primary Basis Set Summary <==

  Basis Set: 6-31G
    Blend: 6-31G
    Number of shells: 7
    Number of basis functions: 11
    Number of Cartesian functions: 11
    Spherical Harmonics?: false
    Max angular momentum: 1


  JK created using conventional PK integrals
  Using in-core PK algorithm.
   Calculation information:
      Number of atoms:                   2
      Number of AO shells:               7
      Number of primitives:             18
      Number of atomic orbitals:        11
      Number of basis functions:        11

      Integral cutoff                 1.00e-12
      Number of threads:                 1

  Performing in-core PK
  Using 4422 doubles for integral storage.
  We computed 406 shell quartets total.
  Whereas there are 406 unique shell quartets.

  ==> DiskJK: Disk-Based J/K Matrices <==

    J tasked:                  Yes
    K tasked:                  Yes
    wK tasked:                  No
    Memory [MiB]:              400
    Schwarz Cutoff:          1E-12

    OpenMP threads:              1



  ==> Integral Transformation <==

  Number of molecular orbitals:                         11
  Number of correlated molecular orbitals:              11
  Number of frozen occupied orbitals:                    0
  Number of frozen unoccupied orbitals:                  0
  Two-electron integral type:                 Conventional


  Computing Conventional Integrals	Presorting SO-basis two-electron integrals.
	Sorting File: SO Ints (nn|nn) nbuckets = 1
	Constructing frozen core operators
	Starting first half-transformation.
	Sorting half-transformed integrals.
	First half integral transformation complete.
	Starting second half-transformation.
	Two-electron integral transformation complete.

  Integral transformation done. 0.00332421 s
  Reading the two-electron integrals from disk
  Size of two-electron integrals:   0.000327 GB
  Timing for conventional integral transformation:            0.008 s.
  Timing for freezing core and virtual orbitals:              0.000 s.
  Timing for computing conventional integrals:                0.008 s.

  ==> Summary of Active Space Solver Input <==

    Irrep.  Multi.(2ms)      N
    --------------------------
       B2      3  (  2)      1
    --------------------------
    N: number of roots
    ms: spin z component
    Total number of roots:   1
    --------------------------


  ==> String Lists <==

  Number of alpha electrons     = 4
  Number of beta electrons      = 2
  Number of alpha strings       = 330
  Number of beta strings        = 55
  Timing for strings        =      0.000 s
  Timing for NN strings     =      0.000 s
  Timing for VO strings     =      0.002 s
  Timing for OO strings     =      0.001 s
  Timing for VVOO strings   =      0.006 s
  Timing for 1-hole strings =      0.000 s
  Timing for 2-hole strings =      0.000 s
  Timing for 3-hole strings =      0.000 s
  Total timing              =      0.009 s

  ==> Spin Adapter <==

    Number of CSFs:                              3276
    Number of couplings:                        15204

    Timing for identifying configurations:     0.0003
    Timing for finding the CSFs:               0.0005


  ==> FCI Solver <==

    Number of determinants                        4536
    Symmetry                                         3
    Multiplicity                                     3
    Number of roots                                  1
    Target root                                      0
    Trial vectors per root                          10
    Spin adapt                                    true

  Allocating memory for the Hamiltonian algorithm. Size: 2 x 84 x 84.   Memory: 0.000105 GB

  ==> FCI Initial Guess <==

  Selected 2 CSF
  ---------------------------------------------
    CSF             Energy     <S^2>   Spin
  ---------------------------------------------
     72      -37.033605740333  2.000  triplet
     36      -36.411856348138  2.000  triplet
  ---------------------------------------------
  Timing for initial guess  =      0.000 s


  ==> Diagonalizing Hamiltonian <==

  Energy   convergence: 1.00e-12
  Residual convergence: 1.00e-06
  -----------------------------------------------------
    Iter.      Avg. Energy       Delta_E     Res. Norm
  -----------------------------------------------------
      1      -37.033609519779  -3.703e+01  +3.321e-01
      2      -37.086840916694  -5.323e-02  +8.229e-02
      3      -37.088809066436  -1.968e-03  +1.526e-02
      4      -37.088874273534  -6.521e-05  +3.040e-03
      5      -37.088876405072  -2.132e-06  +4.496e-04
      6      -37.088876450766  -4.569e-08  +7.332e-05
      7      -37.088876452155  -1.389e-09  +1.375e-05
      8      -37.088876452203  -4.810e-11  +2.504e-06
      9      -37.088876452204  -1.357e-12  +4.202e-07
     10      -37.088876452204  -3.553e-14  +7.792e-08
  -----------------------------------------------------
  The Davidson-Liu algorithm converged in 11 iterations.

  ==> Root No. 0 <==

    22a0000 00 a0      0.97554560
    22a0000 00 0a      0.19275292

    Total Energy:     -37.088876452204, <S^2>: 2.000000

  ==> Energy Summary <==

    Multi.(2ms)  Irrep.  No.               Energy      <S^2>
    --------------------------------------------------------
       3  (  2)    B2     0      -37.088876452204   2.000000
    --------------------------------------------------------

  ==> Dipole Moments [e a0] (Nuclear + Electronic) for Triplet (Ms = 1) B2 <==


  ==> Computing RDMs for Root No. 0 <==

    Timing for 1-RDM: 0.000 s

  ==> NATURAL ORBITALS <==

        1A1     1.999930      2A1     1.985337      1B2     0.998466  
        3A1     0.996063      1B1     0.011789      4A1     0.002705  
        5A1     0.002418      2B2     0.001874      6A1     0.001240  
        7A1     0.000098      2B1     0.000080  

       State           DM_X           DM_Y           DM_Z           |DM|
    --------------------------------------------------------------------
         0B2     0.00000000     0.00000000    -0.01686184     0.01686184
    --------------------------------------------------------------------
     Nuclear     0.00000000     0.00000000     0.45765144     0.45765144
    --------------------------------------------------------------------

  ==> Quadrupole Moments [e a0^2] (Nuclear + Electronic) for Triplet (Ms = 1) B2 <==


  ==> Computing RDMs for Root No. 0 <==

    Timing for 1-RDM: 0.000 s

  ==> NATURAL ORBITALS <==

        1A1     1.999930      2A1     1.985337      1B2     0.998466  
        3A1     0.996063      1B1     0.011789      4A1     0.002705  
        5A1     0.002418      2B2     0.001874      6A1     0.001240  
        7A1     0.000098      2B1     0.000080  

       State          QM_XX          QM_XY          QM_XZ          QM_YY          QM_YZ          QM_ZZ
    --------------------------------------------------------------------------------------------------
         0B2    -2.21833646     0.00000000     0.00000000    -3.26101944     0.00000000    -2.90409660
    --------------------------------------------------------------------------------------------------
     Nuclear     0.00000000     0.00000000     0.00000000     0.00000000     0.00000000     0.88706355
    --------------------------------------------------------------------------------------------------

  Time to prepare integrals:        0.011 seconds
  Time to run job          :        0.077 seconds
  Total                    :        0.088 seconds
    FCI energy (M_S =  1).................................................................PASSED

Scratch directory: /tmp/

  Forte
  ----------------------------------------------------------------------------
  A suite of quantum chemistry methods for strongly correlated electrons

    git branch: saci - git commit: 3419a366

  Developed by:
    Francesco A. Evangelista, Chenyang Li, Kevin P. Hannon,
    Jeffrey B. Schriber, Tianyuan Zhang, Chenxi Cai,
    Nan He, Nicholas Stair, Shuhe Wang, Renke Huang
  ----------------------------------------------------------------------------

  Size of Determinant class: 256 bits

  Preparing forte objects from a Psi4 Wavefunction object

  ==> MO Space Information <==

  -------------------------------------------------
                       A1    A2    B1    B2   Sum
  -------------------------------------------------
    FROZEN_DOCC         0     0     0     0     0
    RESTRICTED_DOCC     0     0     0     0     0
    GAS1                7     0     2     2    11
    GAS2                0     0     0     0     0
    GAS3                0     0     0     0     0
    GAS4                0     0     0     0     0
    GAS5                0     0     0     0     0
    GAS6                0     0     0     0     0
    RESTRICTED_UOCC     0     0     0     0     0
    FROZEN_UOCC         0     0     0     0     0
    Total               7     0     2     2    11
  -------------------------------------------------   => Loading Basis Set <=

    Name: 6-31G
    Role: ORBITAL
    Keyword: BASIS
    atoms 1 entry C          line    87 file /Users/fevange/Source/psi4/objdir-Release/stage/share/psi4/basis/6-31g.gbs 
    atoms 2 entry H          line    26 file /Users/fevange/Source/psi4/objdir-Release/stage/share/psi4/basis/6-31g.gbs 


  Checking orbital orthonormality against current geometry ... Done (OK)

   => Loading Basis Set <=

    Name: STO-3G
    Role: ORBITAL
    Keyword: MINAO_BASIS
    atoms 1 entry C          line    61 file /Users/fevange/Source/psi4/objdir-Release/stage/share/psi4/basis/sto-3g.gbs 
    atoms 2 entry H          line    19 file /Users/fevange/Source/psi4/objdir-Release/stage/share/psi4/basis/sto-3g.gbs 


  Forte will use psi4 integrals

  ==> Primary Basis Set Summary <==

  Basis Set: 6-31G
    Blend: 6-31G
    Number of shells: 7
    Number of basis functions: 11
    Number of Cartesian functions: 11
    Spherical Harmonics?: false
    Max angular momentum: 1


  JK created using conventional PK integrals
  Using in-core PK algorithm.
   Calculation information:
      Number of atoms:                   2
      Number of AO shells:               7
      Number of primitives:             18
      Number of atomic orbitals:        11
      Number of basis functions:        11

      Integral cutoff                 1.00e-12
      Number of threads:                 1

  Performing in-core PK
  Using 4422 doubles for integral storage.
  We computed 406 shell quartets total.
  Whereas there are 406 unique shell quartets.

  ==> DiskJK: Disk-Based J/K Matrices <==

    J tasked:                  Yes
    K tasked:                  Yes
    wK tasked:                  No
    Memory [MiB]:              400
    Schwarz Cutoff:          1E-12

    OpenMP threads:              1



  ==> Integral Transformation <==

  Number of molecular orbitals:                         11
  Number of correlated molecular orbitals:              11
  Number of frozen occupied orbitals:                    0
  Number of frozen unoccupied orbitals:                  0
  Two-electron integral type:                 Conventional


  Computing Conventional Integrals	Presorting SO-basis two-electron integrals.
	Sorting File: SO Ints (nn|nn) nbuckets = 1
	Constructing frozen core operators
	Starting first half-transformation.
	Sorting half-transformed integrals.
	First half integral transformation complete.
	Starting second half-transformation.
	Two-electron integral transformation complete.

  Integral transformation done. 0.00322912 s
  Reading the two-electron integrals from disk
  Size of two-electron integrals:   0.000327 GB
  Timing for conventional integral transformation:            0.008 s.
  Timing for freezing core and virtual orbitals:              0.000 s.
  Timing for computing conventional integrals:                0.008 s.

  ==> Summary of Active Space Solver Input <==

    Irrep.  Multi.(2ms)      N
    --------------------------
       B2      3  (  0)      1
    --------------------------
    N: number of roots
    ms: spin z component
    Total number of roots:   1
    --------------------------


  ==> String Lists <==

  Number of alpha electrons     = 3
  Number of beta electrons      = 3
  Number of alpha strings       = 165
  Number of beta strings        = 165
  Timing for strings        =      0.000 s
  Timing for NN strings     =      0.000 s
  Timing for VO strings     =      0.002 s
  Timing for OO strings     =      0.000 s
  Timing for VVOO strings   =      0.003 s
  Timing for 1-hole strings =      0.000 s
  Timing for 2-hole strings =      0.000 s
  Timing for 3-hole strings =      0.000 s
  Total timing              =      0.006 s

  ==> Spin Adapter <==

    Number of CSFs:                              3276
    Number of couplings:                        26096

    Timing for identifying configurations:     0.0003
    Timing for finding the CSFs:               0.0010


  ==> FCI Solver <==

    Number of determinants                        6776
    Symmetry                                         3
    Multiplicity                                     3
    Number of roots                                  1
    Target root                                      0
    Trial vectors per root                          10
    Spin adapt                                    true

  Allocating memory for the Hamiltonian algorithm. Size: 2 x 49 x 49.   Memory: 0.000036 GB

  ==> FCI Initial Guess <==

  Selected 2 CSF
  ---------------------------------------------
    CSF             Energy     <S^2>   Spin
  ---------------------------------------------
     72      -36.966532561752  2.000  triplet
     36      -36.343336400725  2.000  triplet
  ---------------------------------------------
  Timing for initial guess  =      0.000 s


  ==> Diagonalizing Hamiltonian <==

  Energy   convergence: 1.00e-12
  Residual convergence: 1.00e-06
  -----------------------------------------------------
    Iter.      Avg. Energy       Delta_E     Res. Norm
  -----------------------------------------------------
      1      -37.033609519779  -3.703e+01  +3.321e-01
      2      -37.086829821655  -5.322e-02  +8.193e-02
      3      -37.088806615207  -1.977e-03  +1.546e-02
      4      -37.088874076431  -6.746e-05  +3.132e-03
      5      -37.088876397918  -2.321e-06  +4.757e-04
      6      -37.088876450403  -5.249e-08  +7.971e-05
      7      -37.088876452143  -1.740e-09  +1.575e-05
      8      -37.088876452203  -5.958e-11  +2.789e-06
      9      -37.088876452205  -1.933e-12  +4.699e-07
     10      -37.088876452205  -4.263e-14  +8.809e-08
  -----------------------------------------------------
  The Davidson-Liu algorithm converged in 11 iterations.

  ==> Root No. 0 <==

    22a0000 00 b0      0.68981491
    22b0000 00 a0     -0.68981491
    22a0000 00 0b      0.13629690
    22b0000 00 0a     -0.13629690

    Total Energy:     -37.088876452205, <S^2>: 2.000000

  ==> Energy Summary <==

    Multi.(2ms)  Irrep.  No.               Energy      <S^2>
    --------------------------------------------------------
       3  (  0)    B2     0      -37.088876452205   2.000000
    --------------------------------------------------------

  ==> Dipole Moments [e a0] (Nuclear + Electronic) for Triplet (Ms = 0) B2 <==


  ==> Computing RDMs for Root No. 0 <==

    Timing for 1-RDM: 0.000 s

  ==> NATURAL ORBITALS <==

        1A1     1.999930      2A1     1.985337      1B2     0.998466  
        3A1     0.996063      1B1     0.011789      4A1     0.002705  
        5A1     0.002418      2B2     0.001874      6A1     0.001240  
        7A1     0.000098      2B1     0.000080  

       State           DM_X           DM_Y           DM_Z           |DM|
    --------------------------------------------------------------------
         0B2     0.00000000     0.00000000    -0.01686184     0.01686184
    --------------------------------------------------------------------
     Nuclear     0.00000000     0.00000000     0.45765144     0.45765144
    --------------------------------------------------------------------

  ==> Quadrupole Moments [e a0^2] (Nuclear + Electronic) for Triplet (Ms = 0) B2 <==


  ==> Computing RDMs for Root No. 0 <==

    Timing for 1-RDM: 0.000 s

  ==> NATURAL ORBITALS <==

        1A1     1.999930      2A1     1.985337      1B2     0.998466  
        3A1     0.996063      1B1     0.011789      4A1     0.002705  
        5A1     0.002418      2B2     0.001874      6A1     0.001240  
        7A1     0.000098      2B1     0.000080  

       State          QM_XX          QM_XY          QM_XZ          QM_YY          QM_YZ          QM_ZZ
    --------------------------------------------------------------------------------------------------
         0B2    -2.21833646     0.00000000     0.00000000    -3.26101945     0.00000000    -2.90409661
    --------------------------------------------------------------------------------------------------
     Nuclear     0.00000000     0.00000000     0.00000000     0.00000000     0.00000000     0.88706355
    --------------------------------------------------------------------------------------------------

  Time to prepare integrals:        0.011 seconds
  Time to run job          :        0.060 seconds
  Total                    :        0.072 seconds
    FCI energy (M_S =  0).................................................................PASSED

Scratch directory: /tmp/

  Forte
  ----------------------------------------------------------------------------
  A suite of quantum chemistry methods for strongly correlated electrons

    git branch: saci - git commit: 3419a366

  Developed by:
    Francesco A. Evangelista, Chenyang Li, Kevin P. Hannon,
    Jeffrey B. Schriber, Tianyuan Zhang, Chenxi Cai,
    Nan He, Nicholas Stair, Shuhe Wang, Renke Huang
  ----------------------------------------------------------------------------

  Size of Determinant class: 256 bits

  Preparing forte objects from a Psi4 Wavefunction object

  ==> MO Space Information <==

  -------------------------------------------------
                       A1    A2    B1    B2   Sum
  -------------------------------------------------
    FROZEN_DOCC         0     0     0     0     0
    RESTRICTED_DOCC     0     0     0     0     0
    GAS1                7     0     2     2    11
    GAS2                0     0     0     0     0
    GAS3                0     0     0     0     0
    GAS4                0     0     0     0     0
    GAS5                0     0     0     0     0
    GAS6                0     0     0     0     0
    RESTRICTED_UOCC     0     0     0     0     0
    FROZEN_UOCC         0     0     0     0     0
    Total               7     0     2     2    11
  -------------------------------------------------   => Loading Basis Set <=

    Name: 6-31G
    Role: ORBITAL
    Keyword: BASIS
    atoms 1 entry C          line    87 file /Users/fevange/Source/psi4/objdir-Release/stage/share/psi4/basis/6-31g.gbs 
    atoms 2 entry H          line    26 file /Users/fevange/Source/psi4/objdir-Release/stage/share/psi4/basis/6-31g.gbs 


  Checking orbital orthonormality against current geometry ... Done (OK)

   => Loading Basis Set <=

    Name: STO-3G
    Role: ORBITAL
    Keyword: MINAO_BASIS
    atoms 1 entry C          line    61 file /Users/fevange/Source/psi4/objdir-Release/stage/share/psi4/basis/sto-3g.gbs 
    atoms 2 entry H          line    19 file /Users/fevange/Source/psi4/objdir-Release/stage/share/psi4/basis/sto-3g.gbs 


  Forte will use psi4 integrals

  ==> Primary Basis Set Summary <==

  Basis Set: 6-31G
    Blend: 6-31G
    Number of shells: 7
    Number of basis functions: 11
    Number of Cartesian functions: 11
    Spherical Harmonics?: false
    Max angular momentum: 1


  JK created using conventional PK integrals
  Using in-core PK algorithm.
   Calculation information:
      Number of atoms:                   2
      Number of AO shells:               7
      Number of primitives:             18
      Number of atomic orbitals:        11
      Number of basis functions:        11

      Integral cutoff                 1.00e-12
      Number of threads:                 1

  Performing in-core PK
  Using 4422 doubles for integral storage.
  We computed 406 shell quartets total.
  Whereas there are 406 unique shell quartets.

  ==> DiskJK: Disk-Based J/K Matrices <==

    J tasked:                  Yes
    K tasked:                  Yes
    wK tasked:                  No
    Memory [MiB]:              400
    Schwarz Cutoff:          1E-12

    OpenMP threads:              1



  ==> Integral Transformation <==

  Number of molecular orbitals:                         11
  Number of correlated molecular orbitals:              11
  Number of frozen occupied orbitals:                    0
  Number of frozen unoccupied orbitals:                  0
  Two-electron integral type:                 Conventional


  Computing Conventional Integrals	Presorting SO-basis two-electron integrals.
	Sorting File: SO Ints (nn|nn) nbuckets = 1
	Constructing frozen core operators
	Starting first half-transformation.
	Sorting half-transformed integrals.
	First half integral transformation complete.
	Starting second half-transformation.
	Two-electron integral transformation complete.

  Integral transformation done. 0.00370179 s
  Reading the two-electron integrals from disk
  Size of two-electron integrals:   0.000327 GB
  Timing for conventional integral transformation:            0.009 s.
  Timing for freezing core and virtual orbitals:              0.000 s.
  Timing for computing conventional integrals:                0.009 s.

  ==> Summary of Active Space Solver Input <==

    Irrep.  Multi.(2ms)      N
    --------------------------
       B2      3  ( -2)      1
    --------------------------
    N: number of roots
    ms: spin z component
    Total number of roots:   1
    --------------------------


  ==> String Lists <==

  Number of alpha electrons     = 2
  Number of beta electrons      = 4
  Number of alpha strings       = 55
  Number of beta strings        = 330
  Timing for strings        =      0.000 s
  Timing for NN strings     =      0.000 s
  Timing for VO strings     =      0.002 s
  Timing for OO strings     =      0.001 s
  Timing for VVOO strings   =      0.006 s
  Timing for 1-hole strings =      0.000 s
  Timing for 2-hole strings =      0.000 s
  Timing for 3-hole strings =      0.000 s
  Total timing              =      0.009 s

  ==> Spin Adapter <==

    Number of CSFs:                              3276
    Number of couplings:                        15204

    Timing for identifying configurations:     0.0002
    Timing for finding the CSFs:               0.0006


  ==> FCI Solver <==

    Number of determinants                        4536
    Symmetry                                         3
    Multiplicity                                     3
    Number of roots                                  1
    Target root                                      0
    Trial vectors per root                          10
    Spin adapt                                    true

  Allocating memory for the Hamiltonian algorithm. Size: 2 x 84 x 84.   Memory: 0.000105 GB

  ==> FCI Initial Guess <==

  Selected 2 CSF
  ---------------------------------------------
    CSF             Energy     <S^2>   Spin
  ---------------------------------------------
     72      -37.033605740333  2.000  triplet
     36      -36.411856348138  2.000  triplet
  ---------------------------------------------
  Timing for initial guess  =      0.000 s


  ==> Diagonalizing Hamiltonian <==

  Energy   convergence: 1.00e-12
  Residual convergence: 1.00e-06
  -----------------------------------------------------
    Iter.      Avg. Energy       Delta_E     Res. Norm
  -----------------------------------------------------
      1      -37.033609519779  -3.703e+01  +3.321e-01
      2      -37.086840916694  -5.323e-02  +8.229e-02
      3      -37.088809066436  -1.968e-03  +1.526e-02
      4      -37.088874273534  -6.521e-05  +3.040e-03
      5      -37.088876405072  -2.132e-06  +4.496e-04
      6      -37.088876450766  -4.569e-08  +7.332e-05
      7      -37.088876452155  -1.389e-09  +1.375e-05
      8      -37.088876452203  -4.808e-11  +2.504e-06
      9      -37.088876452204  -1.421e-12  +4.202e-07
     10      -37.088876452204  -3.553e-14  +7.792e-08
  -----------------------------------------------------
  The Davidson-Liu algorithm converged in 11 iterations.

  ==> Root No. 0 <==

    22b0000 00 b0      0.97554560
    22b0000 00 0b      0.19275292

    Total Energy:     -37.088876452204, <S^2>: 2.000000

  ==> Energy Summary <==

    Multi.(2ms)  Irrep.  No.               Energy      <S^2>
    --------------------------------------------------------
       3  ( -2)    B2     0      -37.088876452204   2.000000
    --------------------------------------------------------

  ==> Dipole Moments [e a0] (Nuclear + Electronic) for Triplet (Ms = -1) B2 <==


  ==> Computing RDMs for Root No. 0 <==

    Timing for 1-RDM: 0.000 s

  ==> NATURAL ORBITALS <==

        1A1     1.999930      2A1     1.985337      1B2     0.998466  
        3A1     0.996063      1B1     0.011789      4A1     0.002705  
        5A1     0.002418      2B2     0.001874      6A1     0.001240  
        7A1     0.000098      2B1     0.000080  

       State           DM_X           DM_Y           DM_Z           |DM|
    --------------------------------------------------------------------
         0B2     0.00000000     0.00000000    -0.01686184     0.01686184
    --------------------------------------------------------------------
     Nuclear     0.00000000     0.00000000     0.45765144     0.45765144
    --------------------------------------------------------------------

  ==> Quadrupole Moments [e a0^2] (Nuclear + Electronic) for Triplet (Ms = -1) B2 <==


  ==> Computing RDMs for Root No. 0 <==

    Timing for 1-RDM: 0.000 s

  ==> NATURAL ORBITALS <==

        1A1     1.999930      2A1     1.985337      1B2     0.998466  
        3A1     0.996063      1B1     0.011789      4A1     0.002705  
        5A1     0.002418      2B2     0.001874      6A1     0.001240  
        7A1     0.000098      2B1     0.000080  

       State          QM_XX          QM_XY          QM_XZ          QM_YY          QM_YZ          QM_ZZ
    --------------------------------------------------------------------------------------------------
         0B2    -2.21833646     0.00000000     0.00000000    -3.26101944     0.00000000    -2.90409660
    --------------------------------------------------------------------------------------------------
     Nuclear     0.00000000     0.00000000     0.00000000     0.00000000     0.00000000     0.88706355
    --------------------------------------------------------------------------------------------------

  Time to prepare integrals:        0.012 seconds
  Time to run job          :        0.043 seconds
  Total                    :        0.056 seconds
    FCI energy (M_S = -1).................................................................PASSED

    Psi4 stopped on: Saturday, 13 May 2023 05:35PM
    Psi4 wall time for execution: 0:00:00.87

*** Psi4 exiting successfully. Buy a developer a beer!
