    -----------------------------------------------------------------------
          Psi4: An Open-Source Ab Initio Electronic Structure Package
                              Psi4 0.3.430 Driver

                          Git: Rev {master} dc0641e dirty

    J. M. Turney, A. C. Simmonett, R. M. Parrish, E. G. Hohenstein,
    F. A. Evangelista, J. T. Fermann, B. J. Mintz, L. A. Burns, J. J. Wilke,
    M. L. Abrams, N. J. Russ, M. L. Leininger, C. L. Janssen, E. T. Seidl,
    W. D. Allen, H. F. Schaefer, R. A. King, E. F. Valeev, C. D. Sherrill,
    and T. D. Crawford, WIREs Comput. Mol. Sci. 2, 556-565 (2012)
    (doi: 10.1002/wcms.93)

                         Additional Contributions by
    A. E. DePrince, M. Saitow, U. Bozkaya, A. Yu. Sokolov
    -----------------------------------------------------------------------


    Psi4 started on: Mon Jan 11 10:50:10 2016

    Process ID:  71465
    PSI4DATADIR: /Users/kevinhannon/Programs/psi4cmake/psi4/lib
    Memory level set to 256.000 MB

  ==> Input File <==

--------------------------------------------------------------------------
#! Generated using commit GITCOMMIT
#! CASSCF on HF with no symmetry

import forte

#refmcscf     =  -99.972055826365903 # cc-pVTZ
#refdsrgpt2   = -100.200752137944022 # cc-pVTZ
refscf          = -99.87285247289
refcasscf       = -99.939316381644

memory 500 mb

molecule He{
0   1
    He
}

set globals {
    basis          cc-pvdz
    scf_type       out_of_core
    mcscf_type     conv
    reference      ROHF
    e_convergence   1e-10
    d_convergence   1e-10
    active          [2, 0, 0, 0, 0, 0, 0, 0]
    S               1.0
}
energy('scf')
casscf = energy('casscf')
print casscf
#scf = energy('scf')
#compare_values(refscf, scf, 8, "SCF ENERGY")

set scf_type  direct
set forte{
   CASSCF_REFERENCE        true
   int_type                conventional
   CASSCF_ITERATIONS       36
   active                  [2, 0, 0, 0, 0, 0, 0, 0]
   cas_type                 CAS
   multiplicity             3
   ms                       0
   CASSCF_G_CONVERGENCE     1e-6
   CASSCF_E_CONVERGENCE     1e-8
   CASSCF_DO_DIIS           true
   print                    1
   ACTIVE_SPACE_TYPE        CIS
}
e_casscf = energy('forte')
#
compare_values(casscf, e_casscf, 8, "CISSCF_ENERGY")

--------------------------------------------------------------------------
/Users/kevinhannon/Programs/forte/forte.so loaded.

  Memory set to 500.000 MiB by Python script.

*** tstart() called on dhcp189-173.emerson.emory.edu
*** at Mon Jan 11 10:50:10 2016


         ---------------------------------------------------------
                                   SCF
            by Justin Turney, Rob Parrish, and Andy Simmonett
                             ROHF Reference
                        1 Threads,    500 MiB Core
         ---------------------------------------------------------

  ==> Geometry <==

    Molecular point group: d2h
    Geometry (in Angstrom), charge = 0, multiplicity = 1:

       Center              X                  Y                   Z               Mass       
    ------------   -----------------  -----------------  -----------------  -----------------
          HE          0.000000000000     0.000000000000     0.000000000000     4.002603254150

  Running in d2h symmetry.

  Rotational constants: A = ************  B = ************  C = ************ [cm^-1]
  Rotational constants: A = ************  B = ************  C = ************ [MHz]
  Nuclear repulsion =    0.000000000000000

  Charge       = 0
  Multiplicity = 1
  Electrons    = 2
  Nalpha       = 1
  Nbeta        = 1

  ==> Algorithm <==

  SCF Algorithm Type is OUT_OF_CORE.
  DIIS enabled.
  MOM disabled.
  Fractional occupation disabled.
  Guess Type is CORE.
  Energy threshold   = 1.00e-10
  Density threshold  = 1.00e-10
  Integral threshold = 0.00e+00

  ==> Primary Basis <==

  Basis Set: CC-PVDZ
    Number of shells: 3
    Number of basis function: 5
    Number of Cartesian functions: 5
    Spherical Harmonics?: true
    Max angular momentum: 1

  ==> Pre-Iterations <==

   -------------------------------------------------------
    Irrep   Nso     Nmo     Nalpha   Nbeta   Ndocc  Nsocc
   -------------------------------------------------------
     Ag         2       2       0       0       0       0
     B1g        0       0       0       0       0       0
     B2g        0       0       0       0       0       0
     B3g        0       0       0       0       0       0
     Au         0       0       0       0       0       0
     B1u        1       1       0       0       0       0
     B2u        1       1       0       0       0       0
     B3u        1       1       0       0       0       0
   -------------------------------------------------------
    Total       5       5       1       1       1       0
   -------------------------------------------------------

  Starting with a DF guess...

  ==> Integral Setup <==

  ==> DFJK: Density-Fitted J/K Matrices <==

    J tasked:                  Yes
    K tasked:                  Yes
    wK tasked:                  No
    OpenMP threads:              1
    Integrals threads:           1
    Memory (MB):               357
    Algorithm:                Core
    Integral Cache:           NONE
    Schwarz Cutoff:          1E-12
    Fitting Condition:       1E-12

   => Auxiliary Basis Set <=

  Basis Set: 
    Number of shells: 9
    Number of basis function: 23
    Number of Cartesian functions: 25
    Spherical Harmonics?: true
    Max angular momentum: 2

  Minimum eigenvalue in the overlap matrix is 3.6583226831E-01.
  Using Symmetric Orthogonalization.
  SCF Guess: Core (One-Electron) Hamiltonian.

  ==> Iterations <==

                           Total Energy        Delta E     RMS |[F,P]|

   @DF-ROHF iter   1:    -2.74197346189604   -2.74197e+00   1.72955e-01 
   @DF-ROHF iter   2:    -2.85442309020072   -1.12450e-01   1.40030e-02 DIIS
   @DF-ROHF iter   3:    -2.85518839364981   -7.65303e-04   3.60468e-05 DIIS
   @DF-ROHF iter   4:    -2.85518839872713   -5.07732e-09   9.34947e-09 DIIS
   @DF-ROHF iter   5:    -2.85518839872713   -1.33227e-15   1.10862e-12 DIIS

  DF guess converged.

  ==> Integral Setup <==

  ==> DiskJK: Disk-Based J/K Matrices <==

    J tasked:                  Yes
    K tasked:                  Yes
    wK tasked:                  No
    Memory (MB):               357
    Schwarz Cutoff:          1E-12

   @ROHF iter   6:    -2.85516047542131    2.79233e-05   2.15964e-05 DIIS
   @ROHF iter   7:    -2.85516047723229   -1.81098e-09   1.63570e-06 DIIS
   @ROHF iter   8:    -2.85516047724274   -1.04481e-11   8.81735e-13 DIIS

  ==> Post-Iterations <==

    Orbital Energies (a.u.)
    -----------------------

    Doubly Occupied:                                                      

       1Ag    -0.914148  

    Singly Occupied:                                                      

    

    Virtual:                                                              

       2Ag     1.397442     1B1u    2.524372     1B3u    2.524372  
       1B2u    2.524372  

    Final Occupation by Irrep:
             Ag   B1g   B2g   B3g    Au   B1u   B2u   B3u 
    DOCC [     1,    0,    0,    0,    0,    0,    0,    0 ]
    SOCC [     0,    0,    0,    0,    0,    0,    0,    0 ]

  Energy converged.

  @ROHF Final Energy:    -2.85516047724274

   => Energetics <=

    Nuclear Repulsion Energy =              0.0000000000000000
    One-Electron Energy =                  -3.8820251026064780
    Two-Electron Energy =                   1.0268646253637366
    DFT Exchange-Correlation Energy =       0.0000000000000000
    Empirical Dispersion Energy =           0.0000000000000000
    PCM Polarization Energy =               0.0000000000000000
    EFP Energy =                            0.0000000000000000
    Total Energy =                         -2.8551604772427415

    Alert: EFP and PCM quantities not currently incorporated into SCF psivars.

Properties will be evaluated at   0.000000,   0.000000,   0.000000 Bohr
  ==> Properties <==


Properties computed using the SCF density matrix

  Nuclear Dipole Moment: (a.u.)
     X:     0.0000      Y:     0.0000      Z:     0.0000

  Electronic Dipole Moment: (a.u.)
     X:     0.0000      Y:     0.0000      Z:     0.0000

  Dipole Moment: (a.u.)
     X:     0.0000      Y:     0.0000      Z:     0.0000     Total:     0.0000

  Dipole Moment: (Debye)
     X:     0.0000      Y:     0.0000      Z:     0.0000     Total:     0.0000


  Saving occupied orbitals to File 180.

*** tstop() called on dhcp189-173.emerson.emory.edu at Mon Jan 11 10:50:10 2016
Module time:
	user time   =       0.22 seconds =       0.00 minutes
	system time =       0.00 seconds =       0.00 minutes
	total time  =          0 seconds =       0.00 minutes
Total time:
	user time   =       0.22 seconds =       0.00 minutes
	system time =       0.00 seconds =       0.00 minutes
	total time  =          0 seconds =       0.00 minutes

*** tstart() called on dhcp189-173.emerson.emory.edu
*** at Mon Jan 11 10:50:10 2016


         ---------------------------------------------------------
                                   SCF
            by Justin Turney, Rob Parrish, and Andy Simmonett
                             ROHF Reference
                        1 Threads,    500 MiB Core
         ---------------------------------------------------------

  ==> Geometry <==

    Molecular point group: d2h
    Geometry (in Angstrom), charge = 0, multiplicity = 1:

       Center              X                  Y                   Z               Mass       
    ------------   -----------------  -----------------  -----------------  -----------------
          HE          0.000000000000     0.000000000000     0.000000000000     4.002603254150

  Running in d2h symmetry.

  Rotational constants: A = ************  B = ************  C = ************ [cm^-1]
  Rotational constants: A = ************  B = ************  C = ************ [MHz]
  Nuclear repulsion =    0.000000000000000

  Charge       = 0
  Multiplicity = 1
  Electrons    = 2
  Nalpha       = 1
  Nbeta        = 1

  ==> Algorithm <==

  SCF Algorithm Type is OUT_OF_CORE.
  DIIS enabled.
  MOM disabled.
  Fractional occupation disabled.
  Guess Type is CORE.
  Energy threshold   = 1.00e-10
  Density threshold  = 1.00e-10
  Integral threshold = 0.00e+00

  ==> Primary Basis <==

  Basis Set: CC-PVDZ
    Number of shells: 3
    Number of basis function: 5
    Number of Cartesian functions: 5
    Spherical Harmonics?: true
    Max angular momentum: 1

  ==> Pre-Iterations <==

   -------------------------------------------------------
    Irrep   Nso     Nmo     Nalpha   Nbeta   Ndocc  Nsocc
   -------------------------------------------------------
     Ag         2       2       0       0       0       0
     B1g        0       0       0       0       0       0
     B2g        0       0       0       0       0       0
     B3g        0       0       0       0       0       0
     Au         0       0       0       0       0       0
     B1u        1       1       0       0       0       0
     B2u        1       1       0       0       0       0
     B3u        1       1       0       0       0       0
   -------------------------------------------------------
    Total       5       5       1       1       1       0
   -------------------------------------------------------

  Starting with a DF guess...

  ==> Integral Setup <==

  ==> DFJK: Density-Fitted J/K Matrices <==

    J tasked:                  Yes
    K tasked:                  Yes
    wK tasked:                  No
    OpenMP threads:              1
    Integrals threads:           1
    Memory (MB):               357
    Algorithm:                Core
    Integral Cache:           NONE
    Schwarz Cutoff:          1E-12
    Fitting Condition:       1E-12

   => Auxiliary Basis Set <=

  Basis Set: 
    Number of shells: 9
    Number of basis function: 23
    Number of Cartesian functions: 25
    Spherical Harmonics?: true
    Max angular momentum: 2

  Minimum eigenvalue in the overlap matrix is 3.6583226831E-01.
  Using Symmetric Orthogonalization.
  SCF Guess: Core (One-Electron) Hamiltonian.

  ==> Iterations <==

                           Total Energy        Delta E     RMS |[F,P]|

   @DF-ROHF iter   1:    -2.74197346189604   -2.74197e+00   1.72955e-01 
   @DF-ROHF iter   2:    -2.85442309020072   -1.12450e-01   1.40030e-02 DIIS
   @DF-ROHF iter   3:    -2.85518839364981   -7.65303e-04   3.60468e-05 DIIS
   @DF-ROHF iter   4:    -2.85518839872713   -5.07732e-09   9.34947e-09 DIIS
   @DF-ROHF iter   5:    -2.85518839872713   -1.33227e-15   1.10862e-12 DIIS

  DF guess converged.

  ==> Integral Setup <==

  ==> DiskJK: Disk-Based J/K Matrices <==

    J tasked:                  Yes
    K tasked:                  Yes
    wK tasked:                  No
    Memory (MB):               357
    Schwarz Cutoff:          1E-12

   @ROHF iter   6:    -2.85516047542131    2.79233e-05   2.15964e-05 DIIS
   @ROHF iter   7:    -2.85516047723229   -1.81098e-09   1.63570e-06 DIIS
   @ROHF iter   8:    -2.85516047724274   -1.04481e-11   8.81735e-13 DIIS

  ==> Post-Iterations <==

    Orbital Energies (a.u.)
    -----------------------

    Doubly Occupied:                                                      

       1Ag    -0.914148  

    Singly Occupied:                                                      

    

    Virtual:                                                              

       2Ag     1.397442     1B2u    2.524372     1B1u    2.524372  
       1B3u    2.524372  

    Final Occupation by Irrep:
             Ag   B1g   B2g   B3g    Au   B1u   B2u   B3u 
    DOCC [     1,    0,    0,    0,    0,    0,    0,    0 ]
    SOCC [     0,    0,    0,    0,    0,    0,    0,    0 ]

  Energy converged.

  @ROHF Final Energy:    -2.85516047724274

   => Energetics <=

    Nuclear Repulsion Energy =              0.0000000000000000
    One-Electron Energy =                  -3.8820251026064780
    Two-Electron Energy =                   1.0268646253637366
    DFT Exchange-Correlation Energy =       0.0000000000000000
    Empirical Dispersion Energy =           0.0000000000000000
    PCM Polarization Energy =               0.0000000000000000
    EFP Energy =                            0.0000000000000000
    Total Energy =                         -2.8551604772427415

    Alert: EFP and PCM quantities not currently incorporated into SCF psivars.

Properties will be evaluated at   0.000000,   0.000000,   0.000000 Bohr
  ==> Properties <==


Properties computed using the SCF density matrix

  Nuclear Dipole Moment: (a.u.)
     X:     0.0000      Y:     0.0000      Z:     0.0000

  Electronic Dipole Moment: (a.u.)
     X:     0.0000      Y:     0.0000      Z:     0.0000

  Dipole Moment: (a.u.)
     X:     0.0000      Y:     0.0000      Z:     0.0000     Total:     0.0000

  Dipole Moment: (Debye)
     X:     0.0000      Y:     0.0000      Z:     0.0000     Total:     0.0000


  Saving occupied orbitals to File 180.

*** tstop() called on dhcp189-173.emerson.emory.edu at Mon Jan 11 10:50:10 2016
Module time:
	user time   =       0.23 seconds =       0.00 minutes
	system time =       0.01 seconds =       0.00 minutes
	total time  =          0 seconds =       0.00 minutes
Total time:
	user time   =       0.48 seconds =       0.01 minutes
	system time =       0.01 seconds =       0.00 minutes
	total time  =          0 seconds =       0.00 minutes

         ---------------------------------------------------------
                                 D E T C I  

                             C. David Sherrill
                             Matt L. Leininger
                               18 June 1999
         ---------------------------------------------------------

Warning: iopen=0,opentype!=closed. Making iopen=1

DETCI PARAMETERS: 
   EX LEVEL      =        2      H0 BLOCKSIZE =      400
   VAL EX LEVEL  =        0      H0 GUESS SIZE=      400
   H0COUPLINGSIZE=        0      H0 COUPLING  =       no
   MAXITER       =       12      NUM PRINT    =       20
   NUM ROOTS     =        1      ICORE        =        1
   PRINT         =        1      FCI          =      yes
   R CONV        = 1.00e-07      MIXED        =      yes
   E CONV        = 1.00e-10      MIXED4       =      yes
   OEI FILE      =       35      R4S          =       no
   REPL OTF      =       no
   TEI FILE      =       72      DIAG METHOD  =      SEM
   PRECONDITIONER= DAVIDSON      UPDATE       = DAVIDSON
   S             =   1.0000      Ms0          =      yes
   MAX NUM VECS  =       13
   RESTART       =       no
   GUESS VECTOR  =   D FILE      OPENTYPE     =  SINGLET
   REF SYM       =     auto
   COLLAPSE SIZE =        1      HD AVG       = EVANGELISTI
   LSE           =       no      LSE ITER     =        0
   HD OTF        =      yes      NO DFILE     =       no
   MPN           =       no      MPN SCHMIDT  =       no
   ZAPTN         =       no      MPN WIGNER   =       no
   PERT Z        =   1.0000      FOLLOW ROOT  =        0
   NUM THREADS   =        1
   VECS WRITE    =       no      NUM VECS WRITE =      0
   FILTER GUESS  =       no      SF RESTRICT  =       no
   OPDM          =      yes      TRANS DENSITY=       no

   FILES         =  50 51 52 53

   EX ALLOW      =  1  1 
   STATE AVERAGE =  1(1.00) 

ORBITALS:
   NMO          =        5
   FROZEN CORE  =        0      RESTR CORE   =        0
   FROZEN VIRT  =        0      RESTR VIRT   =        3
   DROPPED CORE =        0      DROPPED VIRT =        3
   EXPLICIT CORE=        0      ORBS IN CI   =        2
   NUM ALP      =        1      NUM BET      =        1
   NUM ALP EXPL =        1      NUM BET EXPL =        1
   IOPEN        =      yes

   DOCC            =   1   0   0   0   0   0   0   0 
   SOCC            =   0   0   0   0   0   0   0   0 

   FROZEN DOCC     =   0   0   0   0   0   0   0   0 
   RESTRICTED DOCC =   0   0   0   0   0   0   0   0 
   ACTIVE          =   2   0   0   0   0   0   0   0 
   RESTRICTED UOCC =   0   0   0   0   0   1   1   1 
   FROZEN UOCC     =   0   0   0   0   0   0   0   0 
         ---------------------------------------------------------


   ==> Setting up CI strings <==

   There are 2 alpha and 2 beta strings
   The CI space requires 4 (4.00E+00) determinants and 1 blocks


   ==> Setting up MCSCF integrals <==


   ==> Starting MCSCF iterations <==

                        Total Energy        Delta E      RMS Grad   NCI

(sem_iter): H0block_->H0b_diag[0][0] - H0block_->H0b_diag[0][0] = 1.000000 - -1.000000 = 2.000000 > 1.0E-8
  ## IFock (Symmetry 0) ##
  Irrep: 1 Size: 2 x 2

                 1                   2

    1    -1.94101255130377    -0.31644683544545
    2    -0.31644683544545    -0.09023799659205



  Irrep: 2 Size: 0 x 0

	(empty)

  Irrep: 3 Size: 0 x 0

	(empty)

  Irrep: 4 Size: 0 x 0

	(empty)

  Irrep: 5 Size: 0 x 0

	(empty)

  Irrep: 6 Size: 1 x 1

                 1

    1     0.78499729043523



  Irrep: 7 Size: 1 x 1

                 1

    1     0.78499729043523



  Irrep: 8 Size: 1 x 1

                 1

    1     0.78499729043523



Printing the Q matrix
  ## Q (Symmetry 0) ##
  Irrep: 1 Size: 2 x 2

                 1                   2

    1     0.63008727119452    -0.00000000000000
    2     0.00000000000000     0.63008727119452



  Irrep: 2 Size: 0 x 0

	(empty)

  Irrep: 3 Size: 0 x 0

	(empty)

  Irrep: 4 Size: 0 x 0

	(empty)

  Irrep: 5 Size: 0 x 0

	(empty)

  Irrep: 6 Size: 0 x 1

	(empty)

  Irrep: 7 Size: 0 x 1

	(empty)

  Irrep: 8 Size: 0 x 1

	(empty)

  ## Gradient (Symmetry 0) ##
  Irrep: 1 Size: 2 x 2

                 1                   2

    1     0.00000000000000     0.00000000000000
    2     0.00000000000000     0.00000000000000



  Irrep: 2 Size: 0 x 0

	(empty)

  Irrep: 3 Size: 0 x 0

	(empty)

  Irrep: 4 Size: 0 x 0

	(empty)

  Irrep: 5 Size: 0 x 0

	(empty)

  Irrep: 6 Size: 0 x 1

	(empty)

  Irrep: 7 Size: 0 x 1

	(empty)

  Irrep: 8 Size: 0 x 1

	(empty)

  ## Approximate diag hessian (Symmetry 0) ##
  Irrep: 1 Size: 2 x 2

                 1                   2

    1     1.00000000000000     1.00000000000000
    2     1.00000000000000     1.00000000000000



  Irrep: 2 Size: 0 x 0

	(empty)

  Irrep: 3 Size: 0 x 0

	(empty)

  Irrep: 4 Size: 0 x 0

	(empty)

  Irrep: 5 Size: 0 x 0

	(empty)

  Irrep: 6 Size: 0 x 1

	(empty)

  Irrep: 7 Size: 0 x 1

	(empty)

  Irrep: 8 Size: 0 x 1

	(empty)

   @MCSCF Iter   1:  -1.40116327670131    1.4540e+00   0.0000e+00   1   Initial CI
  ## Rotation Matrix (Symmetry 0) ##
  Irrep: 1 Size: 2 x 2

                 1                   2

    1     0.00000000000000     0.00000000000000
    2     0.00000000000000     0.00000000000000



  Irrep: 2 Size: 0 x 0

	(empty)

  Irrep: 3 Size: 0 x 0

	(empty)

  Irrep: 4 Size: 0 x 0

	(empty)

  Irrep: 5 Size: 0 x 0

	(empty)

  Irrep: 6 Size: 0 x 1

	(empty)

  Irrep: 7 Size: 0 x 1

	(empty)

  Irrep: 8 Size: 0 x 1

	(empty)

  ## IFock (Symmetry 0) ##
  Irrep: 1 Size: 2 x 2

                 1                   2

    1    -1.94101255130377    -0.31644683544545
    2    -0.31644683544545    -0.09023799659205



  Irrep: 2 Size: 0 x 0

	(empty)

  Irrep: 3 Size: 0 x 0

	(empty)

  Irrep: 4 Size: 0 x 0

	(empty)

  Irrep: 5 Size: 0 x 0

	(empty)

  Irrep: 6 Size: 1 x 1

                 1

    1     0.78499729043523



  Irrep: 7 Size: 1 x 1

                 1

    1     0.78499729043523



  Irrep: 8 Size: 1 x 1

                 1

    1     0.78499729043523



Printing the Q matrix
  ## Q (Symmetry 0) ##
  Irrep: 1 Size: 2 x 2

                 1                   2

    1     0.63008727119452    -0.00000000000000
    2     0.00000000000000     0.63008727119452



  Irrep: 2 Size: 0 x 0

	(empty)

  Irrep: 3 Size: 0 x 0

	(empty)

  Irrep: 4 Size: 0 x 0

	(empty)

  Irrep: 5 Size: 0 x 0

	(empty)

  Irrep: 6 Size: 0 x 1

	(empty)

  Irrep: 7 Size: 0 x 1

	(empty)

  Irrep: 8 Size: 0 x 1

	(empty)

  ## Gradient (Symmetry 0) ##
  Irrep: 1 Size: 2 x 2

                 1                   2

    1     0.00000000000000     0.00000000000000
    2     0.00000000000000     0.00000000000000



  Irrep: 2 Size: 0 x 0

	(empty)

  Irrep: 3 Size: 0 x 0

	(empty)

  Irrep: 4 Size: 0 x 0

	(empty)

  Irrep: 5 Size: 0 x 0

	(empty)

  Irrep: 6 Size: 0 x 1

	(empty)

  Irrep: 7 Size: 0 x 1

	(empty)

  Irrep: 8 Size: 0 x 1

	(empty)

  ## Approximate diag hessian (Symmetry 0) ##
  Irrep: 1 Size: 2 x 2

                 1                   2

    1     1.00000000000000     1.00000000000000
    2     1.00000000000000     1.00000000000000



  Irrep: 2 Size: 0 x 0

	(empty)

  Irrep: 3 Size: 0 x 0

	(empty)

  Irrep: 4 Size: 0 x 0

	(empty)

  Irrep: 5 Size: 0 x 0

	(empty)

  Irrep: 6 Size: 0 x 1

	(empty)

  Irrep: 7 Size: 0 x 1

	(empty)

  Irrep: 8 Size: 0 x 1

	(empty)

   @MCSCF Iter   2:  -1.40116327670131    0.0000e+00   0.0000e+00   1   APPROX
  ## Rotation Matrix (Symmetry 0) ##
  Irrep: 1 Size: 2 x 2

                 1                   2

    1     0.00000000000000     0.00000000000000
    2     0.00000000000000     0.00000000000000



  Irrep: 2 Size: 0 x 0

	(empty)

  Irrep: 3 Size: 0 x 0

	(empty)

  Irrep: 4 Size: 0 x 0

	(empty)

  Irrep: 5 Size: 0 x 0

	(empty)

  Irrep: 6 Size: 0 x 1

	(empty)

  Irrep: 7 Size: 0 x 1

	(empty)

  Irrep: 8 Size: 0 x 1

	(empty)

  ## IFock (Symmetry 0) ##
  Irrep: 1 Size: 2 x 2

                 1                   2

    1    -1.94101255130377    -0.31644683544545
    2    -0.31644683544545    -0.09023799659205



  Irrep: 2 Size: 0 x 0

	(empty)

  Irrep: 3 Size: 0 x 0

	(empty)

  Irrep: 4 Size: 0 x 0

	(empty)

  Irrep: 5 Size: 0 x 0

	(empty)

  Irrep: 6 Size: 1 x 1

                 1

    1     0.78499729043523



  Irrep: 7 Size: 1 x 1

                 1

    1     0.78499729043523



  Irrep: 8 Size: 1 x 1

                 1

    1     0.78499729043523



Printing the Q matrix
  ## Q (Symmetry 0) ##
  Irrep: 1 Size: 2 x 2

                 1                   2

    1     0.63008727119452    -0.00000000000000
    2     0.00000000000000     0.63008727119452



  Irrep: 2 Size: 0 x 0

	(empty)

  Irrep: 3 Size: 0 x 0

	(empty)

  Irrep: 4 Size: 0 x 0

	(empty)

  Irrep: 5 Size: 0 x 0

	(empty)

  Irrep: 6 Size: 0 x 1

	(empty)

  Irrep: 7 Size: 0 x 1

	(empty)

  Irrep: 8 Size: 0 x 1

	(empty)

  ## Gradient (Symmetry 0) ##
  Irrep: 1 Size: 2 x 2

                 1                   2

    1     0.00000000000000     0.00000000000000
    2     0.00000000000000     0.00000000000000



  Irrep: 2 Size: 0 x 0

	(empty)

  Irrep: 3 Size: 0 x 0

	(empty)

  Irrep: 4 Size: 0 x 0

	(empty)

  Irrep: 5 Size: 0 x 0

	(empty)

  Irrep: 6 Size: 0 x 1

	(empty)

  Irrep: 7 Size: 0 x 1

	(empty)

  Irrep: 8 Size: 0 x 1

	(empty)

  ## Approximate diag hessian (Symmetry 0) ##
  Irrep: 1 Size: 2 x 2

                 1                   2

    1     1.00000000000000     1.00000000000000
    2     1.00000000000000     1.00000000000000



  Irrep: 2 Size: 0 x 0

	(empty)

  Irrep: 3 Size: 0 x 0

	(empty)

  Irrep: 4 Size: 0 x 0

	(empty)

  Irrep: 5 Size: 0 x 0

	(empty)

  Irrep: 6 Size: 0 x 1

	(empty)

  Irrep: 7 Size: 0 x 1

	(empty)

  Irrep: 8 Size: 0 x 1

	(empty)

   @MCSCF Iter   3:  -1.40116327670131    0.0000e+00   0.0000e+00   1   APPROX
  ## Rotation Matrix (Symmetry 0) ##
  Irrep: 1 Size: 2 x 2

                 1                   2

    1     0.00000000000000     0.00000000000000
    2     0.00000000000000     0.00000000000000



  Irrep: 2 Size: 0 x 0

	(empty)

  Irrep: 3 Size: 0 x 0

	(empty)

  Irrep: 4 Size: 0 x 0

	(empty)

  Irrep: 5 Size: 0 x 0

	(empty)

  Irrep: 6 Size: 0 x 1

	(empty)

  Irrep: 7 Size: 0 x 1

	(empty)

  Irrep: 8 Size: 0 x 1

	(empty)

  ## IFock (Symmetry 0) ##
  Irrep: 1 Size: 2 x 2

                 1                   2

    1    -1.94101255130377    -0.31644683544545
    2    -0.31644683544545    -0.09023799659205



  Irrep: 2 Size: 0 x 0

	(empty)

  Irrep: 3 Size: 0 x 0

	(empty)

  Irrep: 4 Size: 0 x 0

	(empty)

  Irrep: 5 Size: 0 x 0

	(empty)

  Irrep: 6 Size: 1 x 1

                 1

    1     0.78499729043523



  Irrep: 7 Size: 1 x 1

                 1

    1     0.78499729043523



  Irrep: 8 Size: 1 x 1

                 1

    1     0.78499729043523



Printing the Q matrix
  ## Q (Symmetry 0) ##
  Irrep: 1 Size: 2 x 2

                 1                   2

    1     0.63008727119452    -0.00000000000000
    2     0.00000000000000     0.63008727119452



  Irrep: 2 Size: 0 x 0

	(empty)

  Irrep: 3 Size: 0 x 0

	(empty)

  Irrep: 4 Size: 0 x 0

	(empty)

  Irrep: 5 Size: 0 x 0

	(empty)

  Irrep: 6 Size: 0 x 1

	(empty)

  Irrep: 7 Size: 0 x 1

	(empty)

  Irrep: 8 Size: 0 x 1

	(empty)

  ## Gradient (Symmetry 0) ##
  Irrep: 1 Size: 2 x 2

                 1                   2

    1     0.00000000000000     0.00000000000000
    2     0.00000000000000     0.00000000000000



  Irrep: 2 Size: 0 x 0

	(empty)

  Irrep: 3 Size: 0 x 0

	(empty)

  Irrep: 4 Size: 0 x 0

	(empty)

  Irrep: 5 Size: 0 x 0

	(empty)

  Irrep: 6 Size: 0 x 1

	(empty)

  Irrep: 7 Size: 0 x 1

	(empty)

  Irrep: 8 Size: 0 x 1

	(empty)

  ## Approximate diag hessian (Symmetry 0) ##
  Irrep: 1 Size: 2 x 2

                 1                   2

    1     1.00000000000000     1.00000000000000
    2     1.00000000000000     1.00000000000000



  Irrep: 2 Size: 0 x 0

	(empty)

  Irrep: 3 Size: 0 x 0

	(empty)

  Irrep: 4 Size: 0 x 0

	(empty)

  Irrep: 5 Size: 0 x 0

	(empty)

  Irrep: 6 Size: 0 x 1

	(empty)

  Irrep: 7 Size: 0 x 1

	(empty)

  Irrep: 8 Size: 0 x 1

	(empty)

   @MCSCF Iter   4:  -1.40116327670131    0.0000e+00   0.0000e+00   1   APPROX

       MCSCF has converged!

   @MCSCF Final Energy:    -1.401163276701310


   => Energetics <=

   SCF energy =               -2.855160477242741
   Total CI energy =          -1.401163276701310


   CI Root  1 energy =        -1.401163276701310


The 4 most important determinants

    1   -0.707107  (    0,    1)  1AgA  2AgB  
    2    0.707107  (    1,    0)  1AgB  2AgA  


Reading options from the FORTE block
Calling plugin /Users/kevinhannon/Programs/forte/forte.so.


  ==> MO Space Information <==

  Read options for space ACTIVE
  -------------------------------------------------------------------------
                       Ag   B1g   B2g   B3g    Au   B1u   B2u   B3u   Sum
  -------------------------------------------------------------------------
    FROZEN_DOCC         0     0     0     0     0     0     0     0     0
    RESTRICTED_DOCC     0     0     0     0     0     0     0     0     0
    ACTIVE              2     0     0     0     0     0     0     0     2
    RESTRICTED_UOCC     0     0     0     0     0     1     1     1     3
    FROZEN_UOCC         0     0     0     0     0     0     0     0     0
    Total               2     0     0     0     0     1     1     1     5
  -------------------------------------------------------------------------

  ==> Integral Transformation <==

  Number of molecular orbitals:                5
  Number of correlated molecular orbitals:     5
  Number of frozen occupied orbitals:          0
  Number of frozen unoccupied orbitals:        0


  Overall Conventional Integrals timings

	Presorting SO-basis two-electron integrals.
	Sorting File: SO Ints (nn|nn) nbuckets = 1
	Transforming the one-electron integrals and constructing Fock matrices
	Starting first half-transformation.
	Sorting half-transformed integrals.
	First half integral transformation complete.
	Starting second half-transformation.
	Two-electron integral transformation complete.

  Integral transformation done. 0.00467600 s
  Reading the two-electron integrals from disk
  Size of two-electron integrals:   0.000014 GB
  Conventional integrals take 0.00551500 s

                -----------------------------------------------
                  Complete Active Space Self Consistent Field
                                 Kevin Hannon
                -----------------------------------------------


  ==> CASSCF Iteration <==

 iter    ||g||           Delta_E            E_CASSCF       CONV_TYPE
 E_casscf: 0.00000000	Presorting SO-basis two-electron integrals.
	Sorting File: SO Ints (nn|nn) nbuckets = 1
	Transforming the one-electron integrals and constructing Fock matrices
	Starting first half-transformation.
	Sorting half-transformed integrals.
	First half integral transformation complete.
	Starting second half-transformation.
	Two-electron integral transformation complete.

  Integral transformation done. 0.00532100 s
  Reading the two-electron integrals from disk
  Size of two-electron integrals:   0.000014 GB
  Frozen Orbitals takes     0.000 s.

  ==> Input Summary <==

    number of atoms                =     1
    number of electrons            =     2
    molecular charge               =     0
    number of alpha electrons      =     1
    number of beta electrons       =     1
    multiplicity                   =     3
    ms (2 * Sz)                    =     0
    number of molecular orbitals   =     5

  ==> Orbital Spaces <==

    TOTAL MO                      [    2     0     0     0     0     1     1     1 ]
    FROZEN CORE                   [    0     0     0     0     0     0     0     0 ]
    FROZEN VIRTUAL                [    0     0     0     0     0     0     0     0 ]
    CORRELATED MO                 [    2     0     0     0     0     1     1     1 ]
    CORE                          [    0     0     0     0     0     0     0     0 ]
    ACTIVE                        [    2     0     0     0     0     0     0     0 ]
    VIRTUAL                       [    0     0     0     0     0     1     1     1 ]

  ==> Correlated Subspace Indices <==

    CORE                          
    ACTIVE                           0    1 
    HOLE                             0    1 
    VIRTUAL                          2    3    4 
    PARTICLE                         0    1    2    3    4 


              ---------------------------------------------------
                Complete Active Space Configuration Interaction
                                  Chenyang Li
              ---------------------------------------------------


  ==> Reference String <==
    1 0 

  ==> Singles String <==

  symmetry = 0 
    0 1 

  Forming determinants                ...  Done. Timing        0.000006 s

  ==> Determinants Summary <==

    number of alpha active electrons    =     1
    number of beta active electrons     =     1
    root symmetry (zero based)          =     0
    number of determinants              =     3

  ==> Determinants |alpha|beta> <==
  
  |20>  
  |-+>  
  |+->


  Diagonalizing Hamiltonian           ...

  Reference type: ROHF
  Threshold for spin check: 0.0001

  Ask for S^2 = 2.0000, this S^2 = 0.0000, continue searching...

  Spin State: S^2 = 2.000, S = 1.000, triplet (from 3 determinants)  Done. Timing        0.000126 s

  * * * * * * * * * * * * * * * * *
  *  CI Vectors & Configurations  *
  * * * * * * * * * * * * * * * * *

  ==> Root No. 1 <==

    ab            0.70710678
    ba           -0.70710678

    Total Energy:   -1.401163276701310


  Forming one-particle density        ...  Done. Timing        0.000120 s
  Forming generalized Fock matrix     ...  Done. Timing        0.000009 s
  Checking Fock matrices (Fa, Fb)     ...
  Nonzero criteria: > 1.00E-10
  Fa_CORE    block is diagonal.
  Fb_CORE    block is diagonal.
  Fa_ACT_O   block is diagonal.
  Fb_ACT_O   block is diagonal.
  Fa_ACT_V   block is diagonal.
  Fb_ACT_V   block is diagonal.
  Fa_VIRTUAL block is diagonal.
  Fb_VIRTUAL block is diagonal.
  Done checking Fock matrices.                   Timing        0.000046 s

  Forming Lambda2                     ...  Done. Timing        0.000318 s
  Forming Lambda3                     ...  Done. Timing        0.000178 s

 FormFockCore took 0.00002800 s.

 FormFockActive took 0.04885600 s.

 FormOrbitalGradient took 0.00015200 s.

 FormDiagHessian took 0.00001700 s.

 Update function takes 0.04909100 s

 TransInts: 0.04988400
    0   0.000000000000   1.401163276701   -1.401163276701       	Presorting SO-basis two-electron integrals.
	Sorting File: SO Ints (nn|nn) nbuckets = 1
	Transforming the one-electron integrals and constructing Fock matrices
	Starting first half-transformation.
	Sorting half-transformed integrals.
	First half integral transformation complete.
	Starting second half-transformation.
	Two-electron integral transformation complete.

  Integral transformation done. 0.00475800 s
  Reading the two-electron integrals from disk
  Size of two-electron integrals:   0.000014 GB
  Frozen Orbitals takes     0.000 s.

  ==> Input Summary <==

    number of atoms                =     1
    number of electrons            =     2
    molecular charge               =     0
    number of alpha electrons      =     1
    number of beta electrons       =     1
    multiplicity                   =     3
    ms (2 * Sz)                    =     0
    number of molecular orbitals   =     5

  ==> Orbital Spaces <==

    TOTAL MO                      [    2     0     0     0     0     1     1     1 ]
    FROZEN CORE                   [    0     0     0     0     0     0     0     0 ]
    FROZEN VIRTUAL                [    0     0     0     0     0     0     0     0 ]
    CORRELATED MO                 [    2     0     0     0     0     1     1     1 ]
    CORE                          [    0     0     0     0     0     0     0     0 ]
    ACTIVE                        [    2     0     0     0     0     0     0     0 ]
    VIRTUAL                       [    0     0     0     0     0     1     1     1 ]

  ==> Correlated Subspace Indices <==

    CORE                          
    ACTIVE                           0    1 
    HOLE                             0    1 
    VIRTUAL                          2    3    4 
    PARTICLE                         0    1    2    3    4 


              ---------------------------------------------------
                Complete Active Space Configuration Interaction
                                  Chenyang Li
              ---------------------------------------------------


  ==> Reference String <==
    1 0 

  ==> Singles String <==

  symmetry = 0 
    0 1 

  Forming determinants                ...  Done. Timing        0.000004 s

  ==> Determinants Summary <==

    number of alpha active electrons    =     1
    number of beta active electrons     =     1
    root symmetry (zero based)          =     0
    number of determinants              =     3

  ==> Determinants |alpha|beta> <==
  
  |20>  
  |-+>  
  |+->


  Diagonalizing Hamiltonian           ...

  Reference type: ROHF
  Threshold for spin check: 0.0001

  Ask for S^2 = 2.0000, this S^2 = 0.0000, continue searching...

  Spin State: S^2 = 2.000, S = 1.000, triplet (from 3 determinants)  Done. Timing        0.000090 s

  * * * * * * * * * * * * * * * * *
  *  CI Vectors & Configurations  *
  * * * * * * * * * * * * * * * * *

  ==> Root No. 1 <==

    ab            0.70710678
    ba           -0.70710678

    Total Energy:   -1.401163276701310


  Forming one-particle density        ...  Done. Timing        0.000103 s
  Forming generalized Fock matrix     ...  Done. Timing        0.000010 s
  Checking Fock matrices (Fa, Fb)     ...
  Nonzero criteria: > 1.00E-10
  Fa_CORE    block is diagonal.
  Fb_CORE    block is diagonal.
  Fa_ACT_O   block is diagonal.
  Fb_ACT_O   block is diagonal.
  Fa_ACT_V   block is diagonal.
  Fb_ACT_V   block is diagonal.
  Fa_VIRTUAL block is diagonal.
  Fb_VIRTUAL block is diagonal.
  Done checking Fock matrices.                   Timing        0.000040 s

  Forming Lambda2                     ...  Done. Timing        0.000307 s
  Forming Lambda3                     ...  Done. Timing        0.000155 s

 FormFockCore took 0.00001900 s.

 FormFockActive took 0.04905600 s.

 FormOrbitalGradient took 0.00013300 s.

 FormDiagHessian took 0.00001000 s.

 Update function takes 0.04925600 s

 TransInts: 0.05628500
    1   0.000000000000   0.000000000000   -1.401163276701       	Presorting SO-basis two-electron integrals.
	Sorting File: SO Ints (nn|nn) nbuckets = 1
	Transforming the one-electron integrals and constructing Fock matrices
	Starting first half-transformation.
	Sorting half-transformed integrals.
	First half integral transformation complete.
	Starting second half-transformation.
	Two-electron integral transformation complete.

  Integral transformation done. 0.00457400 s
  Reading the two-electron integrals from disk
  Size of two-electron integrals:   0.000014 GB
  Frozen Orbitals takes     0.000 s.

  ==> Input Summary <==

    number of atoms                =     1
    number of electrons            =     2
    molecular charge               =     0
    number of alpha electrons      =     1
    number of beta electrons       =     1
    multiplicity                   =     3
    ms (2 * Sz)                    =     0
    number of molecular orbitals   =     5

  ==> Orbital Spaces <==

    TOTAL MO                      [    2     0     0     0     0     1     1     1 ]
    FROZEN CORE                   [    0     0     0     0     0     0     0     0 ]
    FROZEN VIRTUAL                [    0     0     0     0     0     0     0     0 ]
    CORRELATED MO                 [    2     0     0     0     0     1     1     1 ]
    CORE                          [    0     0     0     0     0     0     0     0 ]
    ACTIVE                        [    2     0     0     0     0     0     0     0 ]
    VIRTUAL                       [    0     0     0     0     0     1     1     1 ]

  ==> Correlated Subspace Indices <==

    CORE                          
    ACTIVE                           0    1 
    HOLE                             0    1 
    VIRTUAL                          2    3    4 
    PARTICLE                         0    1    2    3    4 


              ---------------------------------------------------
                Complete Active Space Configuration Interaction
                                  Chenyang Li
              ---------------------------------------------------


  ==> Reference String <==
    1 0 

  ==> Singles String <==

  symmetry = 0 
    0 1 

  Forming determinants                ...  Done. Timing        0.000004 s

  ==> Determinants Summary <==

    number of alpha active electrons    =     1
    number of beta active electrons     =     1
    root symmetry (zero based)          =     0
    number of determinants              =     3

  ==> Determinants |alpha|beta> <==
  
  |20>  
  |-+>  
  |+->


  Diagonalizing Hamiltonian           ...

  Reference type: ROHF
  Threshold for spin check: 0.0001

  Ask for S^2 = 2.0000, this S^2 = 0.0000, continue searching...

  Spin State: S^2 = 2.000, S = 1.000, triplet (from 3 determinants)  Done. Timing        0.000087 s

  * * * * * * * * * * * * * * * * *
  *  CI Vectors & Configurations  *
  * * * * * * * * * * * * * * * * *

  ==> Root No. 1 <==

    ab            0.70710678
    ba           -0.70710678

    Total Energy:   -1.401163276701310


  Forming one-particle density        ...  Done. Timing        0.000103 s
  Forming generalized Fock matrix     ...  Done. Timing        0.000009 s
  Checking Fock matrices (Fa, Fb)     ...
  Nonzero criteria: > 1.00E-10
  Fa_CORE    block is diagonal.
  Fb_CORE    block is diagonal.
  Fa_ACT_O   block is diagonal.
  Fb_ACT_O   block is diagonal.
  Fa_ACT_V   block is diagonal.
  Fb_ACT_V   block is diagonal.
  Fa_VIRTUAL block is diagonal.
  Fb_VIRTUAL block is diagonal.
  Done checking Fock matrices.                   Timing        0.000039 s

  Forming Lambda2                     ...  Done. Timing        0.000308 s
  Forming Lambda3                     ...  Done. Timing        0.000156 s

 FormFockCore took 0.00002000 s.

 FormFockActive took 0.04875500 s.

 FormOrbitalGradient took 0.00013600 s.

 FormDiagHessian took 0.00001000 s.

 Update function takes 0.04895900 s

 @E_CASSCF: = -1.401163276701 


 Norm of orbital_gradient is 0.00000000

 Energy difference: 0.000000000000	Presorting SO-basis two-electron integrals.
	Sorting File: SO Ints (nn|nn) nbuckets = 1
	Transforming the one-electron integrals and constructing Fock matrices
	Starting first half-transformation.
	Sorting half-transformed integrals.
	First half integral transformation complete.
	Starting second half-transformation.
	Two-electron integral transformation complete.

  Integral transformation done. 0.01343700 s
  Reading the two-electron integrals from disk
  Size of two-electron integrals:   0.000014 GB
  Frozen Orbitals takes     0.000 s.	Presorting SO-basis two-electron integrals.
	Sorting File: SO Ints (nn|nn) nbuckets = 1
	Transforming the one-electron integrals and constructing Fock matrices
	Starting first half-transformation.
	Sorting half-transformed integrals.
	First half integral transformation complete.
	Starting second half-transformation.
	Two-electron integral transformation complete.

  Integral transformation done. 0.00400700 s
  Reading the two-electron integrals from disk
  Size of two-electron integrals:   0.000014 GB
  Frozen Orbitals takes     0.000 s.

  Your calculation took 0.54760000 seconds

*** PSI4 exiting successfully. Buy a developer a beer!
