
    -----------------------------------------------------------------------
          Psi4: An Open-Source Ab Initio Electronic Structure Package
                               Psi4 1.1a2.dev288 

                         Git: Rev {master} e63fa60 


    R. M. Parrish, L. A. Burns, D. G. A. Smith, A. C. Simmonett,
    A. E. DePrince III, E. G. Hohenstein, U. Bozkaya, A. Yu. Sokolov,
    R. Di Remigio, R. M. Richard, J. F. Gonthier, A. M. James,
    H. R. McAlexander, A. Kumar, M. Saitow, X. Wang, B. P. Pritchard,
    P. Verma, H. F. Schaefer III, K. Patkowski, R. A. King, E. F. Valeev,
    F. A. Evangelista, J. M. Turney, T. D. Crawford, and C. D. Sherrill,
    submitted.

    -----------------------------------------------------------------------


    Psi4 started on: Tuesday, 07 March 2017 04:03PM

    Process ID:  43118
    PSIDATADIR: /Users/jeffschriber/src/psi4_debug_install/share/psi4
    Memory:     500.0 MiB
    Threads:    1
    
  ==> Input File <==

--------------------------------------------------------------------------
#! Generated using commit GITCOMMIT
#! Perform a computation of HF without storing DISKDF

import forte

refmcscf     = -99.939316381644 #cc-pvdz
refdsrgpt2_jk_rd = -100.104931519788110

memory 500 mb

molecule HF{
  0 1
  F
  H  1 R
  R = 1.50
}

set globals{
   basis                   cc-pvdz
   df_basis_mp2            cc-pvdz-ri
   df_basis_scf            cc-pvdz-jkfit
   reference               twocon
   scf_type                DF
   d_convergence           12
   e_convergence           15
}

set mcscf{
   docc                   [2,0,1,1]
   socc                   [2,0,0,0]
   maxiter                 1000
   level_shift             2.0
}

set forte {
   multiplicity			   1
   frozen_docc            [0,0,0,0]
   restricted_docc        [0,0,0,0]
   active                 [5,0,1,2]
   root_sym                0
   nroot                   1
   aci_nroot                   1
   dsrg_s                  1.0
   int_type                df
   job_type                three-dsrg-mrpt2
   cas_type                ACI
   aci_select_type             amp
   sigma					   0.001
}

scf, wfn = energy('mcscf', return_wfn=True)
energy('forte', ref_wfn = wfn)

compare_values(refmcscf, scf,10,"SCF energy")
compare_values(refdsrgpt2_jk_rd, get_variable("CURRENT ENERGY"),10,"DF-DSRG-MRPT2 energy")
--------------------------------------------------------------------------
/Users/jeffschriber/src/forte/forte.so loaded.

  Memory set to 500.000 MiB by Python driver.

*** tstart() called on Jeffs-MacBook-Pro-2.local
*** at Tue Mar  7 16:03:56 2017


         ------------------------------------------
           MCSCF: a self-consistent field program
            written by Francesco A. Evangelista
         ------------------------------------------

  MOs per irrep:                                      A1  A2  B1  B2 Total
  ----------------------------------------------------------------------------
  Total                                               10    1    4    4    19
  Doubly Occupied                                      2    0    1    1     4
  Active/Singly Occupied                               2    0    0    0     2
  ----------------------------------------------------------------------------

  Running an SCF calculation
  TWOCON MOs = [2 (A1),3 (A1)]

  Generated 190 pairs
  Distributed as [76 A1][26 A2][44 B1][44 B2]
  batch   0 pq = [       0,      76] index = [               0,            2926]

  Allocated the PK matrix (2926 elements) 
  Allocated the  K matrix (2926 elements) 
  Reading the two-electron integrals to form PK and K ... 
  batch   0 ... done.


  =========================================================================================
         Cycle          Energy               D(Energy)            D(Density)            DIIS
  ===========================================================================================
  Setting level shift to 2.000 S
  @SCF    0      -93.745779875389     -93.745779875389       0.147704440309
    ci      = [ 0.00000000, 0.00000000]
    ci_grad = [ 0.00000000, 0.00000000]
  Setting level shift to 2.000 S
  @SCF    1      -98.407782353312      -4.662002477922       0.112176394879
    ci      = [ 0.00000000, 0.00000000]
    ci_grad = [ 0.00000000, 0.00000000]
  Setting level shift to 2.000 S
  @SCF    2      -99.045950761065      -0.638168407753       0.012062093505
    ci      = [ 0.00000000, 0.00000000]
    ci_grad = [ 0.00000000, 0.00000000]
  Setting level shift to 2.000 S
  @SCF    3      -99.190856096022      -0.144905334957       0.006982186304
    ci      = [ 0.00000000, 0.00000000]
    ci_grad = [ 0.00000000, 0.00000000]
  Setting level shift to 2.000 S
  @SCF    4      -99.311765380425      -0.120909284403       0.003873591296
    ci      = [ 0.00000000, 0.00000000]
    ci_grad = [ 0.00000000, 0.00000000]
  Setting level shift to 2.000 S
  @SCF    5      -99.308291611212       0.003473769213       0.003339676118
    ci      = [ 0.00000000, 0.00000000]
    ci_grad = [ 0.00000000, 0.00000000]
  Setting level shift to 2.000 S
  @SCF    6      -99.350335008314      -0.042043397102       0.002567518207
    ci      = [ 0.00000000, 0.00000000]
    ci_grad = [ 0.00000000, 0.00000000]
  Setting level shift to 2.000 S/E
  @SCF    7      -99.331068888924       0.019266119390       0.002394972992
    ci      = [ 0.00000000, 0.00000000]
    ci_grad = [ 0.00000000, 0.00000000]
  Setting level shift to 2.000 S/E
  @SCF    8      -99.347485500542      -0.016416611618       0.001068005394
    ci      = [ 0.00000000, 0.00000000]
    ci_grad = [ 0.00000000, 0.00000000]
  Setting level shift to 2.000 S/E
  @SCF    9      -99.347734749230      -0.000249248688       0.000035713055
    ci      = [ 0.00000000, 0.00000000]
    ci_grad = [ 0.00000000, 0.00000000]
  Setting level shift to 2.000 S/E
  @SCF   10      -99.347678217796       0.000056531434       0.000006556322
    ci      = [ 0.00000000, 0.00000000]
    ci_grad = [ 0.00000000, 0.00000000]
  Setting level shift to 2.000 S/E
  @SCF   11      -99.347685078069      -0.000006860273       0.000001943966
    ci      = [-0.98717288, 0.15965494]
    ci_grad = [ 0.00000000, 0.00000000]
  Setting level shift to 2.000 S/E
  @SCF   12      -99.347677521694       0.000007556375       0.000001656043
    ci      = [-0.98717320, 0.15965296]
    ci_grad = [-0.00000713, 0.00000322]
  Setting level shift to 2.000 S/E
  @SCF   13      -99.347667993945       0.000009527749       0.000000292686
    ci      = [-0.98717313, 0.15965342]
    ci_grad = [-0.00000948, 0.00000105]
  Setting level shift to 2.000 S/E
  @SCF   14      -99.347681304505      -0.000013310560       0.000000496255
    ci      = [-0.98717313, 0.15965342]
    ci_grad = [ 0.00001329,-0.00000120]
  Setting level shift to 2.000 S/E
  @SCF   15      -99.347684898344      -0.000003593838       0.000000407233
    ci      = [-0.98717325, 0.15965269]
    ci_grad = [ 0.00000367, 0.00000017]
  Setting level shift to 2.000 S/E
  @SCF   16      -99.347674639086       0.000010259257       0.000000525881
    ci      = [-0.98717325, 0.15965269]
    ci_grad = [-0.00001026, 0.00000080]
  Setting level shift to 2.000 S/E
  @SCF   17      -99.347691665484      -0.000017026398       0.000001810945
    ci      = [-0.98717325, 0.15965269]
    ci_grad = [ 0.00001605,-0.00000740]
  Setting level shift to 2.000 S/E
  @SCF   18      -99.347693577003      -0.000001911519       0.000001051363
    ci      = [-0.98717288, 0.15965498]
    ci_grad = [ 0.00000151,-0.00000263]
  Setting level shift to 2.000 S/E
  @SCF   19      -99.858742371282      -0.511048794279       0.030751136426
    ci      = [-0.98717288, 0.15965498]
    ci_grad = [ 0.50751903,-0.06077036]
  Setting level shift to 2.000 S/E
  @SCF   20      -99.890300086898      -0.031557715616       0.008959706595
    ci      = [-0.98717288, 0.15965498]
    ci_grad = [ 0.03619758, 0.03302973]
  Setting level shift to 2.000 S/E
  @SCF   21      -99.899087409754      -0.008787322856       0.004542164619
    ci      = [-0.98717288, 0.15965498]
    ci_grad = [ 0.01087916, 0.01329030]
  Setting level shift to 2.000 S/E
  @SCF   22      -99.903118418344      -0.004031008590       0.002483528131
    ci      = [-0.98717288, 0.15965498]
    ci_grad = [ 0.00450155, 0.00264035]
  Setting level shift to 2.000 S/E
  @SCF   23      -99.908511634659      -0.005393216315       0.004036787179
    ci      = [-0.98717288, 0.15965498]
    ci_grad = [ 0.00222887,-0.01835752]
  Setting level shift to 2.000 S/E
  @SCF   24      -99.914107524531      -0.005595889872       0.004740429852
    ci      = [-0.98717288, 0.15965498]
    ci_grad = [-0.00182742,-0.03840034]
  Setting level shift to 2.000 S/E
  @SCF   25      -99.916510592077      -0.002403067546       0.002211929481
    ci      = [-0.98717288, 0.15965498]
    ci_grad = [-0.00663643,-0.04472952]
  Setting level shift to 2.000 S/E
  @SCF   26      -99.922895585034      -0.006384992958       0.006734570241
    ci      = [-0.98717288, 0.15965498]
    ci_grad = [-0.00767245,-0.06362350]
  Setting level shift to 2.000 S/E
  @SCF   27      -99.924998537402      -0.002102952367       0.002523007410
    ci      = [-0.98717288, 0.15965498]
    ci_grad = [-0.01355808,-0.06837709]
  Setting level shift to 2.000 S/E
  @SCF   28      -99.928238519473      -0.003239982071       0.005488791565
    ci      = [-0.98717288, 0.15965498]
    ci_grad = [-0.01491777,-0.07626995]
  Setting level shift to 2.000 S/E
  @SCF   29      -99.929845405159      -0.001606885686       0.003312413707
    ci      = [-0.98717288, 0.15965498]
    ci_grad = [-0.01790209,-0.08001265]
  Setting level shift to 2.000 S/E
  @SCF   30      -99.932109849248      -0.002264444089       0.003309697310
    ci      = [-0.98717288, 0.15965498]
    ci_grad = [-0.01937264,-0.08583428]
  Setting level shift to 2.000 S/E
  @SCF   31      -99.932447083189      -0.000337233941       0.001514228683
    ci      = [-0.98717288, 0.15965498]
    ci_grad = [-0.02160741,-0.08645637]
  Setting level shift to 2.000 S/E
  @SCF   32      -99.934211577796      -0.001764494608       0.003056962669
    ci      = [-0.98717288, 0.15965498]
    ci_grad = [-0.02189826,-0.09091339]
  Setting level shift to 2.000 S/E
  @SCF   33      -99.934720780164      -0.000509202367       0.001490164279
    ci      = [-0.98717288, 0.15965498]
    ci_grad = [-0.02367720,-0.09203645]
  Setting level shift to 2.000 S/E
  @SCF   34      -99.935065709933      -0.000344929769       0.000756426477
    ci      = [-0.98717288, 0.15965498]
    ci_grad = [-0.02423144,-0.09289395]
  Setting level shift to 2.000 S/E
  @SCF   35      -99.935110250881      -0.000044540948       0.000601569428
    ci      = [-0.98717288, 0.15965498]
    ci_grad = [-0.02457495,-0.09297654]
  Setting level shift to 2.000 S/E
  @SCF   36      -99.935210818848      -0.000100567968       0.000297469286
    ci      = [-0.98717288, 0.15965498]
    ci_grad = [-0.02463581,-0.09322879]
  Setting level shift to 2.000 S/E
  @SCF   37      -99.935264103200      -0.000053284351       0.000107030410
    ci      = [-0.98717288, 0.15965498]
    ci_grad = [-0.02475336,-0.09337821]
  Setting level shift to 2.000 S/E
  @SCF   38      -99.935350972725      -0.000086869525       0.000288325573
    ci      = [-0.98717288, 0.15965498]
    ci_grad = [-0.02482681,-0.09361264]
  Setting level shift to 2.000 S/E
  @SCF   39      -99.935469241730      -0.000118269005       0.000312810837
    ci      = [-0.98717288, 0.15965498]
    ci_grad = [-0.02495025,-0.09394424]
  Setting level shift to 2.000 S/E
  @SCF   40      -99.935563194422      -0.000093952692       0.000266634970
    ci      = [-0.98717288, 0.15965498]
    ci_grad = [-0.02510034,-0.09420834]
  Setting level shift to 2.000 S/E
  @SCF   41      -99.935643239599      -0.000080045177       0.000278619796
    ci      = [-0.98717288, 0.15965498]
    ci_grad = [-0.02522061,-0.09442613]
  Setting level shift to 2.000 S/E
  @SCF   42      -99.935675544525      -0.000032304925       0.000143289747
    ci      = [-0.98717288, 0.15965498]
    ci_grad = [-0.02531103,-0.09451022]
  Setting level shift to 2.000 S/E
  @SCF   43      -99.935676872644      -0.000001328120       0.000129175541
    ci      = [-0.96587639, 0.25900349]
    ci_grad = [-0.02534041,-0.09450461]
  Setting level shift to 2.000 S/E
  @SCF   44      -99.935700787779      -0.000023915135       0.000251522391
    ci      = [-0.96587639, 0.25900349]
    ci_grad = [-0.00000694,-0.00011818]
  Setting level shift to 2.000 S/E
  @SCF   45      -99.935684297999       0.000016489780       0.000049691682
    ci      = [-0.96587639, 0.25900349]
    ci_grad = [-0.00002232,-0.00001956]
  Setting level shift to 2.000 S/E
  @SCF   46      -99.935673671449       0.000010626550       0.000057979948
    ci      = [-0.96587639, 0.25900349]
    ci_grad = [ 0.00000203, 0.00004860]
  Setting level shift to 2.000 S/E
  @SCF   47      -99.935788259844      -0.000114588395       0.000363954956
    ci      = [-0.96587639, 0.25900349]
    ci_grad = [-0.00004254,-0.00059966]
  Setting level shift to 2.000 S/E
  @SCF   48      -99.935789460307      -0.000001200463       0.000041062051
    ci      = [-0.96571631, 0.25959970]
    ci_grad = [-0.00015308,-0.00057408]
  Setting level shift to 2.000 S/E
  @SCF   49      -99.935772971367       0.000016488940       0.000063915767
    ci      = [-0.96571631, 0.25959970]
    ci_grad = [ 0.00000918, 0.00009770]
  Setting level shift to 2.000 S/E
  @SCF   50      -99.935777765651      -0.000004794283       0.000032085816
    ci      = [-0.96573398, 0.25953396]
    ci_grad = [ 0.00002164, 0.00006204]
  Setting level shift to 2.000 S/E
  @SCF   51      -99.937259831827      -0.001482066177       0.003394950783
    ci      = [-0.96573398, 0.25953396]
    ci_grad = [-0.00171724,-0.01154401]
  Setting level shift to 2.000 S/E
  @SCF   52      -99.937529651817      -0.000269819990       0.001237936865
    ci      = [-0.96573398, 0.25953396]
    ci_grad = [-0.00299592,-0.01159101]
  Setting level shift to 2.000 S/E
  @SCF   53      -99.937748216398      -0.000218564581       0.000443457038
    ci      = [-0.96573398, 0.25953396]
    ci_grad = [-0.00356669,-0.01331755]
  Setting level shift to 2.000 S/E
  @SCF   54      -99.938437118582      -0.000688902184       0.001528200031
    ci      = [-0.96573398, 0.25953396]
    ci_grad = [-0.00487193,-0.01911197]
  Setting level shift to 2.000 S/E
  @SCF   55      -99.938714701651      -0.000277583069       0.000929659957
    ci      = [-0.96573398, 0.25953396]
    ci_grad = [-0.00596015,-0.02114539]
  Setting level shift to 2.000 S/E
  @SCF   56      -99.938903534500      -0.000188832848       0.000695097448
    ci      = [-0.96573398, 0.25953396]
    ci_grad = [-0.00674941,-0.02326084]
  Setting level shift to 2.000 S/E
  @SCF   57      -99.939030499070      -0.000126964571       0.000811483971
    ci      = [-0.96573398, 0.25953396]
    ci_grad = [-0.00715881,-0.02427963]
  Setting level shift to 2.000 S/E
  @SCF   58      -99.939064496516      -0.000033997445       0.000460068541
    ci      = [-0.96573398, 0.25953396]
    ci_grad = [-0.00735589,-0.02456612]
  Setting level shift to 2.000 S/E
  @SCF   59      -99.939078262275      -0.000013765759       0.000097651334
    ci      = [-0.96573398, 0.25953396]
    ci_grad = [-0.00743582,-0.02473918]
  Setting level shift to 2.000 S/E
  @SCF   60      -99.939084993079      -0.000006730804       0.000069884396
    ci      = [-0.95749122, 0.28846241]
    ci_grad = [-0.00746875,-0.02481429]
  Setting level shift to 2.000 S/E
  @SCF   61      -99.939091161126      -0.000006168047       0.000176832004
    ci      = [-0.95746652, 0.28854438]
    ci_grad = [-0.00001536,-0.00007235]
  Setting level shift to 2.000 S/E
  @SCF   62      -99.939083672682       0.000007488444       0.000041979534
    ci      = [-0.95750939, 0.28840210]
    ci_grad = [ 0.00002975, 0.00012474]
  Setting level shift to 2.000 S/E
  @SCF   63      -99.939112569102      -0.000028896420       0.000157451303
    ci      = [-0.95750939, 0.28840210]
    ci_grad = [-0.00012177,-0.00050340]
  Setting level shift to 2.000 S/E
  @SCF   64      -99.939093150766       0.000019418336       0.000092858812
    ci      = [-0.95750939, 0.28840210]
    ci_grad = [-0.00006904,-0.00016175]
  Setting level shift to 2.000 S/E
  @SCF   65      -99.939106597941      -0.000013447175       0.000067596505
    ci      = [-0.95750939, 0.28840210]
    ci_grad = [-0.00010670,-0.00040017]
  Setting level shift to 2.000 S/E
  @SCF   66      -99.939163801061      -0.000057203120       0.000275342085
    ci      = [-0.95750939, 0.28840210]
    ci_grad = [-0.00038241,-0.00145876]
  Setting level shift to 2.000 S/E
  @SCF   67      -99.939100242569       0.000063558492       0.000338285228
    ci      = [-0.95750939, 0.28840210]
    ci_grad = [-0.00014693,-0.00026706]
  Setting level shift to 2.000 S/E
  @SCF   68      -99.939304152639      -0.000203910070       0.001655849895
    ci      = [-0.95750939, 0.28840210]
    ci_grad = [-0.00165338,-0.00603501]
  Setting level shift to 2.000 S/E
  @SCF   69      -99.939303257277       0.000000895362       0.000031707184
    ci      = [-0.95539287, 0.29533789]
    ci_grad = [-0.00180282,-0.00582895]
  Setting level shift to 2.000 S/E
  @SCF   70      -99.939300855521       0.000002401756       0.000120383482
    ci      = [-0.95551161, 0.29495348]
    ci_grad = [ 0.00009766, 0.00032452]
  Setting level shift to 2.000 S/E
  @SCF   71      -99.939305071695      -0.000004216174       0.000082285890
    ci      = [-0.95540337, 0.29530390]
    ci_grad = [-0.00008709,-0.00029604]
  Setting level shift to 2.000 S/E
  @SCF   72      -99.939310604452      -0.000005532757       0.000145131368
    ci      = [-0.95527442, 0.29572080]
    ci_grad = [-0.00010313,-0.00035186]
  Setting level shift to 2.000 S/E
  @SCF   73      -99.939314204367      -0.000003599915       0.000131654810
    ci      = [-0.95512569, 0.29620081]
    ci_grad = [-0.00012140,-0.00040361]
  Setting level shift to 2.000 S/E
  @SCF   74      -99.939315824897      -0.000001620530       0.000244155798
    ci      = [-0.95480426, 0.29723531]
    ci_grad = [-0.00026753,-0.00086482]
  Setting level shift to 2.000 S/E
  @SCF   75      -99.939315935274      -0.000000110377       0.000024420456
    ci      = [-0.95480301, 0.29723933]
    ci_grad = [-0.00000094,-0.00000338]
  Setting level shift to 2.000 S/E
  @SCF   76      -99.939316056185      -0.000000120912       0.000147203204
    ci      = [-0.95499106, 0.29663457]
    ci_grad = [ 0.00015740, 0.00050634]
  Setting level shift to 2.000 S/E
  @SCF   77      -99.939316348554      -0.000000292369       0.000069262516
    ci      = [-0.95489460, 0.29694494]
    ci_grad = [-0.00008044,-0.00025966]
  Setting level shift to 2.000 S/E
  @SCF   78      -99.939316350665      -0.000000002111       0.000024305011
    ci      = [-0.95492276, 0.29685437]
    ci_grad = [ 0.00002356, 0.00007577]
  Setting level shift to 2.000 S/E
  @SCF   79      -99.939316340711       0.000000009954       0.000014663535
    ci      = [-0.95493396, 0.29681835]
    ci_grad = [ 0.00000936, 0.00003015]
  Setting level shift to 2.000 S/E
  @SCF   80      -99.939316376668      -0.000000035957       0.000030915280
    ci      = [-0.95489099, 0.29695655]
    ci_grad = [-0.00003591,-0.00011560]
  Setting level shift to 2.000 S/E
  @SCF   81      -99.939316379974      -0.000000003306       0.000012424141
    ci      = [-0.95490732, 0.29690403]
    ci_grad = [ 0.00001366, 0.00004393]
  Setting level shift to 2.000 S/E
  @SCF   82      -99.939316381107      -0.000000001133       0.000006587885
    ci      = [-0.95489845, 0.29693256]
    ci_grad = [-0.00000742,-0.00002386]
  Setting level shift to 2.000 S/E
  @SCF   83      -99.939316381486      -0.000000000379       0.000001394181
    ci      = [-0.95490013, 0.29692717]
    ci_grad = [ 0.00000140, 0.00000451]
  Setting level shift to 2.000 S/E
  @SCF   84      -99.939316381584      -0.000000000098       0.000001647463
    ci      = [-0.95490236, 0.29691999]
    ci_grad = [ 0.00000187, 0.00000601]
  Setting level shift to 2.000 S/E
  @SCF   85      -99.939316381591      -0.000000000007       0.000000277522
    ci      = [-0.95490259, 0.29691925]
    ci_grad = [ 0.00000019, 0.00000061]
  Setting level shift to 2.000 S/E
  @SCF   86      -99.939316381628      -0.000000000037       0.000000514414
    ci      = [-0.95490190, 0.29692148]
    ci_grad = [-0.00000058,-0.00000186]
  Setting level shift to 2.000 S/E
  @SCF   87      -99.939316381633      -0.000000000005       0.000000169863
    ci      = [-0.95490195, 0.29692132]
    ci_grad = [ 0.00000004, 0.00000013]
  Setting level shift to 2.000 S/E
  @SCF   88      -99.939316381639      -0.000000000007       0.000000230584
    ci      = [-0.95490186, 0.29692160]
    ci_grad = [-0.00000007,-0.00000024]
  Setting level shift to 2.000 S/E
  @SCF   89      -99.939316381642      -0.000000000003       0.000000255343
    ci      = [-0.95490163, 0.29692235]
    ci_grad = [-0.00000019,-0.00000062]
  Setting level shift to 2.000 S/E
  @SCF   90      -99.939316381642       0.000000000000       0.000000194495
    ci      = [-0.95490190, 0.29692147]
    ci_grad = [ 0.00000023, 0.00000074]
  Setting level shift to 2.000 S/E
  @SCF   91      -99.939316381643      -0.000000000001       0.000000081701
    ci      = [-0.95490179, 0.29692183]
    ci_grad = [-0.00000009,-0.00000030]
  Setting level shift to 2.000 S/E
  @SCF   92      -99.939316381643      -0.000000000000       0.000000020403
    ci      = [-0.95490180, 0.29692180]
    ci_grad = [ 0.00000001, 0.00000003]
  Setting level shift to 2.000 S/E
  @SCF   93      -99.939316381643      -0.000000000000       0.000000025521
    ci      = [-0.95490179, 0.29692183]
    ci_grad = [-0.00000001,-0.00000002]
  Setting level shift to 2.000 S/E
  @SCF   94      -99.939316381643      -0.000000000000       0.000000040201
    ci      = [-0.95490176, 0.29692194]
    ci_grad = [-0.00000003,-0.00000009]
  Setting level shift to 2.000 S/E
  @SCF   95      -99.939316381643      -0.000000000000       0.000000041942
    ci      = [-0.95490172, 0.29692206]
    ci_grad = [-0.00000003,-0.00000011]
  Setting level shift to 2.000 S/E
  @SCF   96      -99.939316381643       0.000000000000       0.000000006121
    ci      = [-0.95490172, 0.29692206]
    ci_grad = [ 0.00000000, 0.00000000]
  Setting level shift to 2.000 S/E
  @SCF   97      -99.939316381643       0.000000000000       0.000000016960
    ci      = [-0.95490170, 0.29692210]
    ci_grad = [-0.00000001,-0.00000004]
  Setting level shift to 2.000 S/E
  @SCF   98      -99.939316381644      -0.000000000000       0.000000005692
    ci      = [-0.95490171, 0.29692208]
    ci_grad = [ 0.00000001, 0.00000002]
  Setting level shift to 2.000 S/E
  @SCF   99      -99.939316381644       0.000000000000       0.000000002769
    ci      = [-0.95490171, 0.29692208]
    ci_grad = [-0.00000000,-0.00000000]
  Setting level shift to 2.000 S/E
  @SCF  100      -99.939316381644       0.000000000000       0.000000003756
    ci      = [-0.95490172, 0.29692206]
    ci_grad = [ 0.00000000, 0.00000001]
  Setting level shift to 2.000 S/E
  @SCF  101      -99.939316381644      -0.000000000000       0.000000004358
    ci      = [-0.95490171, 0.29692208]
    ci_grad = [-0.00000000,-0.00000001]
  Setting level shift to 2.000 S/E
  @SCF  102      -99.939316381643       0.000000000000       0.000000000816
    ci      = [-0.95490171, 0.29692208]
    ci_grad = [ 0.00000000, 0.00000000]
  Setting level shift to 2.000 S/E
  @SCF  103      -99.939316381644      -0.000000000000       0.000000000695
    ci      = [-0.95490171, 0.29692208]
    ci_grad = [-0.00000000,-0.00000000]
  Setting level shift to 2.000 S/E
  @SCF  104      -99.939316381644       0.000000000000       0.000000000528
    ci      = [-0.95490171, 0.29692208]
    ci_grad = [-0.00000000,-0.00000000]
  Setting level shift to 2.000 S/E
  @SCF  105      -99.939316381644      -0.000000000000       0.000000000296
    ci      = [-0.95490171, 0.29692208]
    ci_grad = [ 0.00000000, 0.00000000]
  Setting level shift to 2.000 S/E
  @SCF  106      -99.939316381644      -0.000000000000       0.000000000332
    ci      = [-0.95490171, 0.29692208]
    ci_grad = [-0.00000000,-0.00000000]
  Setting level shift to 2.000 S/E
  @SCF  107      -99.939316381644       0.000000000000       0.000000000348
    ci      = [-0.95490171, 0.29692208]
    ci_grad = [ 0.00000000, 0.00000000]
  Setting level shift to 2.000 S/E
  @SCF  108      -99.939316381644      -0.000000000000       0.000000000204
    ci      = [-0.95490171, 0.29692208]
    ci_grad = [-0.00000000,-0.00000000]
  Setting level shift to 2.000 S/E
  @SCF  109      -99.939316381644       0.000000000000       0.000000000066
    ci      = [-0.95490171, 0.29692208]
    ci_grad = [ 0.00000000, 0.00000000]
  Setting level shift to 2.000 S/E
  @SCF  110      -99.939316381644      -0.000000000000       0.000000000072
    ci      = [-0.95490171, 0.29692208]
    ci_grad = [-0.00000000,-0.00000000]
  Setting level shift to 2.000 S/E
  @SCF  111      -99.939316381643       0.000000000000       0.000000000136
    ci      = [-0.95490171, 0.29692208]
    ci_grad = [ 0.00000000, 0.00000000]
  Setting level shift to 2.000 S/E
  @SCF  112      -99.939316381644      -0.000000000000       0.000000000009
    ci      = [-0.95490171, 0.29692208]
    ci_grad = [-0.00000000,-0.00000000]
  Setting level shift to 2.000 S/E
  @SCF  113      -99.939316381643       0.000000000000       0.000000000029
    ci      = [-0.95490171, 0.29692208]
    ci_grad = [ 0.00000000, 0.00000000]
  Setting level shift to 2.000 S/E
  @SCF  114      -99.939316381644      -0.000000000000       0.000000000010
    ci      = [-0.95490171, 0.29692208]
    ci_grad = [-0.00000000,-0.00000000]
  Setting level shift to 2.000 S/E
  @SCF  115      -99.939316381644       0.000000000000       0.000000000008
    ci      = [-0.95490171, 0.29692208]
    ci_grad = [-0.00000000,-0.00000000]
  Setting level shift to 2.000 S/E
  @SCF  116      -99.939316381643       0.000000000000       0.000000000008
    ci      = [-0.95490171, 0.29692208]
    ci_grad = [-0.00000000,-0.00000000]
  Setting level shift to 2.000 S/E
  @SCF  117      -99.939316381644      -0.000000000000       0.000000000003
    ci      = [-0.95490171, 0.29692208]
    ci_grad = [ 0.00000000,-0.00000000]
  Setting level shift to 2.000 S/E
  @SCF  118      -99.939316381644       0.000000000000       0.000000000005
    ci      = [-0.95490171, 0.29692208]
    ci_grad = [-0.00000000,-0.00000000]
  Setting level shift to 2.000 S/E
  @SCF  119      -99.939316381644      -0.000000000000       0.000000000003
    ci      = [-0.95490171, 0.29692208]
    ci_grad = [ 0.00000000,-0.00000000]
  Setting level shift to 2.000 S/E
  @SCF  120      -99.939316381643       0.000000000000       0.000000000004
    ci      = [-0.95490171, 0.29692208]
    ci_grad = [-0.00000000,-0.00000000]
  Setting level shift to 2.000 S/E
  @SCF  121      -99.939316381644      -0.000000000000       0.000000000002
    ci      = [-0.95490171, 0.29692208]
    ci_grad = [-0.00000000,-0.00000000]
  Setting level shift to 2.000 S/E
  @SCF  122      -99.939316381644       0.000000000000       0.000000000004
    ci      = [-0.95490171, 0.29692208]
    ci_grad = [-0.00000000,-0.00000000]
  Setting level shift to 2.000 S/E
  @SCF  123      -99.939316381644      -0.000000000000       0.000000000001
    ci      = [-0.95490171, 0.29692208]
    ci_grad = [-0.00000000,-0.00000000]
  Setting level shift to 2.000 S/E
  @SCF  124      -99.939316381643       0.000000000000       0.000000000001
    ci      = [-0.95490171, 0.29692208]
    ci_grad = [-0.00000000,-0.00000000]
  Setting level shift to 2.000 S/E
  @SCF  125      -99.939316381643       0.000000000000       0.000000000001
    ci      = [-0.95490171, 0.29692208]
    ci_grad = [-0.00000000,-0.00000000]
  Setting level shift to 2.000 S/E
  @SCF  126      -99.939316381643      -0.000000000000       0.000000000001
    ci      = [-0.95490171, 0.29692208]
    ci_grad = [ 0.00000000, 0.00000000]
  Setting level shift to 2.000 S/E
  @SCF  127      -99.939316381644      -0.000000000000       0.000000000000
    ci      = [-0.95490171, 0.29692208]
    ci_grad = [-0.00000000,-0.00000000]
  Setting level shift to 2.000 S/E
  @SCF  128      -99.939316381644      -0.000000000000       0.000000000001
    ci      = [-0.95490171, 0.29692208]
    ci_grad = [ 0.00000000, 0.00000000]
  Setting level shift to 2.000 S/E
  @SCF  129      -99.939316381643       0.000000000000       0.000000000000
    ci      = [-0.95490171, 0.29692208]
    ci_grad = [-0.00000000,-0.00000000]
  Setting level shift to 2.000 S/E
  @SCF  130      -99.939316381644      -0.000000000000       0.000000000000
    ci      = [-0.95490171, 0.29692208]
    ci_grad = [ 0.00000000, 0.00000000]
  Setting level shift to 2.000 S/E
  @SCF  131      -99.939316381643       0.000000000000       0.000000000000
    ci      = [-0.95490171, 0.29692208]
    ci_grad = [-0.00000000, 0.00000000]
  Setting level shift to 2.000 S/E
  @SCF  132      -99.939316381644      -0.000000000000       0.000000000000
    ci      = [-0.95490171, 0.29692208]
    ci_grad = [ 0.00000000,-0.00000000]
  Setting level shift to 2.000 S/E
  @SCF  133      -99.939316381643       0.000000000000       0.000000000000
    ci      = [-0.95490171, 0.29692208]
    ci_grad = [-0.00000000, 0.00000000]
  Setting level shift to 2.000 S/E
  @SCF  134      -99.939316381643       0.000000000000       0.000000000000
    ci      = [-0.95490171, 0.29692208]
    ci_grad = [-0.00000000,-0.00000000]
  Setting level shift to 2.000 S/E
  @SCF  135      -99.939316381644      -0.000000000000       0.000000000000
    ci      = [-0.95490171, 0.29692208]
    ci_grad = [ 0.00000000, 0.00000000]
  Setting level shift to 2.000 S/E
  @SCF  136      -99.939316381644      -0.000000000000       0.000000000000
    ci      = [-0.95490171, 0.29692208]
    ci_grad = [ 0.00000000,-0.00000000]
  Setting level shift to 2.000 S/E
  @SCF  137      -99.939316381644       0.000000000000       0.000000000000
    ci      = [-0.95490171, 0.29692208]
    ci_grad = [-0.00000000, 0.00000000]
  Setting level shift to 2.000 S/E
  @SCF  138      -99.939316381644      -0.000000000000       0.000000000000
    ci      = [-0.95490171, 0.29692208]
    ci_grad = [ 0.00000000,-0.00000000]
  Setting level shift to 2.000 S/E
  @SCF  139      -99.939316381643       0.000000000000       0.000000000000
    ci      = [-0.95490171, 0.29692208]
    ci_grad = [-0.00000000, 0.00000000]
  Setting level shift to 2.000 S/E
  @SCF  140      -99.939316381644      -0.000000000000       0.000000000000
    ci      = [-0.95490171, 0.29692208]
    ci_grad = [ 0.00000000,-0.00000000]
  Setting level shift to 2.000 S/E
  @SCF  141      -99.939316381644       0.000000000000       0.000000000000
    ci      = [-0.95490171, 0.29692208]
    ci_grad = [-0.00000000,-0.00000000]
  Setting level shift to 2.000 S/E
  @SCF  142      -99.939316381644      -0.000000000000       0.000000000000
    ci      = [-0.95490171, 0.29692208]
    ci_grad = [ 0.00000000,-0.00000000]
  Setting level shift to 2.000 S/E
  @SCF  143      -99.939316381643       0.000000000000       0.000000000000
    ci      = [-0.95490171, 0.29692208]
    ci_grad = [-0.00000000, 0.00000000]
  Setting level shift to 2.000 S/E
  @SCF  144      -99.939316381643       0.000000000000       0.000000000000
    ci      = [-0.95490171, 0.29692208]
    ci_grad = [-0.00000000, 0.00000000]
  Setting level shift to 2.000 S/E
  @SCF  145      -99.939316381643      -0.000000000000       0.000000000000
    ci      = [-0.95490171, 0.29692208]
    ci_grad = [ 0.00000000,-0.00000000]
  Setting level shift to 2.000 S/E
  @SCF  146      -99.939316381643       0.000000000000       0.000000000000
    ci      = [-0.95490171, 0.29692208]
    ci_grad = [-0.00000000, 0.00000000]
  Setting level shift to 2.000 S/E
  @SCF  147      -99.939316381643      -0.000000000000       0.000000000000
    ci      = [-0.95490171, 0.29692208]
    ci_grad = [ 0.00000000,-0.00000000]
  Setting level shift to 2.000 S/E
  @SCF  148      -99.939316381643       0.000000000000       0.000000000000
    ci      = [-0.95490171, 0.29692208]
    ci_grad = [ 0.00000000, 0.00000000]
  =========================================================================================

      * SCF total energy   =     -99.939316381643


      CI coefficients  = [-0.954901712, 0.296922078]

  End of SCF
  MOs orthonormality check passed.

  Orbitals are canonicalized as:
  inactive (docc + uocc) : Fock(core)
  active   (actv)        : Fock(core)

  =========================================================================
  Eigenvalues (Eh)
  -------------------------------------------------------------------------
  Doubly occupied orbitals
      1    -26.322903  A1      2     -1.519005  A1      3     -0.638631  B2
      4     -0.638631  B1
  Active orbitals
      5     -0.537968  A1      6      0.087068  A1
  Unoccupied orbitals
      7      2.558369  A1      8      3.324242  B1      9      3.324242  B2
     10      3.444927  A1     11      3.586079  A1     12      3.602014  B1
     13      3.602014  B2     14      4.287527  A1     15      5.991409  B2
     16      5.991409  B1     17      5.995163  A2     18      5.995163  A1
     19      6.177516  A1
  =========================================================================


  MCSCF Execution Completed.


*** tstop() called on Jeffs-MacBook-Pro-2.local at Tue Mar  7 16:03:56 2017
Module time:
	user time   =       0.14 seconds =       0.00 minutes
	system time =       0.03 seconds =       0.00 minutes
	total time  =          0 seconds =       0.00 minutes
Total time:
	user time   =       0.14 seconds =       0.00 minutes
	system time =       0.03 seconds =       0.00 minutes
	total time  =          0 seconds =       0.00 minutes
 MINTS: Wrapper to libmints.
   by Justin Turney

   Calculation information:
      Number of threads:                 1
      Number of atoms:                   2
      Number of AO shells:               9
      Number of SO shells:               9
      Number of primitives:             27
      Number of atomic orbitals:        20
      Number of basis functions:        19

      Number of irreps:                  4
      Integral cutoff                 0.00e+00
      Number of functions per irrep: [  10    1    4    4 ]

 OEINTS: Overlap, kinetic, potential, dipole, and quadrupole integrals
         stored in file 35.

      Computing two-electron integrals...done
      Computed 4170 non-zero two-electron integrals.
        Stored in file 33.


Reading options from the FORTE block
Calling plugin forte.so.




  ==> MO Space Information <==

  Read options for space FROZEN_DOCC
  Read options for space RESTRICTED_DOCC
  Read options for space ACTIVE
  -------------------------------------------------
                       A1    A2    B1    B2   Sum
  -------------------------------------------------
    FROZEN_DOCC         0     0     0     0     0
    RESTRICTED_DOCC     0     0     0     0     0
    ACTIVE              5     0     1     2     8
    RESTRICTED_UOCC     5     1     3     2    11
    FROZEN_UOCC         0     0     0     0     0
    Total              10     1     4     4    19
  -------------------------------------------------

  ==> Integral Transformation <==

  Number of molecular orbitals:               19
  Number of correlated molecular orbitals:    19
  Number of frozen occupied orbitals:          0
  Number of frozen unoccupied orbitals:        0

    Molecular point group: c2v
    Full point group: C_inf_v

    Geometry (in Angstrom), charge = 0, multiplicity = 1:

       Center              X                  Y                   Z               Mass       
    ------------   -----------------  -----------------  -----------------  -----------------
           F          0.000000000000     0.000000000000    -0.075563346012    18.998403224000
           H          0.000000000000     0.000000000000     1.424436653988     1.007825032070

  -AO BASIS SET INFORMATION:
    Name                   = file /Users/jeffschriber/src/psi4_debug_install/share/psi4/basis/cc-pvdz.gbs
    Total number of shells = 9
    Number of primitives   = 27
    Number of AO           = 20
    Number of SO           = 19
    Maximum AM             = 2
    Spherical Harmonics    = TRUE

  -Contraction Scheme:
    Atom   Type   All Primitives // Shells:
   ------ ------ --------------------------
       1     F     17s 4p 1d // 3s 2p 1d 
       2     H     4s 1p // 2s 1p 

  ==> AO Basis Functions <==

    [ file /Users/jeffschriber/src/psi4_debug_install/share/psi4/basis/cc-pvdz.gbs ]
    spherical
    ****
    F   1
    S   8 1.00
                     14710.00000000           0.00072100
                      2207.00000000           0.00555300
                       502.80000000           0.02826700
                       142.60000000           0.10644400
                        46.47000000           0.28681400
                        16.70000000           0.44864100
                         6.35600000           0.26476100
                         1.31600000           0.01533300
    S   8 1.00
                     14710.00000000          -0.00016500
                      2207.00000000          -0.00130800
                       502.80000000          -0.00649500
                       142.60000000          -0.02669100
                        46.47000000          -0.07369000
                        16.70000000          -0.17077600
                         6.35600000          -0.11232700
                         1.31600000           0.56281400
    S   1 1.00
                         0.38970000           1.00000000
    P   3 1.00
                        22.67000000           0.04487800
                         4.97700000           0.23571800
                         1.34700000           0.50852100
    P   1 1.00
                         0.34710000           1.00000000
    D   1 1.00
                         1.64000000           1.00000000
    ****
    H   2
    S   3 1.00
                        13.01000000           0.01968500
                         1.96200000           0.13797700
                         0.44460000           0.47814800
    S   1 1.00
                         0.12200000           1.00000000
    P   1 1.00
                         0.72700000           1.00000000
    ****


  DFIntegrals overall time
 Computing Density fitted integrals 

 Number of auxiliary basis functions:  70
 Need 0.000188 GB to store DF integrals

  Computing DF Integrals               ......Done. Timing        0.071630 s
  Seeking DF Integrals                 ......Done. Timing        0.071727 s
  Reading DF Integrals                 . . ....Done. Timing        0.071779 s
  DFIntegrals take      0.07271400 s
  Root 0 has overlap 1.000000
  Saving reference for root 0
  Setting reference root to: 0
  Root 0 has overlap 0.999861
  Saving reference for root 0
  Setting reference root to: 0
  Root 0 has overlap 0.999999
  Saving reference for root 0
  Setting reference root to: 0
  Root 0 has overlap 1.000000
  Saving reference for root 0
  Setting reference root to: 0
  Saving root 0, ref_root is 0
  Number of old roots: 1
        0                  1           0.91835697316
        1                  4           0.00026749547
        2                 37           0.08113183946
        3                 16           0.00014704776
        4                  2           0.00009664415

  Highest-order excitation searched:     8  


  ==> NATURAL ORBITALS <==

        1A1     2.000000      1B1     1.999702      2A1     1.999457  
        1B2     1.993900      3A1     1.843751      4A1     0.156970  
        2B2     0.005953      5A1     0.000266  



  Adaptive-CI (bitset) ran in : 0.171563 s

  Saving information for root: 0

                          ----------------------------
                            Semi-Canonical Orbitals
                            Francesco A. Evangelista
                          ----------------------------

 Took 0.003530 s to build fock matrix

  ==> Integral transformation <==
    Molecular point group: c2v
    Full point group: C_inf_v

    Geometry (in Angstrom), charge = 0, multiplicity = 1:

       Center              X                  Y                   Z               Mass       
    ------------   -----------------  -----------------  -----------------  -----------------
           F          0.000000000000     0.000000000000    -0.075563346012    18.998403224000
           H          0.000000000000     0.000000000000     1.424436653988     1.007825032070

  -AO BASIS SET INFORMATION:
    Name                   = file /Users/jeffschriber/src/psi4_debug_install/share/psi4/basis/cc-pvdz.gbs
    Total number of shells = 9
    Number of primitives   = 27
    Number of AO           = 20
    Number of SO           = 19
    Maximum AM             = 2
    Spherical Harmonics    = TRUE

  -Contraction Scheme:
    Atom   Type   All Primitives // Shells:
   ------ ------ --------------------------
       1     F     17s 4p 1d // 3s 2p 1d 
       2     H     4s 1p // 2s 1p 

  ==> AO Basis Functions <==

    [ file /Users/jeffschriber/src/psi4_debug_install/share/psi4/basis/cc-pvdz.gbs ]
    spherical
    ****
    F   1
    S   8 1.00
                     14710.00000000           0.00072100
                      2207.00000000           0.00555300
                       502.80000000           0.02826700
                       142.60000000           0.10644400
                        46.47000000           0.28681400
                        16.70000000           0.44864100
                         6.35600000           0.26476100
                         1.31600000           0.01533300
    S   8 1.00
                     14710.00000000          -0.00016500
                      2207.00000000          -0.00130800
                       502.80000000          -0.00649500
                       142.60000000          -0.02669100
                        46.47000000          -0.07369000
                        16.70000000          -0.17077600
                         6.35600000          -0.11232700
                         1.31600000           0.56281400
    S   1 1.00
                         0.38970000           1.00000000
    P   3 1.00
                        22.67000000           0.04487800
                         4.97700000           0.23571800
                         1.34700000           0.50852100
    P   1 1.00
                         0.34710000           1.00000000
    D   1 1.00
                         1.64000000           1.00000000
    ****
    H   2
    S   3 1.00
                        13.01000000           0.01968500
                         1.96200000           0.13797700
                         0.44460000           0.47814800
    S   1 1.00
                         0.12200000           1.00000000
    P   1 1.00
                         0.72700000           1.00000000
    ****


 Integrals are about to be computed.
 Computing Density fitted integrals 

 Number of auxiliary basis functions:  70
 Need 0.000188 GB to store DF integrals

  Computing DF Integrals               ......Done. Timing        0.123862 s
  Seeking DF Integrals                 ......Done. Timing        0.124053 s
  Reading DF Integrals                 . . ....Done. Timing        0.124119 s
 Integrals are about to be updated.
  Frozen Orbitals takes     0.000 s.
 SemiCanonicalize takes 0.133578 s.
  Root 0 has overlap 1.000000
  Saving reference for root 0
  Setting reference root to: 0
  Root 0 has overlap 0.999922
  Saving reference for root 0
  Setting reference root to: 0
  Root 0 has overlap 0.999994
  Saving reference for root 0
  Setting reference root to: 0
  Root 0 has overlap 1.000000
  Saving reference for root 0
  Setting reference root to: 0
  Saving root 0, ref_root is 0
  Number of old roots: 1
        0                  1           0.91080791790
        1                  6           0.01031121010
        2                 46           0.07872767084
        3                 12           0.00005072753
        4                  6           0.00010247363

  Highest-order excitation searched:     8  


  ==> NATURAL ORBITALS <==

        1A1     2.000000      1B1     1.999675      2A1     1.999475  
        1B2     1.993907      3A1     1.844059      4A1     0.156689  
        2B2     0.005923      5A1     0.000272  



  Adaptive-CI (bitset) ran in : 0.258805 s

  Saving information for root: 0

           ---------------------------------------------------------
             DF/CD - Driven Similarity Renormalization Group MBPT2
                      Kevin Hannon and Chenyang (York) Li
                                1 thread (OMP)
           ---------------------------------------------------------

  Reference = TWOCON
  Reference Energy = -99.953484182321773

  ==> Checking Orbitals <==

    Checking if orbitals are semi-canonicalized ...
    Warning! Orbitals are not semi-canonicalized!
    Off-Diagonal norms of the core, active, virtual blocks of Fock matrix
                  core          active         virtual
    ---------------------------------------------------
    Fa    0.0000000000    0.0006875546    0.0005149976
    Fb    0.0000000000    0.0006875546    0.0005149976
    ---------------------------------------------------

    Warning: DF/CD-DSRG-MRPT2 only takes semi-canonical orbitals.
    Warning: The code will keep running but the energy will be meaningless.

  ==> Calculation Information <==

    Flow parameter                           1.000e+00
    Cholesky Tolerance                       1.000e-06
    Taylor expansion threshold               1.000e-03
    int_type                                        DF
    ccvv_algorithm                           FLY_AMBIT
    ccvv_source                                 NORMAL
    Computing T2                          ......Done. Timing        0.013278 s
    Renormalizing V                       ......Done. Timing        0.010542 s
    Computing T1                          ......Done. Timing        0.001960 s
    Renormalizing F                       ......Done. Timing        0.002583 s
    Computing <[F, T1]>                   ......Done. Timing        0.000793 s
    Computing <[F, T2]>                   ......Done. Timing        0.001675 s
    Computing <[V, T1]>                   ......Done. Timing        0.001514 s
    Computing <[V, T2]> (C_2)^4 (no ccvv) ......Done. Timing        0.011905 s
 Eccvv: 0.0000000000
    Computing <[V, T2]> (C_2)^4 ccvv      ......Done. Timing        0.000140 s
    Computing <[V, T2]> 4HH               ......Done. Timing        0.002170 s
    Computing <V, T2]> 4PP                ......Done. Timing        0.002880 s
    Computing [V, T2] 4PH                 ......Done. Timing        0.012057 s
    Computing [V, T2] λ3                  ......Done. Timing        0.144146 s

  ==> DSRG-MRPT2 Energy Summary <==

    E0 (reference)                 =    -99.953484182321773
    <[F, T1]>                      =     -0.008197126214922
    <[F, T2]>                      =      0.007245976847410
    <[V, T1]>                      =      0.009342917618255
    <[V, T2]> (C_2)^4              =     -0.189985856308781
    <[V, T2]> C_4 (C_2)^2 HH       =      0.000000000000000
    <[V, T2]> C_4 (C_2)^2 PP       =      0.009534401935688
    <[V, T2]> C_4 (C_2)^2 PH       =      0.024076193332569
    <[V, T2]> C_6 C_2              =     -0.003463844677466
    <[V, T2]>                      =     -0.159839105717990
    DSRG-MRPT2 correlation energy  =     -0.151447337467248
    DSRG-MRPT2 total energy        =   -100.104931519789019
    max(T1)                        =      0.129216323149680
    ||T1||                         =      0.213616719676045

  ==> Total Timings (s) for Computing Commutators <==

             [H1, T1]    [H1, T2]    [H2, T1]    [H2, T2]
    -----------------------------------------------------
    -> C0       0.001       0.002       0.002       0.029
    -> C1       0.000       0.000       0.000       0.000
    -> C2                   0.000       0.000       0.000
    -----------------------------------------------------

 CD/DF DSRG-MRPT2 took  1.04240 s.

  Your calculation took 1.12006400 seconds
	SCF energy........................................................PASSED
	DF-DSRG-MRPT2 energy..............................................PASSED

*** Psi4 exiting successfully. Buy a developer a beer!
