
    -----------------------------------------------------------------------
          Psi4: An Open-Source Ab Initio Electronic Structure Package
                               Psi4 1.8a1.dev5 

                         Git: Rev {master} 4d94910 


    D. G. A. Smith, L. A. Burns, A. C. Simmonett, R. M. Parrish,
    M. C. Schieber, R. Galvelis, P. Kraus, H. Kruse, R. Di Remigio,
    A. Alenaizan, A. M. James, S. Lehtola, J. P. Misiewicz, M. Scheurer,
    R. A. Shaw, J. B. Schriber, Y. Xie, Z. L. Glick, D. A. Sirianni,
    J. S. O'Brien, J. M. Waldrop, A. Kumar, E. G. Hohenstein,
    B. P. Pritchard, B. R. Brooks, H. F. Schaefer III, A. Yu. Sokolov,
    K. Patkowski, A. E. DePrince III, U. Bozkaya, R. A. King,
    F. A. Evangelista, J. M. Turney, T. D. Crawford, C. D. Sherrill,
    J. Chem. Phys. 152(18) 184108 (2020). https://doi.org/10.1063/5.0006002

                            Additional Code Authors
    E. T. Seidl, C. L. Janssen, E. F. Valeev, M. L. Leininger,
    J. F. Gonthier, R. M. Richard, H. R. McAlexander, M. Saitow, X. Wang,
    P. Verma, M. H. Lechner, A. Jiang, S. Behnle, A. G. Heide,
    M. F. Herbst, and D. L. Poole

             Previous Authors, Complete List of Code Contributors,
                       and Citations for Specific Modules
    https://github.com/psi4/psi4/blob/master/codemeta.json
    https://github.com/psi4/psi4/graphs/contributors
    http://psicode.org/psi4manual/master/introduction.html#citing-psifour

    -----------------------------------------------------------------------


    Psi4 started on: Sunday, 15 January 2023 11:50PM

    Process ID: 874
    Host:       CHE-FEVANGE-01i
    PSIDATADIR: /Users/fevange/Source/psi4/objdir-Release/stage/share/psi4
    Memory:     500.0 MiB
    Threads:    1
    
  ==> Input File <==

--------------------------------------------------------------------------
# Perform a computation of HF without storing DISKDF

import forte

refmcscf         =  -99.939316382624
refdsrgpt2_jk_rd = -100.105012605848

memory 500 mb

molecule HF{
  0 1
  F
  H  1 R
  R = 1.50
}

set globals{
   basis                   cc-pvdz
   df_basis_mp2            cc-pvdz-ri
   df_basis_scf            cc-pvdz-jkfit
   scf_type                df
   d_convergence           10
   e_convergence           12
}

set forte{
  job_type                mcscf_two_step
  active_space_solver     cas
  restricted_docc         [2,0,1,1]
  active                  [2,0,0,0]
  casscf_e_convergence    12
  casscf_g_convergence    8
  casscf_final_orbital    natural
}

Emcscf, wfn = energy('forte', return_wfn=True)
compare_values(refmcscf, variable("CURRENT ENERGY"), 10, "MCSCF energy")

set forte{
  job_type                newdriver
  int_type                df
  correlation_solver      three-dsrg-mrpt2
  active_space_solver     aci
  active_guess_size       1
  sigma                   0.0001
  multiplicity            1
  frozen_docc             [0,0,0,0]
  restricted_docc         [0,0,0,0]
  active                  [5,0,1,2]
  dsrg_s                  1.0
  root_sym                0
  nroot                   1
  sci_direct_rdms         true
  aci_screen_alg          batch_hash
}

energy('forte', ref_wfn = wfn)
compare_values(refdsrgpt2_jk_rd, variable("CURRENT ENERGY"),10,"DF-DSRG-MRPT2 energy")
--------------------------------------------------------------------------

  Memory set to 476.837 MiB by Python driver.

Scratch directory: /tmp/

  Forte
  ----------------------------------------------------------------------------
  A suite of quantum chemistry methods for strongly correlated electrons

    git branch: master - git commit: 4225e1f0

  Developed by:
    Francesco A. Evangelista, Chenyang Li, Kevin P. Hannon,
    Jeffrey B. Schriber, Tianyuan Zhang, Chenxi Cai,
    Nan He, Nicholas Stair, Shuhe Wang, Renke Huang
  ----------------------------------------------------------------------------

  Size of Determinant class: 128 bits

  Preparing forte objects from a Psi4 Wavefunction object
  No reference wave function provided for Forte. Computing SCF orbitals using Psi4 ...

*** tstart() called on CHE-FEVANGE-01i
*** at Sun Jan 15 23:50:11 2023

   => Loading Basis Set <=

    Name: CC-PVDZ
    Role: ORBITAL
    Keyword: BASIS
    atoms 1 entry F          line   228 file /Users/fevange/Source/psi4/objdir-Release/stage/share/psi4/basis/cc-pvdz.gbs 
    atoms 2 entry H          line    22 file /Users/fevange/Source/psi4/objdir-Release/stage/share/psi4/basis/cc-pvdz.gbs 


         ---------------------------------------------------------
                                   SCF
               by Justin Turney, Rob Parrish, Andy Simmonett
                          and Daniel G. A. Smith
                              RHF Reference
                        1 Threads,    476 MiB Core
         ---------------------------------------------------------

  ==> Geometry <==

    Molecular point group: c2v
    Full point group: C_inf_v

    Geometry (in Angstrom), charge = 0, multiplicity = 1:

       Center              X                  Y                   Z               Mass       
    ------------   -----------------  -----------------  -----------------  -----------------
         F            0.000000000000     0.000000000000    -0.075563346255    18.998403162730
         H            0.000000000000     0.000000000000     1.424436653745     1.007825032230

  Running in c2v symmetry.

  Rotational constants: A = ************  B =      7.82847  C =      7.82847 [cm^-1]
  Rotational constants: A = ************  B = 234691.66104  C = 234691.66104 [MHz]
  Nuclear repulsion =    3.175063264020000

  Charge       = 0
  Multiplicity = 1
  Electrons    = 10
  Nalpha       = 5
  Nbeta        = 5

  ==> Algorithm <==

  SCF Algorithm Type is DF.
  DIIS enabled.
  MOM disabled.
  Fractional occupation disabled.
  Guess Type is SAD.
  Energy threshold   = 1.00e-12
  Density threshold  = 1.00e-10
  Integral threshold = 1.00e-12

  ==> Primary Basis <==

  Basis Set: CC-PVDZ
    Blend: CC-PVDZ
    Number of shells: 9
    Number of basis functions: 19
    Number of Cartesian functions: 20
    Spherical Harmonics?: true
    Max angular momentum: 2

   => Loading Basis Set <=

    Name: CC-PVDZ-JKFIT
    Role: JKFIT
    Keyword: DF_BASIS_SCF
    atoms 1 entry F          line   271 file /Users/fevange/Source/psi4/objdir-Release/stage/share/psi4/basis/cc-pvdz-jkfit.gbs 
    atoms 2 entry H          line    51 file /Users/fevange/Source/psi4/objdir-Release/stage/share/psi4/basis/cc-pvdz-jkfit.gbs 

  ==> Integral Setup <==

  DFHelper Memory: AOs need 0.000 GiB; user supplied 0.349 GiB. Using in-core AOs.

  ==> MemDFJK: Density-Fitted J/K Matrices <==

    J tasked:                   Yes
    K tasked:                   Yes
    wK tasked:                   No
    OpenMP threads:               1
    Memory [MiB]:               357
    Algorithm:                 Core
    Schwarz Cutoff:           1E-12
    Mask sparsity (%):       0.0000
    Fitting Condition:        1E-10

   => Auxiliary Basis Set <=

  Basis Set: CC-PVDZ-JKFIT
    Blend: CC-PVDZ-JKFIT
    Number of shells: 33
    Number of basis functions: 93
    Number of Cartesian functions: 106
    Spherical Harmonics?: true
    Max angular momentum: 3

  Minimum eigenvalue in the overlap matrix is 1.3340269817E-01.
  Reciprocal condition number of the overlap matrix is 5.7946734818E-02.
    Using symmetric orthogonalization.

  ==> Pre-Iterations <==

  SCF Guess: Superposition of Atomic Densities via on-the-fly atomic UHF (no occupation information).

   -------------------------
    Irrep   Nso     Nmo    
   -------------------------
     A1        10      10 
     A2         1       1 
     B1         4       4 
     B2         4       4 
   -------------------------
    Total      19      19
   -------------------------

  ==> Iterations <==

                           Total Energy        Delta E     RMS |[F,P]|

   @DF-RHF iter SAD:   -99.27377095935006   -9.92738e+01   0.00000e+00 
   @DF-RHF iter   1:   -99.77292039981660   -4.99149e-01   3.58792e-02 ADIIS/DIIS
   @DF-RHF iter   2:   -99.82685767114131   -5.39373e-02   3.40175e-02 ADIIS/DIIS
   @DF-RHF iter   3:   -99.87037110147573   -4.35134e-02   3.91728e-03 ADIIS/DIIS
   @DF-RHF iter   4:   -99.87268563421237   -2.31453e-03   1.39426e-03 ADIIS/DIIS
   @DF-RHF iter   5:   -99.87284832449852   -1.62690e-04   1.37913e-04 ADIIS/DIIS
   @DF-RHF iter   6:   -99.87285073540292   -2.41090e-06   1.94522e-05 DIIS
   @DF-RHF iter   7:   -99.87285077605047   -4.06475e-08   3.02943e-06 DIIS
   @DF-RHF iter   8:   -99.87285077653490   -4.84434e-10   3.71883e-07 DIIS
   @DF-RHF iter   9:   -99.87285077654529   -1.03881e-11   2.60808e-08 DIIS
   @DF-RHF iter  10:   -99.87285077654539   -9.94760e-14   8.26422e-10 DIIS
   @DF-RHF iter  11:   -99.87285077654539    0.00000e+00   1.12305e-10 DIIS
   @DF-RHF iter  12:   -99.87285077654536    2.84217e-14   8.70607e-12 DIIS
  Energy and wave function converged.


  ==> Post-Iterations <==

    Orbital Energies [Eh]
    ---------------------

    Doubly Occupied:                                                      

       1A1   -26.279410     2A1    -1.484572     1B2    -0.593968  
       1B1    -0.593968     3A1    -0.565054  

    Virtual:                                                              

       4A1     0.016631     5A1     0.576874     2B2     1.315550  
       2B1     1.315550     6A1     1.464142     3B2     1.599468  
       3B1     1.599468     7A1     1.633209     8A1     2.301112  
       4B2     4.038915     4B1     4.038915     1A2     4.041504  
       9A1     4.041504    10A1     4.220351  

    Final Occupation by Irrep:
             A1    A2    B1    B2 
    DOCC [     3,    0,    1,    1 ]
    NA   [     3,    0,    1,    1 ]
    NB   [     3,    0,    1,    1 ]

  @DF-RHF Final Energy:   -99.87285077654536

   => Energetics <=

    Nuclear Repulsion Energy =              3.1750632640200003
    One-Electron Energy =                -147.0618843459609195
    Two-Electron Energy =                  44.0139703053955600
    Total Energy =                        -99.8728507765453628

Computation Completed


Properties will be evaluated at   0.000000,   0.000000,   0.000000 [a0]

Properties computed using the SCF density matrix


 Multipole Moments:

 ------------------------------------------------------------------------------------
     Multipole            Electronic (a.u.)      Nuclear  (a.u.)        Total (a.u.)
 ------------------------------------------------------------------------------------

 L = 1.  Multiply by 2.5417464519 to convert [e a0] to [Debye]
 Dipole X            :          0.0000000            0.0000000            0.0000000
 Dipole Y            :          0.0000000            0.0000000            0.0000000
 Dipole Z            :         -0.2426716            1.4066489            1.1639773
 Magnitude           :                                                    1.1639773

 ------------------------------------------------------------------------------------

*** tstop() called on CHE-FEVANGE-01i at Sun Jan 15 23:50:11 2023
Module time:
	user time   =       0.16 seconds =       0.00 minutes
	system time =       0.03 seconds =       0.00 minutes
	total time  =          0 seconds =       0.00 minutes
Total time:
	user time   =       0.16 seconds =       0.00 minutes
	system time =       0.03 seconds =       0.00 minutes
	total time  =          0 seconds =       0.00 minutes

  Read options for space RESTRICTED_DOCC
  Read options for space ACTIVE
  Read options for space RESTRICTED_DOCC

  ==> MO Space Information <==

  -------------------------------------------------
                       A1    A2    B1    B2   Sum
  -------------------------------------------------
    FROZEN_DOCC         0     0     0     0     0
    RESTRICTED_DOCC     2     0     1     1     4
    GAS1                2     0     0     0     2
    GAS2                0     0     0     0     0
    GAS3                0     0     0     0     0
    GAS4                0     0     0     0     0
    GAS5                0     0     0     0     0
    GAS6                0     0     0     0     0
    RESTRICTED_UOCC     6     1     3     3    13
    FROZEN_UOCC         0     0     0     0     0
    Total              10     1     4     4    19
  -------------------------------------------------   => Loading Basis Set <=

    Name: STO-3G
    Role: ORBITAL
    Keyword: MINAO_BASIS
    atoms 1 entry F          line    91 file /Users/fevange/Source/psi4/objdir-Release/stage/share/psi4/basis/sto-3g.gbs 
    atoms 2 entry H          line    19 file /Users/fevange/Source/psi4/objdir-Release/stage/share/psi4/basis/sto-3g.gbs 


  Forte will use psi4 integrals

  ==> Primary Basis Set Summary <==

  Basis Set: CC-PVDZ
    Blend: CC-PVDZ
    Number of shells: 9
    Number of basis functions: 19
    Number of Cartesian functions: 20
    Spherical Harmonics?: true
    Max angular momentum: 2


  JK created using conventional PK integrals
  Using in-core PK algorithm.
   Calculation information:
      Number of atoms:                   2
      Number of AO shells:               9
      Number of primitives:             27
      Number of atomic orbitals:        20
      Number of basis functions:        19

      Integral cutoff                 1.00e-12
      Number of threads:                 1

  Performing in-core PK
  Using 36290 doubles for integral storage.
  We computed 1035 shell quartets total.
  Whereas there are 1035 unique shell quartets.

  ==> DiskJK: Disk-Based J/K Matrices <==

    J tasked:                  Yes
    K tasked:                  Yes
    wK tasked:                  No
    Memory [MiB]:              381
    Schwarz Cutoff:          1E-12

    OpenMP threads:              1



  ==> Integral Transformation <==

  Number of molecular orbitals:                         19
  Number of correlated molecular orbitals:              19
  Number of frozen occupied orbitals:                    0
  Number of frozen unoccupied orbitals:                  0
  Two-electron integral type:                 Conventional


  Skip integral allocation and transformation for AO-driven CASSCF.

          -----------------------------------------------------------
                  Multi-Configurational Self Consistent Field
                Two-Step Approximate Second-Order AO Algorithm
            written by Chenyang Li, Kevin P. Hannon, and Shuhe Wang
          -----------------------------------------------------------


  ==> Calculation Information <==

    Integral type                               CONVENTIONAL
    CI solver type                                       FCI
    Final orbital type                               NATURAL
    Derivative type                                     NONE
    Optimize orbitals                                   TRUE
    Include internal rotations                         FALSE
    Debug printing                                     FALSE
    Energy convergence                             1.000e-12
    Gradient convergence                           1.000e-08
    Max value for rotation                         2.000e-01
    Printing level                                         1
    Max number of macro iterations                       100
    Max number of micro iterations                        40
    Min number of micro iterations                         6
    DIIS start                                            15
    Min DIIS vectors                                       3
    Max DIIS vectors                                       8
    Frequency of DIIS extrapolation                        1


  ==> Independent Orbital Rotations <==

    ORBITAL SPACES                        A1     A2     B1     B2
    -------------------------------------------------------------
             ACTIVE / RESTRICTED_DOCC      4      0      0      0
    RESTRICTED_UOCC /          ACTIVE     12      0      0      0
    RESTRICTED_UOCC / RESTRICTED_DOCC     12      0      3      3
    -------------------------------------------------------------

  ==> Summary of Active Space Solver Input <==

    Irrep.  Multi.(2ms)      N
    --------------------------
       A1      1  (  0)      1
    --------------------------
    N: number of roots
    ms: spin z component
    Total number of roots:   1
    --------------------------


  ==> String Lists <==

  Number of alpha electrons     = 1
  Number of beta electrons      = 1
  Number of alpha strings       = 2
  Number of beta strings        = 2
  Timing for strings        =      0.000 s
  Timing for NN strings     =      0.000 s
  Timing for VO strings     =      0.000 s
  Timing for OO strings     =      0.000 s
  Timing for VVOO strings   =      0.000 s
  Timing for VOVO strings   =      0.000 s
  Timing for 1-hole strings =      0.000 s
  Timing for 2-hole strings =      0.000 s
  Timing for 3-hole strings =      0.000 s
  Total timing              =      0.000 s

  ==> FCI Solver <==

    Number of determinants                           4
    Symmetry                                         0
    Multiplicity                                     1
    Number of roots                                  1
    Target root                                      0
    Trial vectors per root                          10

  Allocating memory for the Hamiltonian algorithm. Size: 2 x 2 x 2.   Memory: 0.000000 GB

  ==> FCI Initial Guess <==

  ---------------------------------------------
    Root            Energy     <S^2>   Spin
  ---------------------------------------------
      0      -99.910211125532  0.000  singlet
      1      -99.766901337924  2.000  triplet
      2      -99.546817687177  0.000  singlet
      3      -99.075602205077  0.000  singlet
  ---------------------------------------------
  Timing for initial guess  =      0.000 s

  Projecting out root 1

  ==> Diagonalizing Hamiltonian <==

  Energy   convergence: 1.00e-12
  Residual convergence: 1.00e-06
  -----------------------------------------------------
    Iter.      Avg. Energy       Delta_E     Res. Norm
  -----------------------------------------------------
      1      -99.910211125532  -9.991e+01  +5.622e-14
      2      -99.910211125532  +0.000e+00  +5.622e-14
  -----------------------------------------------------
  The Davidson-Liu algorithm converged in 3 iterations.

  ==> Root No. 0 <==

    20      0.96675058
    02     -0.23545612

    Total Energy:     -99.910211125532, <S^2>: -0.000000

  ==> Energy Summary <==

    Multi.(2ms)  Irrep.  No.               Energy      <S^2>
    --------------------------------------------------------
       1  (  0)    A1     0      -99.910211125532  -0.000000
    --------------------------------------------------------

  ==> Computing RDMs for Root No. 0 <==

    Timing for 1-RDM: 0.000 s

  ==> NATURAL ORBITALS <==

        1A1     1.885201      2A1     0.114799  


  ==> Permanent Dipole Moments [e a0] for Singlet (Ms = 0) A1 <==

       State           DM_X           DM_Y           DM_Z           |DM|
    --------------------------------------------------------------------
         0A1     0.00000000     0.00000000     0.70847186     0.70847186
    --------------------------------------------------------------------

  ==> Computing RDMs for Root No. 0 <==

    Timing for 1-RDM: 0.000 s
    Timing for 2-RDM: 0.000 s

  ==> NATURAL ORBITALS <==

        1A1     1.885201      2A1     0.114799  


  ==> Optimizing Orbitals for Current RDMs <==

    L-BFGS Iter:  1; fx =  -99.932814646853288; g_norm = 9.858370e-02; step = 9.124e-01
    L-BFGS Iter:  2; fx =  -99.936694760323419; g_norm = 4.346459e-02; step = 1.000e+00
    L-BFGS Iter:  3; fx =  -99.936900413771198; g_norm = 1.179349e-02; step = 1.000e+00
    L-BFGS Iter:  4; fx =  -99.936915689638511; g_norm = 2.148262e-03; step = 1.000e+00
    L-BFGS Iter:  5; fx =  -99.936916684300101; g_norm = 6.526663e-04; step = 1.000e+00
    L-BFGS Iter:  6; fx =  -99.936916740905048; g_norm = 6.526663e-04; step = 1.000e+00

  ==> MCSCF Macro Iter. 1 <==

             Energy CI (  Delta E  )         Energy Opt. (  Delta E  )  E_OPT - E_CI   Orbital RMS  Micro  DIIS
      -99.910211125532 (-9.9910e+01)    -99.936916740905 (-9.9937e+01)   -2.6706e-02    4.3096e-02    6/N

  ==> Summary of Active Space Solver Input <==

    Irrep.  Multi.(2ms)      N
    --------------------------
       A1      1  (  0)      1
    --------------------------
    N: number of roots
    ms: spin z component
    Total number of roots:   1
    --------------------------


  ==> String Lists <==

  Number of alpha electrons     = 1
  Number of beta electrons      = 1
  Number of alpha strings       = 2
  Number of beta strings        = 2
  Timing for strings        =      0.000 s
  Timing for NN strings     =      0.000 s
  Timing for VO strings     =      0.000 s
  Timing for OO strings     =      0.000 s
  Timing for VVOO strings   =      0.000 s
  Timing for VOVO strings   =      0.000 s
  Timing for 1-hole strings =      0.000 s
  Timing for 2-hole strings =      0.000 s
  Timing for 3-hole strings =      0.000 s
  Total timing              =      0.000 s

  ==> FCI Solver <==

    Number of determinants                           4
    Symmetry                                         0
    Multiplicity                                     1
    Number of roots                                  1
    Target root                                      0
    Trial vectors per root                          10

  Allocating memory for the Hamiltonian algorithm. Size: 2 x 2 x 2.   Memory: 0.000000 GB

  ==> FCI Initial Guess <==

  ---------------------------------------------
    Root            Energy     <S^2>   Spin
  ---------------------------------------------
      0      -99.938907754502  0.000  singlet
      1      -99.765903647143  2.000  triplet
      2      -99.351584805948  0.000  singlet
      3      -99.002440354955  0.000  singlet
  ---------------------------------------------
  Timing for initial guess  =      0.000 s

  Projecting out root 1

  ==> Diagonalizing Hamiltonian <==

  Energy   convergence: 5.34e-04
  Residual convergence: 2.15e-04
  -----------------------------------------------------
    Iter.      Avg. Energy       Delta_E     Res. Norm
  -----------------------------------------------------
      1      -99.938907754503  -9.994e+01  +5.715e-14
      2      -99.938907754503  +0.000e+00  +5.715e-14
  -----------------------------------------------------
  The Davidson-Liu algorithm converged in 3 iterations.

  ==> Root No. 0 <==

    20      0.95360570
    02     -0.28157697

    Total Energy:     -99.938907754503, <S^2>: 0.000000

  ==> Energy Summary <==

    Multi.(2ms)  Irrep.  No.               Energy      <S^2>
    --------------------------------------------------------
       1  (  0)    A1     0      -99.938907754503   0.000000
    --------------------------------------------------------

  ==> Computing RDMs for Root No. 0 <==

    Timing for 1-RDM: 0.000 s

  ==> NATURAL ORBITALS <==

        1A1     1.836231      2A1     0.163769  


  ==> Permanent Dipole Moments [e a0] for Singlet (Ms = 0) A1 <==

       State           DM_X           DM_Y           DM_Z           |DM|
    --------------------------------------------------------------------
         0A1     0.00000000     0.00000000     0.63744782     0.63744782
    --------------------------------------------------------------------

  ==> Computing RDMs for Root No. 0 <==

    Timing for 1-RDM: 0.000 s
    Timing for 2-RDM: 0.000 s

  ==> NATURAL ORBITALS <==

        1A1     1.836231      2A1     0.163769  


  ==> Optimizing Orbitals for Current RDMs <==

    L-BFGS Iter:  1; fx =  -99.939192897722535; g_norm = 1.088764e-02; step = 1.000e+00
    L-BFGS Iter:  2; fx =  -99.939207636146037; g_norm = 4.001725e-03; step = 1.000e+00
    L-BFGS Iter:  3; fx =  -99.939208890290743; g_norm = 9.831339e-04; step = 1.000e+00
    L-BFGS Iter:  4; fx =  -99.939209028823583; g_norm = 2.717731e-04; step = 1.000e+00
    L-BFGS Iter:  5; fx =  -99.939209043746743; g_norm = 1.250080e-04; step = 1.000e+00
    L-BFGS Iter:  6; fx =  -99.939209046223169; g_norm = 1.250080e-04; step = 1.000e+00

  ==> MCSCF Macro Iter. 2 <==

             Energy CI (  Delta E  )         Energy Opt. (  Delta E  )  E_OPT - E_CI   Orbital RMS  Micro  DIIS
      -99.938907754503 (-2.8697e-02)    -99.939209046223 (-2.2923e-03)   -3.0129e-04    1.2943e-04    6/N

  ==> Summary of Active Space Solver Input <==

    Irrep.  Multi.(2ms)      N
    --------------------------
       A1      1  (  0)      1
    --------------------------
    N: number of roots
    ms: spin z component
    Total number of roots:   1
    --------------------------


  ==> String Lists <==

  Number of alpha electrons     = 1
  Number of beta electrons      = 1
  Number of alpha strings       = 2
  Number of beta strings        = 2
  Timing for strings        =      0.000 s
  Timing for NN strings     =      0.000 s
  Timing for VO strings     =      0.000 s
  Timing for OO strings     =      0.000 s
  Timing for VVOO strings   =      0.000 s
  Timing for VOVO strings   =      0.000 s
  Timing for 1-hole strings =      0.000 s
  Timing for 2-hole strings =      0.000 s
  Timing for 3-hole strings =      0.000 s
  Total timing              =      0.000 s

  ==> FCI Solver <==

    Number of determinants                           4
    Symmetry                                         0
    Multiplicity                                     1
    Number of roots                                  1
    Target root                                      0
    Trial vectors per root                          10

  Allocating memory for the Hamiltonian algorithm. Size: 2 x 2 x 2.   Memory: 0.000000 GB

  ==> FCI Initial Guess <==

  ---------------------------------------------
    Root            Energy     <S^2>   Spin
  ---------------------------------------------
      0      -99.939283725990  0.000  singlet
      1      -99.777716224665  2.000  triplet
      2      -99.374135997870  0.000  singlet
      3      -99.023661521865  0.000  singlet
  ---------------------------------------------
  Timing for initial guess  =      0.000 s

  Projecting out root 1

  ==> Diagonalizing Hamiltonian <==

  Energy   convergence: 6.03e-06
  Residual convergence: 1.00e-06
  -----------------------------------------------------
    Iter.      Avg. Energy       Delta_E     Res. Norm
  -----------------------------------------------------
      1      -99.939283725990  -9.994e+01  +3.570e-14
      2      -99.939283725990  +0.000e+00  +3.570e-14
  -----------------------------------------------------
  The Davidson-Liu algorithm converged in 3 iterations.

  ==> Root No. 0 <==

    20      0.95051973
    02     -0.28898078

    Total Energy:     -99.939283725990, <S^2>: -0.000000

  ==> Energy Summary <==

    Multi.(2ms)  Irrep.  No.               Energy      <S^2>
    --------------------------------------------------------
       1  (  0)    A1     0      -99.939283725990  -0.000000
    --------------------------------------------------------

  ==> Computing RDMs for Root No. 0 <==

    Timing for 1-RDM: 0.000 s

  ==> NATURAL ORBITALS <==

        1A1     1.826888      2A1     0.173112  


  ==> Permanent Dipole Moments [e a0] for Singlet (Ms = 0) A1 <==

       State           DM_X           DM_Y           DM_Z           |DM|
    --------------------------------------------------------------------
         0A1     0.00000000     0.00000000     0.60769235     0.60769235
    --------------------------------------------------------------------

  ==> Computing RDMs for Root No. 0 <==

    Timing for 1-RDM: 0.000 s
    Timing for 2-RDM: 0.000 s

  ==> NATURAL ORBITALS <==

        1A1     1.826888      2A1     0.173112  


  ==> Optimizing Orbitals for Current RDMs <==

    L-BFGS Iter:  1; fx =  -99.939303555133336; g_norm = 5.311999e-03; step = 1.000e+00
    L-BFGS Iter:  2; fx =  -99.939305248190024; g_norm = 9.384340e-04; step = 1.000e+00
    L-BFGS Iter:  3; fx =  -99.939305385864586; g_norm = 3.546726e-04; step = 1.000e+00
    L-BFGS Iter:  4; fx =  -99.939305406206230; g_norm = 1.053037e-04; step = 1.000e+00
    L-BFGS Iter:  5; fx =  -99.939305408300015; g_norm = 4.228893e-05; step = 1.000e+00
    L-BFGS Iter:  6; fx =  -99.939305408585483; g_norm = 4.228893e-05; step = 1.000e+00

  ==> MCSCF Macro Iter. 3 <==

             Energy CI (  Delta E  )         Energy Opt. (  Delta E  )  E_OPT - E_CI   Orbital RMS  Micro  DIIS
      -99.939283725990 (-3.7597e-04)    -99.939305408585 (-9.6362e-05)   -2.1683e-05    1.4684e-05    6/N

  ==> Summary of Active Space Solver Input <==

    Irrep.  Multi.(2ms)      N
    --------------------------
       A1      1  (  0)      1
    --------------------------
    N: number of roots
    ms: spin z component
    Total number of roots:   1
    --------------------------


  ==> String Lists <==

  Number of alpha electrons     = 1
  Number of beta electrons      = 1
  Number of alpha strings       = 2
  Number of beta strings        = 2
  Timing for strings        =      0.000 s
  Timing for NN strings     =      0.000 s
  Timing for VO strings     =      0.000 s
  Timing for OO strings     =      0.000 s
  Timing for VVOO strings   =      0.000 s
  Timing for VOVO strings   =      0.000 s
  Timing for 1-hole strings =      0.000 s
  Timing for 2-hole strings =      0.000 s
  Timing for 3-hole strings =      0.000 s
  Total timing              =      0.000 s

  ==> FCI Solver <==

    Number of determinants                           4
    Symmetry                                         0
    Multiplicity                                     1
    Number of roots                                  1
    Target root                                      0
    Trial vectors per root                          10

  Allocating memory for the Hamiltonian algorithm. Size: 2 x 2 x 2.   Memory: 0.000000 GB

  ==> FCI Initial Guess <==

  ---------------------------------------------
    Root            Energy     <S^2>   Spin
  ---------------------------------------------
      0      -99.939312650648  0.000  singlet
      1      -99.780098606396  2.000  triplet
      2      -99.378162034424  0.000  singlet
      3      -99.028031020933  0.000  singlet
  ---------------------------------------------
  Timing for initial guess  =      0.000 s

  Projecting out root 1

  ==> Diagonalizing Hamiltonian <==

  Energy   convergence: 4.34e-07
  Residual convergence: 1.00e-06
  -----------------------------------------------------
    Iter.      Avg. Energy       Delta_E     Res. Norm
  -----------------------------------------------------
      1      -99.939312650648  -9.994e+01  +6.335e-14
      2      -99.939312650648  +0.000e+00  +6.335e-14
  -----------------------------------------------------
  The Davidson-Liu algorithm converged in 3 iterations.

  ==> Root No. 0 <==

    20      0.94965811
    02     -0.29057463

    Total Energy:     -99.939312650648, <S^2>: -0.000000

  ==> Energy Summary <==

    Multi.(2ms)  Irrep.  No.               Energy      <S^2>
    --------------------------------------------------------
       1  (  0)    A1     0      -99.939312650648  -0.000000
    --------------------------------------------------------

  ==> Computing RDMs for Root No. 0 <==

    Timing for 1-RDM: 0.000 s

  ==> NATURAL ORBITALS <==

        1A1     1.824674      2A1     0.175326  


  ==> Permanent Dipole Moments [e a0] for Singlet (Ms = 0) A1 <==

       State           DM_X           DM_Y           DM_Z           |DM|
    --------------------------------------------------------------------
         0A1     0.00000000     0.00000000     0.59727276     0.59727276
    --------------------------------------------------------------------

  ==> Computing RDMs for Root No. 0 <==

    Timing for 1-RDM: 0.000 s
    Timing for 2-RDM: 0.000 s

  ==> NATURAL ORBITALS <==

        1A1     1.824674      2A1     0.175326  


  ==> Optimizing Orbitals for Current RDMs <==

    L-BFGS Iter:  1; fx =  -99.939314874376677; g_norm = 1.978875e-03; step = 1.000e+00
    L-BFGS Iter:  2; fx =  -99.939315083841947; g_norm = 3.020835e-04; step = 1.000e+00
    L-BFGS Iter:  3; fx =  -99.939315100863197; g_norm = 1.256466e-04; step = 1.000e+00
    L-BFGS Iter:  4; fx =  -99.939315103582700; g_norm = 3.988247e-05; step = 1.000e+00
    L-BFGS Iter:  5; fx =  -99.939315103844621; g_norm = 1.404814e-05; step = 1.000e+00
    L-BFGS Iter:  6; fx =  -99.939315103878869; g_norm = 1.404814e-05; step = 1.000e+00

  ==> MCSCF Macro Iter. 4 <==

             Energy CI (  Delta E  )         Energy Opt. (  Delta E  )  E_OPT - E_CI   Orbital RMS  Micro  DIIS
      -99.939312650648 (-2.8925e-05)    -99.939315103879 (-9.6953e-06)   -2.4532e-06    4.8930e-06    6/N

  ==> Summary of Active Space Solver Input <==

    Irrep.  Multi.(2ms)      N
    --------------------------
       A1      1  (  0)      1
    --------------------------
    N: number of roots
    ms: spin z component
    Total number of roots:   1
    --------------------------


  ==> String Lists <==

  Number of alpha electrons     = 1
  Number of beta electrons      = 1
  Number of alpha strings       = 2
  Number of beta strings        = 2
  Timing for strings        =      0.000 s
  Timing for NN strings     =      0.000 s
  Timing for VO strings     =      0.000 s
  Timing for OO strings     =      0.000 s
  Timing for VVOO strings   =      0.000 s
  Timing for VOVO strings   =      0.000 s
  Timing for 1-hole strings =      0.000 s
  Timing for 2-hole strings =      0.000 s
  Timing for 3-hole strings =      0.000 s
  Total timing              =      0.000 s

  ==> FCI Solver <==

    Number of determinants                           4
    Symmetry                                         0
    Multiplicity                                     1
    Number of roots                                  1
    Target root                                      0
    Trial vectors per root                          10

  Allocating memory for the Hamiltonian algorithm. Size: 2 x 2 x 2.   Memory: 0.000000 GB

  ==> FCI Initial Guess <==

  ---------------------------------------------
    Root            Energy     <S^2>   Spin
  ---------------------------------------------
      0      -99.939315945723  0.000  singlet
      1      -99.780775517418  2.000  triplet
      2      -99.379222785315  0.000  singlet
      3      -99.029276225633  0.000  singlet
  ---------------------------------------------
  Timing for initial guess  =      0.000 s

  Projecting out root 1

  ==> Diagonalizing Hamiltonian <==

  Energy   convergence: 4.91e-08
  Residual convergence: 1.00e-06
  -----------------------------------------------------
    Iter.      Avg. Energy       Delta_E     Res. Norm
  -----------------------------------------------------
      1      -99.939315945723  -9.994e+01  +4.471e-14
      2      -99.939315945723  +0.000e+00  +4.471e-14
  -----------------------------------------------------
  The Davidson-Liu algorithm converged in 3 iterations.

  ==> Root No. 0 <==

    20      0.94938083
    02     -0.29103415

    Total Energy:     -99.939315945723, <S^2>: 0.000000

  ==> Energy Summary <==

    Multi.(2ms)  Irrep.  No.               Energy      <S^2>
    --------------------------------------------------------
       1  (  0)    A1     0      -99.939315945723   0.000000
    --------------------------------------------------------

  ==> Computing RDMs for Root No. 0 <==

    Timing for 1-RDM: 0.000 s

  ==> NATURAL ORBITALS <==

        1A1     1.824007      2A1     0.175993  


  ==> Permanent Dipole Moments [e a0] for Singlet (Ms = 0) A1 <==

       State           DM_X           DM_Y           DM_Z           |DM|
    --------------------------------------------------------------------
         0A1     0.00000000     0.00000000     0.59369233     0.59369233
    --------------------------------------------------------------------

  ==> Computing RDMs for Root No. 0 <==

    Timing for 1-RDM: 0.000 s
    Timing for 2-RDM: 0.000 s

  ==> NATURAL ORBITALS <==

        1A1     1.824007      2A1     0.175993  


  ==> Optimizing Orbitals for Current RDMs <==

    L-BFGS Iter:  1; fx =  -99.939316205857011; g_norm = 6.908438e-04; step = 1.000e+00
    L-BFGS Iter:  2; fx =  -99.939316230806099; g_norm = 1.021931e-04; step = 1.000e+00
    L-BFGS Iter:  3; fx =  -99.939316232820730; g_norm = 4.341708e-05; step = 1.000e+00
    L-BFGS Iter:  4; fx =  -99.939316233153221; g_norm = 1.394286e-05; step = 1.000e+00
    L-BFGS Iter:  5; fx =  -99.939316233184016; g_norm = 4.794601e-06; step = 1.000e+00
    L-BFGS Iter:  6; fx =  -99.939316233188038; g_norm = 4.794601e-06; step = 1.000e+00

  ==> MCSCF Macro Iter. 5 <==

             Energy CI (  Delta E  )         Energy Opt. (  Delta E  )  E_OPT - E_CI   Orbital RMS  Micro  DIIS
      -99.939315945723 (-3.2951e-06)    -99.939316233188 (-1.1293e-06)   -2.8747e-07    1.5883e-06    6/N

  ==> Summary of Active Space Solver Input <==

    Irrep.  Multi.(2ms)      N
    --------------------------
       A1      1  (  0)      1
    --------------------------
    N: number of roots
    ms: spin z component
    Total number of roots:   1
    --------------------------


  ==> String Lists <==

  Number of alpha electrons     = 1
  Number of beta electrons      = 1
  Number of alpha strings       = 2
  Number of beta strings        = 2
  Timing for strings        =      0.000 s
  Timing for NN strings     =      0.000 s
  Timing for VO strings     =      0.000 s
  Timing for OO strings     =      0.000 s
  Timing for VVOO strings   =      0.000 s
  Timing for VOVO strings   =      0.000 s
  Timing for 1-hole strings =      0.000 s
  Timing for 2-hole strings =      0.000 s
  Timing for 3-hole strings =      0.000 s
  Total timing              =      0.000 s

  ==> FCI Solver <==

    Number of determinants                           4
    Symmetry                                         0
    Multiplicity                                     1
    Number of roots                                  1
    Target root                                      0
    Trial vectors per root                          10

  Allocating memory for the Hamiltonian algorithm. Size: 2 x 2 x 2.   Memory: 0.000000 GB

  ==> FCI Initial Guess <==

  ---------------------------------------------
    Root            Energy     <S^2>   Spin
  ---------------------------------------------
      0      -99.939316331613  0.000  singlet
      1      -99.780994659033  2.000  triplet
      2      -99.379557918009  0.000  singlet
      3      -99.029679763206  0.000  singlet
  ---------------------------------------------
  Timing for initial guess  =      0.000 s

  Projecting out root 1

  ==> Diagonalizing Hamiltonian <==

  Energy   convergence: 5.75e-09
  Residual convergence: 1.00e-06
  -----------------------------------------------------
    Iter.      Avg. Energy       Delta_E     Res. Norm
  -----------------------------------------------------
      1      -99.939316331613  -9.994e+01  +1.612e-14
      2      -99.939316331613  +0.000e+00  +1.612e-14
  -----------------------------------------------------
  The Davidson-Liu algorithm converged in 3 iterations.

  ==> Root No. 0 <==

    20     -0.94928756
    02      0.29118351

    Total Energy:     -99.939316331613, <S^2>: -0.000000

  ==> Energy Summary <==

    Multi.(2ms)  Irrep.  No.               Energy      <S^2>
    --------------------------------------------------------
       1  (  0)    A1     0      -99.939316331613  -0.000000
    --------------------------------------------------------

  ==> Computing RDMs for Root No. 0 <==

    Timing for 1-RDM: 0.000 s

  ==> NATURAL ORBITALS <==

        1A1     1.823787      2A1     0.176213  


  ==> Permanent Dipole Moments [e a0] for Singlet (Ms = 0) A1 <==

       State           DM_X           DM_Y           DM_Z           |DM|
    --------------------------------------------------------------------
         0A1     0.00000000     0.00000000     0.59246771     0.59246771
    --------------------------------------------------------------------

  ==> Computing RDMs for Root No. 0 <==

    Timing for 1-RDM: 0.000 s
    Timing for 2-RDM: 0.000 s

  ==> NATURAL ORBITALS <==

        1A1     1.823787      2A1     0.176213  


  ==> Optimizing Orbitals for Current RDMs <==

    L-BFGS Iter:  1; fx =  -99.939316361992113; g_norm = 2.372329e-04; step = 1.000e+00
    L-BFGS Iter:  2; fx =  -99.939316364918042; g_norm = 3.482376e-05; step = 1.000e+00
    L-BFGS Iter:  3; fx =  -99.939316365153800; g_norm = 1.487118e-05; step = 1.000e+00
    L-BFGS Iter:  4; fx =  -99.939316365192994; g_norm = 4.787967e-06; step = 1.000e+00
    L-BFGS Iter:  5; fx =  -99.939316365196660; g_norm = 1.637692e-06; step = 1.000e+00
    L-BFGS Iter:  6; fx =  -99.939316365197115; g_norm = 1.637692e-06; step = 1.000e+00

  ==> MCSCF Macro Iter. 6 <==

             Energy CI (  Delta E  )         Energy Opt. (  Delta E  )  E_OPT - E_CI   Orbital RMS  Micro  DIIS
      -99.939316331613 (-3.8589e-07)    -99.939316365197 (-1.3201e-07)   -3.3584e-08    5.4144e-07    6/N

  ==> Summary of Active Space Solver Input <==

    Irrep.  Multi.(2ms)      N
    --------------------------
       A1      1  (  0)      1
    --------------------------
    N: number of roots
    ms: spin z component
    Total number of roots:   1
    --------------------------


  ==> String Lists <==

  Number of alpha electrons     = 1
  Number of beta electrons      = 1
  Number of alpha strings       = 2
  Number of beta strings        = 2
  Timing for strings        =      0.000 s
  Timing for NN strings     =      0.000 s
  Timing for VO strings     =      0.000 s
  Timing for OO strings     =      0.000 s
  Timing for VVOO strings   =      0.000 s
  Timing for VOVO strings   =      0.000 s
  Timing for 1-hole strings =      0.000 s
  Timing for 2-hole strings =      0.000 s
  Timing for 3-hole strings =      0.000 s
  Total timing              =      0.000 s

  ==> FCI Solver <==

    Number of determinants                           4
    Symmetry                                         0
    Multiplicity                                     1
    Number of roots                                  1
    Target root                                      0
    Trial vectors per root                          10

  Allocating memory for the Hamiltonian algorithm. Size: 2 x 2 x 2.   Memory: 0.000000 GB

  ==> FCI Initial Guess <==

  ---------------------------------------------
    Root            Energy     <S^2>   Spin
  ---------------------------------------------
      0      -99.939316376678  0.000  singlet
      1      -99.781068380464  2.000  triplet
      2      -99.379669939138  0.000  singlet
      3      -99.029815581947  0.000  singlet
  ---------------------------------------------
  Timing for initial guess  =      0.000 s

  Projecting out root 1

  ==> Diagonalizing Hamiltonian <==

  Energy   convergence: 6.72e-10
  Residual convergence: 1.00e-06
  -----------------------------------------------------
    Iter.      Avg. Energy       Delta_E     Res. Norm
  -----------------------------------------------------
      1      -99.939316376678  -9.994e+01  +1.559e-14
      2      -99.939316376678  +0.000e+00  +1.559e-14
  -----------------------------------------------------
  The Davidson-Liu algorithm converged in 3 iterations.

  ==> Root No. 0 <==

    20      0.94925584
    02     -0.29123382

    Total Energy:     -99.939316376678, <S^2>: 0.000000

  ==> Energy Summary <==

    Multi.(2ms)  Irrep.  No.               Energy      <S^2>
    --------------------------------------------------------
       1  (  0)    A1     0      -99.939316376678   0.000000
    --------------------------------------------------------

  ==> Computing RDMs for Root No. 0 <==

    Timing for 1-RDM: 0.000 s

  ==> NATURAL ORBITALS <==

        1A1     1.823713      2A1     0.176287  


  ==> Permanent Dipole Moments [e a0] for Singlet (Ms = 0) A1 <==

       State           DM_X           DM_Y           DM_Z           |DM|
    --------------------------------------------------------------------
         0A1     0.00000000     0.00000000     0.59204949     0.59204949
    --------------------------------------------------------------------

  ==> Computing RDMs for Root No. 0 <==

    Timing for 1-RDM: 0.000 s
    Timing for 2-RDM: 0.000 s

  ==> NATURAL ORBITALS <==

        1A1     1.823713      2A1     0.176287  


  ==> Optimizing Orbitals for Current RDMs <==

    L-BFGS Iter:  1; fx =  -99.939316380219537; g_norm = 8.110122e-05; step = 1.000e+00
    L-BFGS Iter:  2; fx =  -99.939316380561081; g_norm = 1.188161e-05; step = 1.000e+00
    L-BFGS Iter:  3; fx =  -99.939316380588551; g_norm = 5.080567e-06; step = 1.000e+00
    L-BFGS Iter:  4; fx =  -99.939316380593141; g_norm = 1.636765e-06; step = 1.000e+00
    L-BFGS Iter:  5; fx =  -99.939316380593581; g_norm = 5.591149e-07; step = 1.000e+00
    L-BFGS Iter:  6; fx =  -99.939316380593638; g_norm = 5.591149e-07; step = 1.000e+00

  ==> MCSCF Macro Iter. 7 <==

             Energy CI (  Delta E  )         Energy Opt. (  Delta E  )  E_OPT - E_CI   Orbital RMS  Micro  DIIS
      -99.939316376678 (-4.5065e-08)    -99.939316380594 (-1.5397e-08)   -3.9155e-09    1.8498e-07    6/N

  ==> Summary of Active Space Solver Input <==

    Irrep.  Multi.(2ms)      N
    --------------------------
       A1      1  (  0)      1
    --------------------------
    N: number of roots
    ms: spin z component
    Total number of roots:   1
    --------------------------


  ==> String Lists <==

  Number of alpha electrons     = 1
  Number of beta electrons      = 1
  Number of alpha strings       = 2
  Number of beta strings        = 2
  Timing for strings        =      0.000 s
  Timing for NN strings     =      0.000 s
  Timing for VO strings     =      0.000 s
  Timing for OO strings     =      0.000 s
  Timing for VVOO strings   =      0.000 s
  Timing for VOVO strings   =      0.000 s
  Timing for 1-hole strings =      0.000 s
  Timing for 2-hole strings =      0.000 s
  Timing for 3-hole strings =      0.000 s
  Total timing              =      0.000 s

  ==> FCI Solver <==

    Number of determinants                           4
    Symmetry                                         0
    Multiplicity                                     1
    Number of roots                                  1
    Target root                                      0
    Trial vectors per root                          10

  Allocating memory for the Hamiltonian algorithm. Size: 2 x 2 x 2.   Memory: 0.000000 GB

  ==> FCI Initial Guess <==

  ---------------------------------------------
    Root            Energy     <S^2>   Spin
  ---------------------------------------------
      0      -99.939316381931  0.000  singlet
      1      -99.781093440849  2.000  triplet
      2      -99.379707958303  0.000  singlet
      3      -99.029861759800  0.000  singlet
  ---------------------------------------------
  Timing for initial guess  =      0.000 s

  Projecting out root 1

  ==> Diagonalizing Hamiltonian <==

  Energy   convergence: 7.83e-11
  Residual convergence: 1.00e-06
  -----------------------------------------------------
    Iter.      Avg. Energy       Delta_E     Res. Norm
  -----------------------------------------------------
      1      -99.939316381931  -9.994e+01  +1.785e-14
      2      -99.939316381931  +0.000e+00  +1.785e-14
  -----------------------------------------------------
  The Davidson-Liu algorithm converged in 3 iterations.

  ==> Root No. 0 <==

    20      0.94924502
    02     -0.29125093

    Total Energy:     -99.939316381931, <S^2>: -0.000000

  ==> Energy Summary <==

    Multi.(2ms)  Irrep.  No.               Energy      <S^2>
    --------------------------------------------------------
       1  (  0)    A1     0      -99.939316381931  -0.000000
    --------------------------------------------------------

  ==> Computing RDMs for Root No. 0 <==

    Timing for 1-RDM: 0.000 s

  ==> NATURAL ORBITALS <==

        1A1     1.823688      2A1     0.176312  


  ==> Permanent Dipole Moments [e a0] for Singlet (Ms = 0) A1 <==

       State           DM_X           DM_Y           DM_Z           |DM|
    --------------------------------------------------------------------
         0A1     0.00000000     0.00000000     0.59190672     0.59190672
    --------------------------------------------------------------------

  ==> Computing RDMs for Root No. 0 <==

    Timing for 1-RDM: 0.000 s
    Timing for 2-RDM: 0.000 s

  ==> NATURAL ORBITALS <==

        1A1     1.823688      2A1     0.176312  


  ==> Optimizing Orbitals for Current RDMs <==

    L-BFGS Iter:  1; fx =  -99.939316382343961; g_norm = 2.769064e-05; step = 1.000e+00
    L-BFGS Iter:  2; fx =  -99.939316382383751; g_norm = 4.054690e-06; step = 1.000e+00
    L-BFGS Iter:  3; fx =  -99.939316382386949; g_norm = 1.734373e-06; step = 1.000e+00
    L-BFGS Iter:  4; fx =  -99.939316382387531; g_norm = 5.588343e-07; step = 1.000e+00
    L-BFGS Iter:  5; fx =  -99.939316382387574; g_norm = 1.908336e-07; step = 1.000e+00
    L-BFGS Iter:  6; fx =  -99.939316382387517; g_norm = 1.908336e-07; step = 1.000e+00

  ==> MCSCF Macro Iter. 8 <==

             Energy CI (  Delta E  )         Energy Opt. (  Delta E  )  E_OPT - E_CI   Orbital RMS  Micro  DIIS
      -99.939316381931 (-5.2532e-09)    -99.939316382388 (-1.7939e-09)   -4.5613e-10    6.3160e-08    6/N

  ==> Summary of Active Space Solver Input <==

    Irrep.  Multi.(2ms)      N
    --------------------------
       A1      1  (  0)      1
    --------------------------
    N: number of roots
    ms: spin z component
    Total number of roots:   1
    --------------------------


  ==> String Lists <==

  Number of alpha electrons     = 1
  Number of beta electrons      = 1
  Number of alpha strings       = 2
  Number of beta strings        = 2
  Timing for strings        =      0.000 s
  Timing for NN strings     =      0.000 s
  Timing for VO strings     =      0.000 s
  Timing for OO strings     =      0.000 s
  Timing for VVOO strings   =      0.000 s
  Timing for VOVO strings   =      0.000 s
  Timing for 1-hole strings =      0.000 s
  Timing for 2-hole strings =      0.000 s
  Timing for 3-hole strings =      0.000 s
  Total timing              =      0.000 s

  ==> FCI Solver <==

    Number of determinants                           4
    Symmetry                                         0
    Multiplicity                                     1
    Number of roots                                  1
    Target root                                      0
    Trial vectors per root                          10

  Allocating memory for the Hamiltonian algorithm. Size: 2 x 2 x 2.   Memory: 0.000000 GB

  ==> FCI Initial Guess <==

  ---------------------------------------------
    Root            Energy     <S^2>   Spin
  ---------------------------------------------
      0      -99.939316382543  0.000  singlet
      1      -99.781101983664  2.000  triplet
      2      -99.379720913598  0.000  singlet
      3      -99.029877502390  0.000  singlet
  ---------------------------------------------
  Timing for initial guess  =      0.000 s

  Projecting out root 1

  ==> Diagonalizing Hamiltonian <==

  Energy   convergence: 9.12e-12
  Residual convergence: 1.00e-06
  -----------------------------------------------------
    Iter.      Avg. Energy       Delta_E     Res. Norm
  -----------------------------------------------------
      1      -99.939316382543  -9.994e+01  +2.328e-14
      2      -99.939316382543  +0.000e+00  +2.328e-14
  -----------------------------------------------------
  The Davidson-Liu algorithm converged in 3 iterations.

  ==> Root No. 0 <==

    20      0.94924133
    02     -0.29125676

    Total Energy:     -99.939316382543, <S^2>: -0.000000

  ==> Energy Summary <==

    Multi.(2ms)  Irrep.  No.               Energy      <S^2>
    --------------------------------------------------------
       1  (  0)    A1     0      -99.939316382543  -0.000000
    --------------------------------------------------------

  ==> Computing RDMs for Root No. 0 <==

    Timing for 1-RDM: 0.000 s

  ==> NATURAL ORBITALS <==

        1A1     1.823679      2A1     0.176321  


  ==> Permanent Dipole Moments [e a0] for Singlet (Ms = 0) A1 <==

       State           DM_X           DM_Y           DM_Z           |DM|
    --------------------------------------------------------------------
         0A1     0.00000000     0.00000000     0.59185800     0.59185800
    --------------------------------------------------------------------

  ==> Computing RDMs for Root No. 0 <==

    Timing for 1-RDM: 0.000 s
    Timing for 2-RDM: 0.000 s

  ==> NATURAL ORBITALS <==

        1A1     1.823679      2A1     0.176321  


  ==> Optimizing Orbitals for Current RDMs <==

    L-BFGS Iter:  1; fx =  -99.939316382591457; g_norm = 9.451048e-06; step = 1.000e+00
    L-BFGS Iter:  2; fx =  -99.939316382596090; g_norm = 1.383709e-06; step = 1.000e+00
    L-BFGS Iter:  3; fx =  -99.939316382596459; g_norm = 5.919285e-07; step = 1.000e+00
    L-BFGS Iter:  4; fx =  -99.939316382596488; g_norm = 1.907332e-07; step = 1.000e+00
    L-BFGS Iter:  5; fx =  -99.939316382596502; g_norm = 6.512701e-08; step = 1.000e+00
    L-BFGS Iter:  6; fx =  -99.939316382596530; g_norm = 6.512701e-08; step = 1.000e+00

  ==> MCSCF Macro Iter. 9 <==

             Energy CI (  Delta E  )         Energy Opt. (  Delta E  )  E_OPT - E_CI   Orbital RMS  Micro  DIIS
      -99.939316382543 (-6.1196e-10)    -99.939316382597 (-2.0901e-10)   -5.3177e-11    2.1558e-08    6/N

  ==> Summary of Active Space Solver Input <==

    Irrep.  Multi.(2ms)      N
    --------------------------
       A1      1  (  0)      1
    --------------------------
    N: number of roots
    ms: spin z component
    Total number of roots:   1
    --------------------------


  ==> String Lists <==

  Number of alpha electrons     = 1
  Number of beta electrons      = 1
  Number of alpha strings       = 2
  Number of beta strings        = 2
  Timing for strings        =      0.000 s
  Timing for NN strings     =      0.000 s
  Timing for VO strings     =      0.000 s
  Timing for OO strings     =      0.000 s
  Timing for VVOO strings   =      0.000 s
  Timing for VOVO strings   =      0.000 s
  Timing for 1-hole strings =      0.000 s
  Timing for 2-hole strings =      0.000 s
  Timing for 3-hole strings =      0.000 s
  Total timing              =      0.000 s

  ==> FCI Solver <==

    Number of determinants                           4
    Symmetry                                         0
    Multiplicity                                     1
    Number of roots                                  1
    Target root                                      0
    Trial vectors per root                          10

  Allocating memory for the Hamiltonian algorithm. Size: 2 x 2 x 2.   Memory: 0.000000 GB

  ==> FCI Initial Guess <==

  ---------------------------------------------
    Root            Energy     <S^2>   Spin
  ---------------------------------------------
      0      -99.939316382615  0.000  singlet
      1      -99.781104898054  2.000  triplet
      2      -99.379725332896  0.000  singlet
      3      -99.029882873121  0.000  singlet
  ---------------------------------------------
  Timing for initial guess  =      0.000 s

  Projecting out root 1

  ==> Diagonalizing Hamiltonian <==

  Energy   convergence: 1.06e-12
  Residual convergence: 1.00e-06
  -----------------------------------------------------
    Iter.      Avg. Energy       Delta_E     Res. Norm
  -----------------------------------------------------
      1      -99.939316382615  -9.994e+01  +3.269e-14
      2      -99.939316382615  +0.000e+00  +3.269e-14
  -----------------------------------------------------
  The Davidson-Liu algorithm converged in 3 iterations.

  ==> Root No. 0 <==

    20      0.94924007
    02     -0.29125875

    Total Energy:     -99.939316382615, <S^2>: 0.000000

  ==> Energy Summary <==

    Multi.(2ms)  Irrep.  No.               Energy      <S^2>
    --------------------------------------------------------
       1  (  0)    A1     0      -99.939316382615   0.000000
    --------------------------------------------------------

  ==> Computing RDMs for Root No. 0 <==

    Timing for 1-RDM: 0.000 s

  ==> NATURAL ORBITALS <==

        1A1     1.823676      2A1     0.176324  


  ==> Permanent Dipole Moments [e a0] for Singlet (Ms = 0) A1 <==

       State           DM_X           DM_Y           DM_Z           |DM|
    --------------------------------------------------------------------
         0A1     0.00000000     0.00000000     0.59184138     0.59184138
    --------------------------------------------------------------------

  ==> Computing RDMs for Root No. 0 <==

    Timing for 1-RDM: 0.000 s
    Timing for 2-RDM: 0.000 s

  ==> NATURAL ORBITALS <==

        1A1     1.823676      2A1     0.176324  


  ==> Optimizing Orbitals for Current RDMs <==

    L-BFGS Iter:  1; fx =  -99.939316382620277; g_norm = 3.225370e-06; step = 1.000e+00
    L-BFGS Iter:  2; fx =  -99.939316382620845; g_norm = 4.722023e-07; step = 1.000e+00
    L-BFGS Iter:  3; fx =  -99.939316382620859; g_norm = 2.020055e-07; step = 1.000e+00
    L-BFGS Iter:  4; fx =  -99.939316382620873; g_norm = 6.509149e-08; step = 1.000e+00
    L-BFGS Iter:  5; fx =  -99.939316382620888; g_norm = 2.222539e-08; step = 1.000e+00
    L-BFGS Iter:  6; fx =  -99.939316382620902; g_norm = 2.222539e-08; step = 1.000e+00

  ==> MCSCF Macro Iter. 10 <==

             Energy CI (  Delta E  )         Energy Opt. (  Delta E  )  E_OPT - E_CI   Orbital RMS  Micro  DIIS
      -99.939316382615 (-7.1338e-11)    -99.939316382621 (-2.4372e-11)   -6.2101e-12    7.3576e-09    6/N

  ==> Summary of Active Space Solver Input <==

    Irrep.  Multi.(2ms)      N
    --------------------------
       A1      1  (  0)      1
    --------------------------
    N: number of roots
    ms: spin z component
    Total number of roots:   1
    --------------------------


  ==> String Lists <==

  Number of alpha electrons     = 1
  Number of beta electrons      = 1
  Number of alpha strings       = 2
  Number of beta strings        = 2
  Timing for strings        =      0.000 s
  Timing for NN strings     =      0.000 s
  Timing for VO strings     =      0.000 s
  Timing for OO strings     =      0.000 s
  Timing for VVOO strings   =      0.000 s
  Timing for VOVO strings   =      0.000 s
  Timing for 1-hole strings =      0.000 s
  Timing for 2-hole strings =      0.000 s
  Timing for 3-hole strings =      0.000 s
  Total timing              =      0.000 s

  ==> FCI Solver <==

    Number of determinants                           4
    Symmetry                                         0
    Multiplicity                                     1
    Number of roots                                  1
    Target root                                      0
    Trial vectors per root                          10

  Allocating memory for the Hamiltonian algorithm. Size: 2 x 2 x 2.   Memory: 0.000000 GB

  ==> FCI Initial Guess <==

  ---------------------------------------------
    Root            Energy     <S^2>   Spin
  ---------------------------------------------
      0      -99.939316382623  0.000  singlet
      1      -99.781105892515  2.000  triplet
      2      -99.379726840835  0.000  singlet
      3      -99.029884705762  0.000  singlet
  ---------------------------------------------
  Timing for initial guess  =      0.000 s

  Projecting out root 1

  ==> Diagonalizing Hamiltonian <==

  Energy   convergence: 1.00e-12
  Residual convergence: 1.00e-06
  -----------------------------------------------------
    Iter.      Avg. Energy       Delta_E     Res. Norm
  -----------------------------------------------------
      1      -99.939316382623  -9.994e+01  +7.763e-14
      2      -99.939316382623  +0.000e+00  +7.763e-14
  -----------------------------------------------------
  The Davidson-Liu algorithm converged in 3 iterations.

  ==> Root No. 0 <==

    20     -0.94923964
    02      0.29125943

    Total Energy:     -99.939316382623, <S^2>: -0.000000

  ==> Energy Summary <==

    Multi.(2ms)  Irrep.  No.               Energy      <S^2>
    --------------------------------------------------------
       1  (  0)    A1     0      -99.939316382623  -0.000000
    --------------------------------------------------------

  ==> Computing RDMs for Root No. 0 <==

    Timing for 1-RDM: 0.000 s

  ==> NATURAL ORBITALS <==

        1A1     1.823675      2A1     0.176325  


  ==> Permanent Dipole Moments [e a0] for Singlet (Ms = 0) A1 <==

       State           DM_X           DM_Y           DM_Z           |DM|
    --------------------------------------------------------------------
         0A1     0.00000000     0.00000000     0.59183570     0.59183570
    --------------------------------------------------------------------

  ==> Computing RDMs for Root No. 0 <==

    Timing for 1-RDM: 0.000 s
    Timing for 2-RDM: 0.000 s

  ==> NATURAL ORBITALS <==

        1A1     1.823675      2A1     0.176325  


  ==> Optimizing Orbitals for Current RDMs <==

    L-BFGS Iter:  1; fx =  -99.939316382623645; g_norm = 1.100689e-06; step = 1.000e+00
    L-BFGS Iter:  2; fx =  -99.939316382623716; g_norm = 1.611419e-07; step = 1.000e+00
    L-BFGS Iter:  3; fx =  -99.939316382623687; g_norm = 6.893610e-08; step = 1.000e+00
    L-BFGS Iter:  4; fx =  -99.939316382623716; g_norm = 2.221307e-08; step = 1.000e+00
    L-BFGS Iter:  5; fx =  -99.939316382623716; g_norm = 7.584575e-09; step = 1.000e+00

  ==> MCSCF Macro Iter. 11 <==

             Energy CI (  Delta E  )         Energy Opt. (  Delta E  )  E_OPT - E_CI   Orbital RMS  Micro  DIIS
      -99.939316382623 (-8.3844e-12)    -99.939316382624 (-2.8137e-12)   -6.3949e-13    2.5109e-09    5/Y

  ==> Summary of Active Space Solver Input <==

    Irrep.  Multi.(2ms)      N
    --------------------------
       A1      1  (  0)      1
    --------------------------
    N: number of roots
    ms: spin z component
    Total number of roots:   1
    --------------------------


  ==> String Lists <==

  Number of alpha electrons     = 1
  Number of beta electrons      = 1
  Number of alpha strings       = 2
  Number of beta strings        = 2
  Timing for strings        =      0.000 s
  Timing for NN strings     =      0.000 s
  Timing for VO strings     =      0.000 s
  Timing for OO strings     =      0.000 s
  Timing for VVOO strings   =      0.000 s
  Timing for VOVO strings   =      0.000 s
  Timing for 1-hole strings =      0.000 s
  Timing for 2-hole strings =      0.000 s
  Timing for 3-hole strings =      0.000 s
  Total timing              =      0.000 s

  ==> FCI Solver <==

    Number of determinants                           4
    Symmetry                                         0
    Multiplicity                                     1
    Number of roots                                  1
    Target root                                      0
    Trial vectors per root                          10

  Allocating memory for the Hamiltonian algorithm. Size: 2 x 2 x 2.   Memory: 0.000000 GB

  ==> FCI Initial Guess <==

  ---------------------------------------------
    Root            Energy     <S^2>   Spin
  ---------------------------------------------
      0      -99.939316382624  0.000  singlet
      1      -99.781106232646  2.000  triplet
      2      -99.379727357502  0.000  singlet
      3      -99.029885334103  0.000  singlet
  ---------------------------------------------
  Timing for initial guess  =      0.000 s

  Projecting out root 1

  ==> Diagonalizing Hamiltonian <==

  Energy   convergence: 1.00e-12
  Residual convergence: 1.00e-06
  -----------------------------------------------------
    Iter.      Avg. Energy       Delta_E     Res. Norm
  -----------------------------------------------------
      1      -99.939316382624  -9.994e+01  +2.442e-14
      2      -99.939316382624  +0.000e+00  +2.442e-14
  -----------------------------------------------------
  The Davidson-Liu algorithm converged in 3 iterations.

  ==> Root No. 0 <==

    20     -0.94923950
    02      0.29125966

    Total Energy:     -99.939316382624, <S^2>: 0.000000

  ==> Energy Summary <==

    Multi.(2ms)  Irrep.  No.               Energy      <S^2>
    --------------------------------------------------------
       1  (  0)    A1     0      -99.939316382624   0.000000
    --------------------------------------------------------

  ==> Computing RDMs for Root No. 0 <==

    Timing for 1-RDM: 0.000 s

  ==> NATURAL ORBITALS <==

        1A1     1.823675      2A1     0.176325  


  ==> Permanent Dipole Moments [e a0] for Singlet (Ms = 0) A1 <==

       State           DM_X           DM_Y           DM_Z           |DM|
    --------------------------------------------------------------------
         0A1     0.00000000     0.00000000     0.59183376     0.59183376
    --------------------------------------------------------------------

  ==> Computing RDMs for Root No. 0 <==

    Timing for 1-RDM: 0.000 s
    Timing for 2-RDM: 0.000 s

  ==> NATURAL ORBITALS <==

        1A1     1.823675      2A1     0.176325  


  ==> Optimizing Orbitals for Current RDMs <==

    L-BFGS Iter:  1; fx =  -99.939316382624000; g_norm = 3.760532e-07; step = 1.000e+00
    L-BFGS Iter:  2; fx =  -99.939316382624000; g_norm = 5.501017e-08; step = 1.000e+00
    L-BFGS Iter:  3; fx =  -99.939316382624028; g_norm = 2.395541e-08; step = 1.000e+00
    L-BFGS Iter:  4; fx =  -99.939316382624028; g_norm = 7.694673e-09; step = 1.000e+00

  ==> MCSCF Macro Iter. 12 <==

             Energy CI (  Delta E  )         Energy Opt. (  Delta E  )  E_OPT - E_CI   Orbital RMS  Micro  DIIS
      -99.939316382624 (-8.6686e-13)    -99.939316382624 (-3.1264e-13)   -8.5265e-14    9.1388e-10    4/Y

  A miracle has come to pass: MCSCF iterations have converged!

  ==> MCSCF Iteration Summary <==

                      Energy CI                    Energy Orbital
           ------------------------------  ------------------------------
    Iter.        Total Energy       Delta        Total Energy       Delta  Orb. Grad.  Micro
    ----------------------------------------------------------------------------------------
       1     -99.910211125532  0.0000e+00    -99.936916740905  0.0000e+00  4.3096e-02     6
       2     -99.938907754503 -2.8697e-02    -99.939209046223 -2.2923e-03  1.2943e-04     6
       3     -99.939283725990 -3.7597e-04    -99.939305408585 -9.6362e-05  1.4684e-05     6
       4     -99.939312650648 -2.8925e-05    -99.939315103879 -9.6953e-06  4.8930e-06     6
       5     -99.939315945723 -3.2951e-06    -99.939316233188 -1.1293e-06  1.5883e-06     6
       6     -99.939316331613 -3.8589e-07    -99.939316365197 -1.3201e-07  5.4144e-07     6
       7     -99.939316376678 -4.5065e-08    -99.939316380594 -1.5397e-08  1.8498e-07     6
       8     -99.939316381931 -5.2532e-09    -99.939316382388 -1.7939e-09  6.3160e-08     6
       9     -99.939316382543 -6.1196e-10    -99.939316382597 -2.0901e-10  2.1558e-08     6
      10     -99.939316382615 -7.1338e-11    -99.939316382621 -2.4372e-11  7.3576e-09     6
      11     -99.939316382623 -8.3844e-12    -99.939316382624 -2.8137e-12  2.5109e-09     5
      12     -99.939316382624 -8.6686e-13    -99.939316382624 -3.1264e-13  9.1388e-10     4
    ----------------------------------------------------------------------------------------

  ==> Summary of Active Space Solver Input <==

    Irrep.  Multi.(2ms)      N
    --------------------------
       A1      1  (  0)      1
    --------------------------
    N: number of roots
    ms: spin z component
    Total number of roots:   1
    --------------------------


  ==> String Lists <==

  Number of alpha electrons     = 1
  Number of beta electrons      = 1
  Number of alpha strings       = 2
  Number of beta strings        = 2
  Timing for strings        =      0.000 s
  Timing for NN strings     =      0.000 s
  Timing for VO strings     =      0.000 s
  Timing for OO strings     =      0.000 s
  Timing for VVOO strings   =      0.000 s
  Timing for VOVO strings   =      0.000 s
  Timing for 1-hole strings =      0.000 s
  Timing for 2-hole strings =      0.000 s
  Timing for 3-hole strings =      0.000 s
  Total timing              =      0.000 s

  ==> FCI Solver <==

    Number of determinants                           4
    Symmetry                                         0
    Multiplicity                                     1
    Number of roots                                  1
    Target root                                      0
    Trial vectors per root                          10

  Allocating memory for the Hamiltonian algorithm. Size: 2 x 2 x 2.   Memory: 0.000000 GB

  ==> FCI Initial Guess <==

  ---------------------------------------------
    Root            Energy     <S^2>   Spin
  ---------------------------------------------
      0      -99.939316382624  0.000  singlet
      1      -99.781106348141  2.000  triplet
      2      -99.379727532412  0.000  singlet
      3      -99.029885546409  0.000  singlet
  ---------------------------------------------
  Timing for initial guess  =      0.000 s

  Projecting out root 1

  ==> Diagonalizing Hamiltonian <==

  Energy   convergence: 1.00e-12
  Residual convergence: 1.00e-06
  -----------------------------------------------------
    Iter.      Avg. Energy       Delta_E     Res. Norm
  -----------------------------------------------------
      1      -99.939316382624  -9.994e+01  +8.882e-15
      2      -99.939316382624  +0.000e+00  +8.882e-15
  -----------------------------------------------------
  The Davidson-Liu algorithm converged in 3 iterations.

  ==> Root No. 0 <==

    20     -0.94923945
    02      0.29125974

    Total Energy:     -99.939316382624, <S^2>: 0.000000

  ==> Energy Summary <==

    Multi.(2ms)  Irrep.  No.               Energy      <S^2>
    --------------------------------------------------------
       1  (  0)    A1     0      -99.939316382624   0.000000
    --------------------------------------------------------

  ==> Computing RDMs for Root No. 0 <==

    Timing for 1-RDM: 0.000 s

  ==> NATURAL ORBITALS <==

        1A1     1.823675      2A1     0.176325  


  ==> Permanent Dipole Moments [e a0] for Singlet (Ms = 0) A1 <==

       State           DM_X           DM_Y           DM_Z           |DM|
    --------------------------------------------------------------------
         0A1     0.00000000     0.00000000     0.59183311     0.59183311
    --------------------------------------------------------------------

  ==> Computing RDMs for Root No. 0 <==

    Timing for 1-RDM: 0.000 s

  ==> NATURAL ORBITALS <==

        1A1     1.823675      2A1     0.176325  


  ==> Semicanonicalize Orbitals <==

    MIX INACTIVE ORBITALS   ...... FALSE
    MIX GAS ACTIVE ORBITALS ...... FALSE
    FROZEN_DOCC     ...  CANONICAL
    FROZEN_UOCC     ...  CANONICAL
    GAS1            ...    NATURAL
    RESTRICTED_DOCC ...  CANONICAL
    RESTRICTED_UOCC ...  CANONICAL

    Off-Diag. Elements       Max           2-Norm
    ------------------------------------------------
    GAS1                 0.1105415252   0.1563293241
    RESTRICTED_DOCC      0.0001436998   0.0002032222
    RESTRICTED_UOCC      0.0426713731   0.1396848303
    ------------------------------------------------
  Timing for orbital canonicalization:                        0.000 s.

  Time to prepare integrals:        0.010 seconds
  Time to run job          :        0.055 seconds
  Total                    :        0.064 seconds
    MCSCF energy..........................................................................PASSED

Scratch directory: /tmp/

  Forte
  ----------------------------------------------------------------------------
  A suite of quantum chemistry methods for strongly correlated electrons

    git branch: master - git commit: 4225e1f0

  Developed by:
    Francesco A. Evangelista, Chenyang Li, Kevin P. Hannon,
    Jeffrey B. Schriber, Tianyuan Zhang, Chenxi Cai,
    Nan He, Nicholas Stair, Shuhe Wang, Renke Huang
  ----------------------------------------------------------------------------

  Size of Determinant class: 128 bits

  Preparing forte objects from a Psi4 Wavefunction object
  Read options for space FROZEN_DOCC
  Read options for space RESTRICTED_DOCC
  Read options for space ACTIVE
  Read options for space FROZEN_DOCC
  Read options for space RESTRICTED_DOCC

  ==> MO Space Information <==

  -------------------------------------------------
                       A1    A2    B1    B2   Sum
  -------------------------------------------------
    FROZEN_DOCC         0     0     0     0     0
    RESTRICTED_DOCC     0     0     0     0     0
    GAS1                5     0     1     2     8
    GAS2                0     0     0     0     0
    GAS3                0     0     0     0     0
    GAS4                0     0     0     0     0
    GAS5                0     0     0     0     0
    GAS6                0     0     0     0     0
    RESTRICTED_UOCC     5     1     3     2    11
    FROZEN_UOCC         0     0     0     0     0
    Total              10     1     4     4    19
  -------------------------------------------------   => Loading Basis Set <=

    Name: CC-PVDZ
    Role: ORBITAL
    Keyword: BASIS
    atoms 1 entry F          line   228 file /Users/fevange/Source/psi4/objdir-Release/stage/share/psi4/basis/cc-pvdz.gbs 
    atoms 2 entry H          line    22 file /Users/fevange/Source/psi4/objdir-Release/stage/share/psi4/basis/cc-pvdz.gbs 


  Checking orbital orthonormality against current geometry ... Done (OK)

   => Loading Basis Set <=

    Name: CC-PVDZ-RI
    Role: RIFIT
    Keyword: DF_BASIS_MP2
    atoms 1 entry F          line   273 file /Users/fevange/Source/psi4/objdir-Release/stage/share/psi4/basis/cc-pvdz-ri.gbs 
    atoms 2 entry H          line    19 file /Users/fevange/Source/psi4/objdir-Release/stage/share/psi4/basis/cc-pvdz-ri.gbs 

   => Loading Basis Set <=

    Name: STO-3G
    Role: ORBITAL
    Keyword: MINAO_BASIS
    atoms 1 entry F          line    91 file /Users/fevange/Source/psi4/objdir-Release/stage/share/psi4/basis/sto-3g.gbs 
    atoms 2 entry H          line    19 file /Users/fevange/Source/psi4/objdir-Release/stage/share/psi4/basis/sto-3g.gbs 


  Forte will use psi4 integrals

  ==> Primary Basis Set Summary <==

  Basis Set: CC-PVDZ
    Blend: CC-PVDZ
    Number of shells: 9
    Number of basis functions: 19
    Number of Cartesian functions: 20
    Spherical Harmonics?: true
    Max angular momentum: 2


  JK created using MemDF integrals
  DFHelper Memory: AOs need 0.000 GiB; user supplied 0.373 GiB. Using in-core AOs.

  ==> MemDFJK: Density-Fitted J/K Matrices <==

    J tasked:                   Yes
    K tasked:                   Yes
    wK tasked:                   No
    OpenMP threads:               1
    Memory [MiB]:               381
    Algorithm:                 Core
    Schwarz Cutoff:           1E-12
    Mask sparsity (%):       0.0000
    Fitting Condition:        1E-10

   => Auxiliary Basis Set <=

  Basis Set: CC-PVDZ-RI
    Blend: CC-PVDZ-RI
    Number of shells: 24
    Number of basis functions: 70
    Number of Cartesian functions: 81
    Spherical Harmonics?: true
    Max angular momentum: 3



  ==> Integral Transformation <==

  Number of molecular orbitals:                         19
  Number of correlated molecular orbitals:              19
  Number of frozen occupied orbitals:                    0
  Number of frozen unoccupied orbitals:                  0
  Two-electron integral type:              Density fitting


  Computing density fitted integrals

  Number of auxiliary basis functions:  70
  Need 202.16 KB to store DF integrals
  DFHelper Memory: AOs need 0.000 GiB; user supplied 0.419 GiB. Using in-core AOs.

  ==> DFHelper <==
    NBF:                              19
    NAux:                             70
    Schwarz Cutoff:                1E-12
    Mask sparsity (%):                 0
    DFH Avail. Memory [GiB]:       0.419
    OpenMP threads:                    1
    Algorithm:                     STORE
    AO Core:                        True
    MO Core:                       False
    Hold Metric:                   False
    Metric Power:                 -0.500
    Fitting Condition:             1E-10
    Q Shell Max:                       7



  Transforming DF Integrals
  Timing for density-fitting transformation:                  0.002 s.

  Timing for freezing core and virtual orbitals:              0.000 s.
  Timing for computing density-fitted integrals:              0.011 s.

  ==> Summary of Active Space Solver Input <==

    Irrep.  Multi.(2ms)      N
    --------------------------
       A1      1  (  0)      1
    --------------------------
    N: number of roots
    ms: spin z component
    Total number of roots:   1
    --------------------------


--------------------------------------------------------------------------------
               Selected Configuration Interaction Excited States
  written by Jeffrey B. Schriber, Tianyuan Zhang, and Francesco A. Evangelista
--------------------------------------------------------------------------------

  ==> Calculation Information <==

  -----------------------------------------------------------------
    Multiplicity                             1    
    Symmetry                                 0    
    Number of roots                          1    
    Ms                                       0
    Excited Algorithm                        NONE
  -----------------------------------------------------------------
  Using 1 thread(s)
  Computing wavefunction for root 0

        ---------------------------------------------------------------
                      Adaptive Configuration Interaction
          written by Jeffrey B. Schriber and Francesco A. Evangelista
        ---------------------------------------------------------------

  ==> Reference Information <==

  There are 0 frozen orbitals.
  There are 8 active orbitals.

  ==> Calculation Information <==

  -----------------------------------------------------------------
    Multiplicity                             1    
    Symmetry                                 0    
    Number of roots                          1    
    Root used for properties                 0    
    Roots used for averaging                 1    
    Root averaging offset                    0    
    Sigma (Eh)                               1.00e-04
    Gamma (Eh^(-1))                          1.00e+00
    Convergence threshold                    1.00e-09
    Ms                                       0
    Diagonalization algorithm                SPARSE
    Excited Algorithm                        NONE
    Project out spin contaminants            True
    Enforce spin completeness of basis       True
    Enforce complete aimed selection         True
    Multiroot averaging                      Average
  -----------------------------------------------------------------
  Number of active orbitals: 8
  Number of active alpha electrons: 5
  Number of active beta electrons: 5
  Maximum reference space size: 1
  Number of reference determinants: 1
  Reference generated from 0 MOs


  ---------------------------------- Cycle 0 -----------------------------------

  ==> Diagonalizing the Hamiltonian in the P space <==

  Initial P space dimension: 1
  Spin-complete dimension of the P space: 1 determinants

  ==> Computing 1 Coupling Lists <==

                  3.333e-06 seconds
                  1.958e-06 seconds

  ==> Computing 2 Coupling Lists <==

                 2.750e-06 seconds
                 2.375e-06 seconds
                 4.166e-06 seconds

  Davidson-Liu solver algorithm using SigmaVectorSparseList sigma algorithm

  Performing diagonalization of the H matrix
  Found 1 roots with 2S+1 = 1 *
  Time spent diagonalizing H:   0.000059 s

    P-space  CI Energy Root   0        = -99.867098722118 Eh =   0.0000 eV, S^2 = 0.000000


  ==> Finding the Q space <==

  Using BATCH_HASH screening algorithm
  Setting nbin to 1 based on estimated memory ( 0.005 MB)
 -----------------------------------------
                Bin 0
  Build: 0.000015
  Merge: 0.000005
    Build F                  0.000025 
    Build criteria vector    0.000007
    Sort vector              0.000006
    Screening                0.000001
    Added 48 dets of 111 from bin 0
 ------------------------------------
  Screened out 0.0000433023 Eh of correlation
  Added 1 missing determinants in aimed selection (find_q_space).
  Dimension of the PQ space:                  44
  Dimension of the PQ space (spin-complete) : 54
  Time spent building the model space: 0.000105

  ==> Diagonalizing the Hamiltonian in the P + Q space <==

  Number of reference roots: 1

  ==> Computing 1 Coupling Lists <==

                  3.358e-05 seconds
                  3.271e-05 seconds

  ==> Computing 2 Coupling Lists <==

                 5.646e-05 seconds
                 5.842e-05 seconds
                 1.402e-04 seconds

  Davidson-Liu solver algorithm using SigmaVectorSparseList sigma algorithm

  Performing diagonalization of the H matrix
  Found 28 roots with 2S+1 = 1 *
  Found 21 roots with 2S+1 = 3
  Found 5 roots with 2S+1 = 5
  Total time spent diagonalizing H:   0.000803 s

    PQ-space CI Energy Root   0        = -99.952207786085 Eh =   0.0000 eV, S^2 = 0.000000
    PQ-space CI Energy + EPT2 Root   0 = -99.952302384356 Eh =   0.0000 eV


  ==> Pruning the Q space <==

  Cycle 0 took: 0.001026 s


  ---------------------------------- Cycle 1 -----------------------------------

  ==> Diagonalizing the Hamiltonian in the P space <==

  Initial P space dimension: 14
  Spin-complete dimension of the P space: 14 determinants

  ==> Computing 1 Coupling Lists <==

                  9.250e-06 seconds
                  9.083e-06 seconds

  ==> Computing 2 Coupling Lists <==

                 1.621e-05 seconds
                 1.612e-05 seconds
                 4.029e-05 seconds

  Davidson-Liu solver algorithm using SigmaVectorSparseList sigma algorithm

  Performing diagonalization of the H matrix
  Found 10 roots with 2S+1 = 1 *
  Found 3 roots with 2S+1 = 3
  Found 1 roots with 2S+1 = 5
  Time spent diagonalizing H:   0.000185 s

    P-space  CI Energy Root   0        = -99.951897825960 Eh =   0.0000 eV, S^2 = 0.000000


  ==> Finding the Q space <==

  Using BATCH_HASH screening algorithm
  Setting nbin to 1 based on estimated memory ( 0.073 MB)
 -----------------------------------------
                Bin 0
  Build: 0.000092
  Merge: 0.000023
    Build F                  0.000124 
    Build criteria vector    0.000036
    Sort vector              0.000031
    Screening                0.000002
    Added 54 dets of 541 from bin 0
 ------------------------------------
  Screened out 0.0000484152 Eh of correlation
  Added 1 missing determinants in aimed selection (find_q_space).
  Dimension of the PQ space:                  52
  Dimension of the PQ space (spin-complete) : 60
  Time spent building the model space: 0.000234

  ==> Diagonalizing the Hamiltonian in the P + Q space <==

  Number of reference roots: 1

  ==> Computing 1 Coupling Lists <==

                  3.700e-05 seconds
                  3.529e-05 seconds

  ==> Computing 2 Coupling Lists <==

                 6.417e-05 seconds
                 6.063e-05 seconds
                 1.654e-04 seconds

  Davidson-Liu solver algorithm using SigmaVectorSparseList sigma algorithm

  Performing diagonalization of the H matrix
  Found 32 roots with 2S+1 = 1 *
  Found 23 roots with 2S+1 = 3
  Found 5 roots with 2S+1 = 5
  Total time spent diagonalizing H:   0.001046 s

    PQ-space CI Energy Root   0        = -99.953524816362 Eh =   0.0000 eV, S^2 = 0.000000
    PQ-space CI Energy + EPT2 Root   0 = -99.953619029606 Eh =   0.0000 eV


  ==> Pruning the Q space <==

  Cycle 1 took: 0.001531 s


  ---------------------------------- Cycle 2 -----------------------------------

  ==> Diagonalizing the Hamiltonian in the P space <==

  Initial P space dimension: 20
  Spin-complete dimension of the P space: 20 determinants

  ==> Computing 1 Coupling Lists <==

                  1.263e-05 seconds
                  1.242e-05 seconds

  ==> Computing 2 Coupling Lists <==

                 2.258e-05 seconds
                 2.183e-05 seconds
                 5.475e-05 seconds

  Davidson-Liu solver algorithm using SigmaVectorSparseList sigma algorithm

  Performing diagonalization of the H matrix
  Found 14 roots with 2S+1 = 1 *
  Found 5 roots with 2S+1 = 3
  Found 1 roots with 2S+1 = 5
  Time spent diagonalizing H:   0.000245 s

    P-space  CI Energy Root   0        = -99.953171681439 Eh =   0.0000 eV, S^2 = 0.000000


  ==> Finding the Q space <==

  Using BATCH_HASH screening algorithm
  Setting nbin to 1 based on estimated memory ( 0.104 MB)
 -----------------------------------------
                Bin 0
  Build: 0.000115
  Merge: 0.000022
    Build F                  0.000147 
    Build criteria vector    0.000040
    Sort vector              0.000035
    Screening                0.000002
    Added 47 dets of 602 from bin 0
 ------------------------------------
  Screened out 0.0000490827 Eh of correlation
  Dimension of the PQ space:                  50
  Dimension of the PQ space (spin-complete) : 60
  Time spent building the model space: 0.000261

  ==> Diagonalizing the Hamiltonian in the P + Q space <==

  Number of reference roots: 1

  ==> Computing 1 Coupling Lists <==

                  3.562e-05 seconds
                  3.492e-05 seconds

  ==> Computing 2 Coupling Lists <==

                 6.146e-05 seconds
                 6.092e-05 seconds
                 1.564e-04 seconds

  Davidson-Liu solver algorithm using SigmaVectorSparseList sigma algorithm

  Performing diagonalization of the H matrix
  Found 32 roots with 2S+1 = 1 *
  Found 23 roots with 2S+1 = 3
  Found 5 roots with 2S+1 = 5
  Total time spent diagonalizing H:   0.000938 s

    PQ-space CI Energy Root   0        = -99.953535780735 Eh =   0.0000 eV, S^2 = 0.000000
    PQ-space CI Energy + EPT2 Root   0 = -99.953633604380 Eh =   0.0000 eV


  ==> Pruning the Q space <==

  Cycle 2 took: 0.001507 s


  ---------------------------------- Cycle 3 -----------------------------------

  ==> Diagonalizing the Hamiltonian in the P space <==

  Initial P space dimension: 22
  Spin-complete dimension of the P space: 22 determinants

  ==> Computing 1 Coupling Lists <==

                  1.408e-05 seconds
                  1.375e-05 seconds

  ==> Computing 2 Coupling Lists <==

                 2.488e-05 seconds
                 2.367e-05 seconds
                 5.875e-05 seconds

  Davidson-Liu solver algorithm using SigmaVectorSparseList sigma algorithm

  Performing diagonalization of the H matrix
  Found 15 roots with 2S+1 = 1 *
  Found 6 roots with 2S+1 = 3
  Found 1 roots with 2S+1 = 5
  Time spent diagonalizing H:   0.000262 s

    P-space  CI Energy Root   0        = -99.953188976058 Eh =   0.0000 eV, S^2 = 0.000000


  ==> Finding the Q space <==

  Using BATCH_HASH screening algorithm
  Setting nbin to 1 based on estimated memory ( 0.114 MB)
 -----------------------------------------
                Bin 0
  Build: 0.000116
  Merge: 0.000022
    Build F                  0.000148 
    Build criteria vector    0.000039
    Sort vector              0.000033
    Screening                0.000002
    Added 44 dets of 600 from bin 0
 ------------------------------------
  Screened out 0.0000488487 Eh of correlation
  Dimension of the PQ space:                  50
  Dimension of the PQ space (spin-complete) : 60
  Time spent building the model space: 0.000253

  ==> Diagonalizing the Hamiltonian in the P + Q space <==

  Number of reference roots: 1

  ==> Computing 1 Coupling Lists <==

                  3.638e-05 seconds
                  3.492e-05 seconds

  ==> Computing 2 Coupling Lists <==

                 5.996e-05 seconds
                 5.858e-05 seconds
                 1.568e-04 seconds

  Davidson-Liu solver algorithm using SigmaVectorSparseList sigma algorithm

  Performing diagonalization of the H matrix
  Found 32 roots with 2S+1 = 1 *
  Found 23 roots with 2S+1 = 3
  Found 5 roots with 2S+1 = 5
  Total time spent diagonalizing H:   0.000879 s

    PQ-space CI Energy Root   0        = -99.953535780735 Eh =   0.0000 eV, S^2 = 0.000000
    PQ-space CI Energy + EPT2 Root   0 = -99.953631116761 Eh =   0.0000 eV

  ***** Calculation Converged *****

  ==> ACI Natural Orbitals <==

        1A1     1.999999      1B1     1.999705      2A1     1.999456  
        1B2     1.993943      3A1     1.843395      4A1     0.157304  
        2B2     0.005944      5A1     0.000254  

  ==> Excited state solver summary <==

  Iterations required:                         3
  Dimension of optimized determinant space:    60

  * Selected-CI Energy Root   0        = -99.953535780735 Eh =   0.0000 eV
  * Selected-CI Energy Root   0 + EPT2 = -99.953631116761 Eh =   0.0000 eV

  ==> Wavefunction Information <==

  Most important contributions to root   0:
    0  -0.958226 0.918197557          21 |22200220>
    1   0.275762 0.076044825          20 |22020220>
    2   0.033112 0.001096379          19 |22-+02+->
    3   0.033112 0.001096379          18 |22+-02-+>
    4   0.028113 0.000790318          17 |22200202>
    5   0.026584 0.000706693          16 |22+-02+->
    6   0.026584 0.000706693          15 |22-+02-+>
    7   0.014807 0.000219238          14 |20220220>
    8   0.012211 0.000149101          13 |22220200>
    9   0.011922 0.000142133          12 |22220020>

  Saving information for root: 0

  ==> Energy Summary <==

    Multi.(2ms)  Irrep.  No.               Energy      <S^2>
    --------------------------------------------------------
       1  (  0)    A1     0      -99.953535780735   0.000000
    --------------------------------------------------------
  Diag takes 0.000174
 all alpha takes 0.000068
 all beta takes 0.000065
  2dif: 0.000106  
  4dif: 0.000025
 all alpha/beta takes 0.000143

  ==> Permanent Dipole Moments [e a0] for Singlet (Ms = 0) A1 <==

       State           DM_X           DM_Y           DM_Z           |DM|
    --------------------------------------------------------------------
         0A1     0.00000000     0.00000000     0.67630224     0.67630224
    --------------------------------------------------------------------
  Diag takes 0.000125
 all alpha takes 0.000054
 all beta takes 0.000049
  2dif: 0.000068  
  4dif: 0.000024
 all alpha/beta takes 0.000103

  ==> Semicanonicalize Orbitals <==

    MIX INACTIVE ORBITALS   ...... FALSE
    MIX GAS ACTIVE ORBITALS ...... FALSE
    FROZEN_DOCC     ...  CANONICAL
    FROZEN_UOCC     ...  CANONICAL
    GAS1            ...  CANONICAL
    RESTRICTED_DOCC ...  CANONICAL
    RESTRICTED_UOCC ...  CANONICAL

    Off-Diag. Elements       Max           2-Norm
    ------------------------------------------------
    GAS1                 0.1599044560   0.2554384417
    RESTRICTED_UOCC      0.0003592612   0.0010813642
    ------------------------------------------------
  Integrals are about to be updated.
  Computing density fitted integrals

  Number of auxiliary basis functions:  70
  Need 202.16 KB to store DF integrals
  DFHelper Memory: AOs need 0.000 GiB; user supplied 0.419 GiB. Using in-core AOs.

  ==> DFHelper <==
    NBF:                              19
    NAux:                             70
    Schwarz Cutoff:                1E-12
    Mask sparsity (%):                 0
    DFH Avail. Memory [GiB]:       0.419
    OpenMP threads:                    1
    Algorithm:                     STORE
    AO Core:                        True
    MO Core:                       False
    Hold Metric:                   False
    Metric Power:                 -0.500
    Fitting Condition:             1E-10
    Q Shell Max:                       7



  Transforming DF Integrals
  Timing for density-fitting transformation:                  0.002 s.

  Timing for freezing core and virtual orbitals:              0.000 s.
  Integrals update took     0.012 s.
  Orbital rotations on spin-dependent RDMs ...
    Transformed 1 RDMs.
    Transformed 2 RDMs.
    Transformed 3 RDMs.
  Timing for orbital canonicalization:                        0.132 s.

  ==> Multireference Driven Similarity Renormalization Group <==

    Computing Fock matrix and cleaning JK ........... Done
    Reading DSRG options ............................ Done
    Setting ambit MO space .......................... Done
    Preparing tensors for density cumulants ......... Done
    Filling Fock matrix from ForteIntegrals ......... Done

                  --------------------------------------------
                      Density Fitted / Cholesky Decomposed
                    MR-DSRG Second-Order Perturbation Theory
                      Kevin Hannon and Chenyang (York) Li
                                 1 thread (OMP)
                  --------------------------------------------

    References:
      u-DSRG-MRPT2:      J. Chem. Theory Comput. 2015, 11, 2097.
      DF/CD-DSRG-MRPT2:  J. Chem. Phys. 2016, 144, 204111.
      (pr-)DSRG-MRPT2:   J. Chem. Phys. 2017, 146, 124132.


  ==> Calculation Information <==

    Psi4 ref_type                                           
    Integral type                                         DF
    Source operator                                 STANDARD
    CCVV algorithm                                 FLY_AMBIT
    CCVV source                                       NORMAL
    Reference relaxation                                NONE
    State type                                STATE-SPECIFIC
    form Hbar3                                         FALSE
    Flow parameter                                 1.000e+00
    Taylor expansion threshold                     1.000e-03
    Cholesky tolerance                             1.000e-06


  ==> Checking Semicanonical Orbitals <==

    Block             Fa Max         Fa Mean           Fb Max         Fb Mean
    -------------------------------------------------------------------------
    CORE        0.0000000000    0.0000000000     0.0000000000    0.0000000000
    VIRTUAL     0.0000000000    0.0000000000     0.0000000000    0.0000000000
    GAS1        0.0000000000    0.0000000000     0.0000000000    0.0000000000
    -------------------------------------------------------------------------
    Orbitals are semi-canonicalized.

  ==> Computing DSRG-MRPT2 Energy <==

  Reference Energy = -99.953535780734967
    Computing T2                             ...... Done. Timing        0.001415 s
    Renormalizing V                          ...... Done. Timing        0.001278 s
    Computing T1                             ...... Done. Timing        0.000408 s
    Renormalizing F                          ...... Done. Timing        0.000498 s
    Computing <[F, T1]>                      ...... Done. Timing        0.000134 s
    Computing <[F, T2]>                      ...... Done. Timing        0.000520 s
    Computing <[V, T1]>                      ...... Done. Timing        0.000518 s
    Computing <[V, T2]> 4HH                  ...... Done. Timing        0.000668 s
    Computing <V, T2]> 4PP                   ...... Done. Timing        0.000837 s
    Computing [V, T2] 4PH                    ...... Done. Timing        0.003378 s
    Computing [V, T2] 3                     ...... Done. Timing        0.023885 s
    Computing <[V, T2]> (C_2)^4 (no ccvv)    ...... Done. Timing        0.002738 s
    Computing <[V, T2]> (C_2)^4 ccvv         ...... Done. Timing        0.000026 s
  Eccvv: 0.0000000000

  ==> DSRG-MRPT2 (DF/CD) Energy Summary <==

    E0 (reference)                 =    -99.953535780734967
    <[F, T1]>                      =     -0.008219141461159
    <[F, T2]>                      =      0.007249837114610
    <[V, T1]>                      =      0.009355316206640
    <[V, T2]> C_4 (C_2)^2 HH       =      0.000000000000000
    <[V, T2]> C_4 (C_2)^2 PP       =      0.009537401420153
    <[V, T2]> C_4 (C_2)^2 PH       =      0.024084858996041
    <[V, T2]> C_6 C_2              =     -0.003484819668069
    <[V, T2]> (C_2)^4              =     -0.190000277720804
    <[V, T2]>                      =     -0.159862836972679
    DSRG-MRPT2 correlation energy  =     -0.151476825112588
    DSRG-MRPT2 total energy        =   -100.105012605847548
    max(T1)                        =      0.129183909184929
    ||T1||                         =      0.213601566979283

  ==> Total Timings (s) for Computing Commutators <==

             [H1, T1]    [H1, T2]    [H2, T1]    [H2, T2]
    -----------------------------------------------------
    -> C0       0.000       0.001       0.001       0.008
    -> C1       0.000       0.000       0.000       0.000
    -> C2                   0.000       0.000       0.000
    -----------------------------------------------------


  Time to prepare integrals:        0.020 seconds
  Time to run job          :        0.221 seconds
  Total                    :        0.241 seconds
    DF-DSRG-MRPT2 energy..................................................................PASSED

    Psi4 stopped on: Sunday, 15 January 2023 11:50PM
    Psi4 wall time for execution: 0:00:00.60

*** Psi4 exiting successfully. Buy a developer a beer!
