
    -----------------------------------------------------------------------
          Psi4: An Open-Source Ab Initio Electronic Structure Package
                               Psi4 1.2a1.dev704 

                         Git: Rev {master} a7fc050 


    R. M. Parrish, L. A. Burns, D. G. A. Smith, A. C. Simmonett,
    A. E. DePrince III, E. G. Hohenstein, U. Bozkaya, A. Yu. Sokolov,
    R. Di Remigio, R. M. Richard, J. F. Gonthier, A. M. James,
    H. R. McAlexander, A. Kumar, M. Saitow, X. Wang, B. P. Pritchard,
    P. Verma, H. F. Schaefer III, K. Patkowski, R. A. King, E. F. Valeev,
    F. A. Evangelista, J. M. Turney, T. D. Crawford, and C. D. Sherrill,
    J. Chem. Theory Comput. 13(7) pp 3185--3197 (2017).
    (doi: 10.1021/acs.jctc.7b00174)

    -----------------------------------------------------------------------


    Psi4 started on: Friday, 29 December 2017 09:26PM

    Process ID:  70450
    PSIDATADIR: /Users/york/src/psi4new/psi4/share/psi4
    Memory:     500.0 MiB
    Threads:    1
    
  ==> Input File <==

--------------------------------------------------------------------------
#! Generated using commit GITCOMMIT

import forte
memory 1 gb

r_scf = -154.97926325583234
r_0bu = -155.36953568464449
r_1ag = -155.34256245114440

molecule butadiene{
0 1
H  1.080977 -2.558832  0.000000
H -1.080977  2.558832  0.000000
H  2.103773 -1.017723  0.000000
H -2.103773  1.017723  0.000000
H -0.973565 -1.219040  0.000000
H  0.973565  1.219040  0.000000
C  0.000000  0.728881  0.000000
C  0.000000 -0.728881  0.000000
C  1.117962 -1.474815  0.000000
C -1.117962  1.474815  0.000000
}

set {
  reference      rhf
  scf_type       df
  basis          def2-tzvp
  df_basis_scf   def2-tzvp-jkfit
  df_basis_mp2   def2-tzvp-jkfit
  e_convergence  10
  d_convergence  12
  maxiter        100
}
Escf, wfn = energy('scf', return_wfn=True)
compare_values(r_scf, Escf, 8, "SCF energy")

set forte{
  job_type           active-dsrgpt2
  int_type           df
  cas_type           cas
  e_convergence      10
  dsrg_s             0.5
  internal_amp       singles_doubles
  fcimo_actv_type    cisd
  frozen_docc        [2,0,0,2]
  restricted_docc    [5,0,0,4]
  active             [0,2,2,0]
  nrootpi            [3,0,0,1]
  multiplicity       1
}
E0bu = energy('forte', ref_wfn=wfn)
compare_values(r_0bu, E0bu, 8, "abs. energy of singlet 0Bu") #TEST
--------------------------------------------------------------------------

  Memory set to 953.674 MiB by Python driver.

*** tstart() called on yorks-mac.wireless.emory.edu
*** at Fri Dec 29 21:26:24 2017

   => Loading Basis Set <=

    Name: DEF2-TZVP
    Role: ORBITAL
    Keyword: BASIS
    atoms 1-6  entry H          line    15 file /Users/york/src/psi4new/psi4/share/psi4/basis/def2-tzvp.gbs 
    atoms 7-10 entry C          line   123 file /Users/york/src/psi4new/psi4/share/psi4/basis/def2-tzvp.gbs 


         ---------------------------------------------------------
                                   SCF
            by Justin Turney, Rob Parrish, Andy Simmonett
                             and Daniel Smith
                              RHF Reference
                        1 Threads,    953 MiB Core
         ---------------------------------------------------------

  ==> Geometry <==

    Molecular point group: c2h
    Full point group: C2h

    Geometry (in Angstrom), charge = 0, multiplicity = 1:

       Center              X                  Y                   Z               Mass       
    ------------   -----------------  -----------------  -----------------  -----------------
           H          1.080977000000    -2.558832000000     0.000000000000     1.007825032070
           H         -1.080977000000     2.558832000000     0.000000000000     1.007825032070
           H          2.103773000000    -1.017723000000     0.000000000000     1.007825032070
           H         -2.103773000000     1.017723000000     0.000000000000     1.007825032070
           H         -0.973565000000    -1.219040000000     0.000000000000     1.007825032070
           H          0.973565000000     1.219040000000     0.000000000000     1.007825032070
           C         -0.000000000000     0.728881000000     0.000000000000    12.000000000000
           C          0.000000000000    -0.728881000000     0.000000000000    12.000000000000
           C          1.117962000000    -1.474815000000     0.000000000000    12.000000000000
           C         -1.117962000000     1.474815000000     0.000000000000    12.000000000000

  Running in c2h symmetry.

  Rotational constants: A =      1.39831  B =      0.14741  C =      0.13335 [cm^-1]
  Rotational constants: A =  41920.28271  B =   4419.18033  C =   3997.74354 [MHz]
  Nuclear repulsion =  103.516093773397515

  Charge       = 0
  Multiplicity = 1
  Electrons    = 30
  Nalpha       = 15
  Nbeta        = 15

  ==> Algorithm <==

  SCF Algorithm Type is DF.
  DIIS enabled.
  MOM disabled.
  Fractional occupation disabled.
  Guess Type is SAD.
  Energy threshold   = 1.00e-10
  Density threshold  = 1.00e-12
  Integral threshold = 0.00e+00

  ==> Primary Basis <==

  Basis Set: DEF2-TZVP
    Blend: DEF2-TZVP
    Number of shells: 68
    Number of basis function: 160
    Number of Cartesian functions: 180
    Spherical Harmonics?: true
    Max angular momentum: 3

   => Loading Basis Set <=

    Name: DEF2-TZVP-JKFIT
    Role: JKFIT
    Keyword: DF_BASIS_SCF
    atoms 1-6  entry H          line    23 file /Users/york/src/psi4new/psi4/share/psi4/basis/def2-tzvp-jkfit.gbs 
    atoms 7-10 entry C          line   203 file /Users/york/src/psi4new/psi4/share/psi4/basis/def2-tzvp-jkfit.gbs 

  ==> Pre-Iterations <==

   -------------------------------------------------------
    Irrep   Nso     Nmo     Nalpha   Nbeta   Ndocc  Nsocc
   -------------------------------------------------------
     Ag        57      57       0       0       0       0
     Bg        23      23       0       0       0       0
     Au        23      23       0       0       0       0
     Bu        57      57       0       0       0       0
   -------------------------------------------------------
    Total     160     160      15      15      15       0
   -------------------------------------------------------

  ==> Integral Setup <==

  ==> DFJK: Density-Fitted J/K Matrices <==

    J tasked:                  Yes
    K tasked:                  Yes
    wK tasked:                  No
    OpenMP threads:              1
    Integrals threads:           1
    Memory (MB):               715
    Algorithm:                Core
    Integral Cache:           NONE
    Schwarz Cutoff:          1E-12
    Fitting Condition:       1E-12

   => Auxiliary Basis Set <=

  Basis Set: DEF2-TZVP-JKFIT
    Blend: DEF2-TZVP-JKFIT
    Number of shells: 136
    Number of basis function: 408
    Number of Cartesian functions: 476
    Spherical Harmonics?: true
    Max angular momentum: 4

  Minimum eigenvalue in the overlap matrix is 1.8035517123E-04.
  Using Symmetric Orthogonalization.

  SCF Guess: Superposition of Atomic Densities via on-the-fly atomic UHF.

  ==> Iterations <==

                           Total Energy        Delta E     RMS |[F,P]|

   @DF-RHF iter   0:  -156.09172178359765   -1.56092e+02   4.21057e-02 
   @DF-RHF iter   1:  -154.88735743591496    1.20436e+00   3.83786e-03 
   @DF-RHF iter   2:  -154.96991186872941   -8.25544e-02   1.20495e-03 DIIS
   @DF-RHF iter   3:  -154.97749362254893   -7.58175e-03   6.13735e-04 DIIS
   @DF-RHF iter   4:  -154.97919010617193   -1.69648e-03   9.77087e-05 DIIS
   @DF-RHF iter   5:  -154.97925979987809   -6.96937e-05   1.70721e-05 DIIS
   @DF-RHF iter   6:  -154.97926308646919   -3.28659e-06   3.91986e-06 DIIS
   @DF-RHF iter   7:  -154.97926324039639   -1.53927e-07   1.20181e-06 DIIS
   @DF-RHF iter   8:  -154.97926325312307   -1.27267e-08   4.40226e-07 DIIS
   @DF-RHF iter   9:  -154.97926325509778   -1.97471e-09   1.42917e-07 DIIS
   @DF-RHF iter  10:  -154.97926325531151   -2.13731e-10   2.19558e-08 DIIS
   @DF-RHF iter  11:  -154.97926325531625   -4.74643e-12   2.63212e-09 DIIS
   @DF-RHF iter  12:  -154.97926325531637   -1.13687e-13   4.38259e-10 DIIS
   @DF-RHF iter  13:  -154.97926325531634    2.84217e-14   6.43321e-11 DIIS
   @DF-RHF iter  14:  -154.97926325531631    2.84217e-14   1.43080e-11 DIIS
   @DF-RHF iter  15:  -154.97926325531637   -5.68434e-14   3.37947e-12 DIIS
   @DF-RHF iter  16:  -154.97926325531625    1.13687e-13   1.33002e-12 DIIS
   @DF-RHF iter  17:  -154.97926325531625    0.00000e+00   1.78264e-13 DIIS

  ==> Post-Iterations <==

    Orbital Energies (a.u.)
    -----------------------

    Doubly Occupied:                                                      

       1Ag   -11.240788     1Bu   -11.239954     2Ag   -11.230275  
       2Bu   -11.230270     3Ag    -1.090307     3Bu    -0.998183  
       4Ag    -0.827068     4Bu    -0.754391     5Bu    -0.644148  
       5Ag    -0.634551     6Ag    -0.557511     6Bu    -0.544782  
       7Ag    -0.495695     1Au    -0.443575     1Bg    -0.322776  

    Virtual:                                                              

       2Au     0.104682     7Bu     0.168177     8Ag     0.175917  
       8Bu     0.183968     2Bg     0.194502     9Ag     0.220376  
      10Ag     0.229212     9Bu     0.247066    10Bu     0.277588  
      11Ag     0.288622    12Ag     0.331721     3Au     0.334770  
      11Bu     0.348480    13Ag     0.377936     3Bg     0.392934  
      12Bu     0.440531    13Bu     0.458917    14Ag     0.463646  
       4Au     0.476666     4Bg     0.479162    14Bu     0.510216  
      15Bu     0.591900    15Ag     0.595049    16Bu     0.608334  
      16Ag     0.609957    17Bu     0.641630    17Ag     0.651936  
      18Bu     0.714409    19Bu     0.739817    18Ag     0.742923  
       5Au     0.743711     5Bg     0.779254    19Ag     0.806340  
      20Ag     0.864830    20Bu     0.870151     6Bg     0.910758  
       6Au     1.005543     7Au     1.036161    21Bu     1.060286  
      21Ag     1.062438    22Ag     1.108361    23Ag     1.167050  
      22Bu     1.180247    23Bu     1.214138     7Bg     1.256491  
      24Ag     1.319628    24Bu     1.401377     8Au     1.413292  
      25Bu     1.432813     8Bg     1.440881    25Ag     1.458882  
      26Ag     1.510955    26Bu     1.555757    27Ag     1.696405  
       9Au     1.717200    27Bu     1.761862     9Bg     1.800516  
      28Bu     1.808346    28Ag     1.846096    29Ag     1.892246  
      10Au     1.896465    29Bu     1.897538    10Bg     1.929745  
      30Ag     2.004018    30Bu     2.005931    11Bg     2.055958  
      11Au     2.086933    31Bu     2.099886    12Bg     2.110795  
      12Au     2.131291    31Ag     2.136044    32Bu     2.215434  
      32Ag     2.285529    13Bg     2.445912    13Au     2.447034  
      33Ag     2.483445    33Bu     2.485991    34Ag     2.597113  
      34Bu     2.612741    35Bu     2.654882    35Ag     2.674795  
      36Ag     2.802757    14Bg     2.825622    36Bu     2.832403  
      37Ag     2.848984    37Bu     2.858332    14Au     2.876664  
      38Bu     2.914770    38Ag     2.972727    39Ag     2.991819  
      15Au     2.997726    39Bu     3.002132    40Ag     3.086027  
      15Bg     3.135068    16Au     3.155617    40Bu     3.246301  
      41Ag     3.251056    42Ag     3.277219    41Bu     3.288941  
      43Ag     3.335842    16Bg     3.351970    17Au     3.357597  
      42Bu     3.383128    17Bg     3.387371    18Au     3.434253  
      43Bu     3.460837    18Bg     3.493830    19Au     3.503274  
      44Bu     3.556770    19Bg     3.604088    44Ag     3.611093  
      20Au     3.627791    45Bu     3.655894    20Bg     3.656716  
      45Ag     3.686191    46Bu     3.760578    46Ag     3.765092  
      47Bu     3.886717    21Bg     3.914833    21Au     3.940037  
      47Ag     3.946482    48Bu     3.966396    22Au     4.147406  
      48Ag     4.155821    49Ag     4.242858    49Bu     4.363543  
      50Ag     4.472963    50Bu     4.495544    51Ag     4.548839  
      22Bg     4.616972    23Bg     4.735387    23Au     4.786877  
      51Bu     4.827890    52Ag     4.889226    52Bu     4.975568  
      53Bu     5.090392    53Ag     5.118998    54Bu     5.178150  
      54Ag     5.257384    55Bu     5.501111    55Ag     5.585633  
      56Ag    23.142309    56Bu    23.315482    57Ag    23.673456  
      57Bu    23.880978  

    Final Occupation by Irrep:
             Ag    Bg    Au    Bu 
    DOCC [     7,    1,    1,    6 ]

  Energy converged.

  @DF-RHF Final Energy:  -154.97926325531625

   => Energetics <=

    Nuclear Repulsion Energy =            103.5160937733975146
    One-Electron Energy =                -412.4821653815336617
    Two-Electron Energy =                 153.9868083528198781
    Total Energy =                       -154.9792632553162548



Properties will be evaluated at   0.000000,   0.000000,   0.000000 Bohr

Properties computed using the SCF density matrix

  Nuclear Dipole Moment: (a.u.)
     X:     0.0000      Y:     0.0000      Z:     0.0000

  Electronic Dipole Moment: (a.u.)
     X:     0.0000      Y:     0.0000      Z:     0.0000

  Dipole Moment: (a.u.)
     X:     0.0000      Y:     0.0000      Z:     0.0000     Total:     0.0000

  Dipole Moment: (Debye)
     X:     0.0000      Y:     0.0000      Z:     0.0000     Total:     0.0000


*** tstop() called on yorks-mac.wireless.emory.edu at Fri Dec 29 21:26:30 2017
Module time:
	user time   =       6.75 seconds =       0.11 minutes
	system time =       0.29 seconds =       0.00 minutes
	total time  =          6 seconds =       0.10 minutes
Total time:
	user time   =       6.75 seconds =       0.11 minutes
	system time =       0.29 seconds =       0.00 minutes
	total time  =          6 seconds =       0.10 minutes
	SCF energy........................................................PASSED
   => Loading Basis Set <=

    Name: DEF2-TZVP-JKFIT
    Role: RIFIT
    Keyword: DF_BASIS_MP2
    atoms 1-6  entry H          line    23 file /Users/york/src/psi4new/psi4/share/psi4/basis/def2-tzvp-jkfit.gbs 
    atoms 7-10 entry C          line   203 file /Users/york/src/psi4new/psi4/share/psi4/basis/def2-tzvp-jkfit.gbs 

   => Loading Basis Set <=

    Name: STO-3G
    Role: ORBITAL
    Keyword: MINAO_BASIS
    atoms 1-6  entry H          line    19 file /Users/york/src/psi4new/psi4/share/psi4/basis/sto-3g.gbs 
    atoms 7-10 entry C          line    61 file /Users/york/src/psi4new/psi4/share/psi4/basis/sto-3g.gbs 


Reading options from the FORTE block
Calling plugin forte.so.



  Forte
  ----------------------------------------------------------------------------
  A suite of quantum chemistry methods for strongly correlated electrons

    git branch: master - git commit: f15141bf

  Developed by:
    Francesco A. Evangelista, Chenyang Li, Kevin P. Hannon,
    Jeffrey B. Schriber, Tianyuan Zhang, Chenxi Cai
  ----------------------------------------------------------------------------

  Size of Determinant class: 32

  ==> MO Space Information <==

  Read options for space FROZEN_DOCC
  Read options for space RESTRICTED_DOCC
  Read options for space ACTIVE
 Removing orbital 0
 Removing orbital 1
 Removing orbital 103
 Removing orbital 104
  -------------------------------------------------
                       Ag    Bg    Au    Bu   Sum
  -------------------------------------------------
    FROZEN_DOCC         2     0     0     2     4
    RESTRICTED_DOCC     5     0     0     4     9
    ACTIVE              0     2     2     0     4
    RESTRICTED_UOCC    50    21    21    51   143
    FROZEN_UOCC         0     0     0     0     0
    Total              57    23    23    57   160
  -------------------------------------------------

  ==> Integral Transformation <==

  Number of molecular orbitals:              160
  Number of correlated molecular orbitals:   156
  Number of frozen occupied orbitals:          4
  Number of frozen unoccupied orbitals:        0

    Molecular point group: c2h
    Full point group: C2h

    Geometry (in Angstrom), charge = 0, multiplicity = 1:

       Center              X                  Y                   Z               Mass       
    ------------   -----------------  -----------------  -----------------  -----------------
           H          1.080977000000    -2.558832000000     0.000000000000     1.007825032070
           H         -1.080977000000     2.558832000000     0.000000000000     1.007825032070
           H          2.103773000000    -1.017723000000     0.000000000000     1.007825032070
           H         -2.103773000000     1.017723000000     0.000000000000     1.007825032070
           H         -0.973565000000    -1.219040000000     0.000000000000     1.007825032070
           H          0.973565000000     1.219040000000     0.000000000000     1.007825032070
           C         -0.000000000000     0.728881000000     0.000000000000    12.000000000000
           C          0.000000000000    -0.728881000000     0.000000000000    12.000000000000
           C          1.117962000000    -1.474815000000     0.000000000000    12.000000000000
           C         -1.117962000000     1.474815000000     0.000000000000    12.000000000000

  -AO BASIS SET INFORMATION:
    Name                   = DEF2-TZVP
    Blend                  = DEF2-TZVP
    Total number of shells = 68
    Number of primitives   = 116
    Number of AO           = 180
    Number of SO           = 160
    Maximum AM             = 3
    Spherical Harmonics    = TRUE

  -Contraction Scheme:
    Atom   Type   All Primitives // Shells:
   ------ ------ --------------------------
       1     H     5s 1p // 3s 1p 
       2     H     5s 1p // 3s 1p 
       3     H     5s 1p // 3s 1p 
       4     H     5s 1p // 3s 1p 
       5     H     5s 1p // 3s 1p 
       6     H     5s 1p // 3s 1p 
       7     C     11s 6p 2d 1f // 5s 3p 2d 1f 
       8     C     11s 6p 2d 1f // 5s 3p 2d 1f 
       9     C     11s 6p 2d 1f // 5s 3p 2d 1f 
      10     C     11s 6p 2d 1f // 5s 3p 2d 1f 

  ==> AO Basis Functions <==

    [ DEF2-TZVP ]
    spherical
    ****
    H   1
    S   3 1.00
                        34.06134100           0.00602520
                         5.12357460           0.04502109
                         1.16466260           0.20189726
    S   1 1.00
                         0.32723041           1.00000000
    S   1 1.00
                         0.10307241           1.00000000
    P   1 1.00
                         0.80000000           1.00000000
    ****
    H   3
    S   3 1.00
                        34.06134100           0.00602520
                         5.12357460           0.04502109
                         1.16466260           0.20189726
    S   1 1.00
                         0.32723041           1.00000000
    S   1 1.00
                         0.10307241           1.00000000
    P   1 1.00
                         0.80000000           1.00000000
    ****
    H   5
    S   3 1.00
                        34.06134100           0.00602520
                         5.12357460           0.04502109
                         1.16466260           0.20189726
    S   1 1.00
                         0.32723041           1.00000000
    S   1 1.00
                         0.10307241           1.00000000
    P   1 1.00
                         0.80000000           1.00000000
    ****
    C   7
    S   6 1.00
                     13575.34968200           0.00022246
                      2035.23336800           0.00172327
                       463.22562359           0.00892557
                       131.20019598           0.03572798
                        42.85301589           0.11076260
                        15.58418577           0.24295628
    S   2 1.00
                         6.20671385           0.41440263
                         2.57648965           0.23744969
    S   1 1.00
                         0.57696339           1.00000000
    S   1 1.00
                         0.22972831           1.00000000
    S   1 1.00
                         0.09516444           1.00000000
    P   4 1.00
                        34.69723224           0.00533337
                         7.95826228           0.03586411
                         2.37808269           0.14215873
                         0.81433208           0.34270472
    P   1 1.00
                         0.28887547           1.00000000
    P   1 1.00
                         0.10056824           1.00000000
    D   1 1.00
                         1.09700000           1.00000000
    D   1 1.00
                         0.31800000           1.00000000
    F   1 1.00
                         0.76100000           1.00000000
    ****
    C   9
    S   6 1.00
                     13575.34968200           0.00022246
                      2035.23336800           0.00172327
                       463.22562359           0.00892557
                       131.20019598           0.03572798
                        42.85301589           0.11076260
                        15.58418577           0.24295628
    S   2 1.00
                         6.20671385           0.41440263
                         2.57648965           0.23744969
    S   1 1.00
                         0.57696339           1.00000000
    S   1 1.00
                         0.22972831           1.00000000
    S   1 1.00
                         0.09516444           1.00000000
    P   4 1.00
                        34.69723224           0.00533337
                         7.95826228           0.03586411
                         2.37808269           0.14215873
                         0.81433208           0.34270472
    P   1 1.00
                         0.28887547           1.00000000
    P   1 1.00
                         0.10056824           1.00000000
    D   1 1.00
                         1.09700000           1.00000000
    D   1 1.00
                         0.31800000           1.00000000
    F   1 1.00
                         0.76100000           1.00000000
    ****


  DFIntegrals overall time
 Computing Density fitted integrals 

 Number of auxiliary basis functions:  408
 Need 0.077820 GB to store DF integrals

  Computing DF Integrals               ......Done. Timing        0.536805 s
  Frozen-core energy           -176.832886811358 a.u.

  FrozenOneBody Operator takes  2.84582300 s
  Resorting integrals after freezing core.
 Done with resorting
 Resorting integrals takes   0.87368400s
  DFIntegrals take      6.21004100 s

              ---------------------------------------------------
                               ACTIVE-DSRG-MRPT2
                Wrapper for Multiple SS-DSRG-MRPT2 Computations
                                  Chenyang Li
              ---------------------------------------------------

  Note: Orbitals are NOT optimized throughout the process.
  Reference selection criteria (CAS/CIS/CISD) will NOT change.
  Each state uses its OWN semicanonical orbitals.
  Ground state is assumed to be a singlet.
  Otherwise, please run separate DSRG-MRPT2 jobs.

  ==> Input Summary <==

    total roots requested (include S0)                     4
    multiplicity                                           1
    reference space type                                CISD
    separate HF in CISD                                 TURE
    DSRG-MRPT2 internal amplitudes           SINGLES_DOUBLES
    DSRG-MRPT2 internal type                            AUTO

  ==> Roots Summary <==

                Ag    Bg    Au    Bu
    ----------------------------------
      NROOTS     3     0     0     1
    ----------------------------------

              ---------------------------------------------------
                Complete Active Space Configuration Interaction
                                  Chenyang Li
              ---------------------------------------------------


  ==> Input Summary <==

    No. a electrons in active      =     2
    No. b electrons in active      =     2
    multiplicity                   =     1
    spin ms (2 * Sz)               =     0

  ==> Orbital Spaces <==

    TOTAL MO                      [   57    23    23    57 ]
    FROZEN CORE                   [    2     0     0     2 ]
    FROZEN VIRTUAL                [    0     0     0     0 ]
    CORRELATED MO                 [   55    23    23    55 ]
    CORE                          [    5     0     0     4 ]
    ACTIVE                        [    0     2     2     0 ]
    VIRTUAL                       [   50    21    21    51 ]

  ==============================
  Current Job: Singlet Ag states
  ==============================

  Forming determinants                ...  Done. Timing        0.000030 s

  ==> Determinants Summary <==

    number of alpha active electrons         =     2
    number of beta active electrons          =     2
    root symmetry (zero based)               =     0
    number of determinants (include RHF)     =    15

  Isolate RHF determinant to the rest determinants.
  Recompute RHF energy ... Done.
  The upcoming diagonalization excludes RHF determinant.

  Diagonalizing Hamiltonian           ...
  Found 8 roots with 2S+1 = 1 *
  Found 5 roots with 2S+1 = 3
  Found 1 roots with 2S+1 = 5  Done. Timing        0.002250 s

  * * * * * * * * * * * * * * * * *
  *  CI Vectors & Configurations  *
  * * * * * * * * * * * * * * * * *

  ==> Root No. 0 <==

    20 20          1.0000000000

    Total Energy:   -154.979263255341152


  ==> Root No. 1 <==

    00 22         -0.5321377705
    ba 20          0.3849966280
    ab 20          0.3849966280
    20 ba         -0.3658031954
    20 ab         -0.3658031954
    20 02          0.2579593903
    02 20          0.1555972025
    ab ab         -0.1294363738
    ba ba         -0.1294363738
    aa bb         -0.0949273752
    bb aa         -0.0949273752
    22 00         -0.0899743806

    Total Energy:   -154.733201172411555


  ==> Root No. 2 <==

    ba 20          0.5634790772
    ab 20          0.5634790772
    20 ba          0.3686882891
    20 ab          0.3686882891
    00 22          0.2578247885
    20 02         -0.1412729894

    Total Energy:   -154.638421920528515



  ==> Permanent Dipole Moments (Ag) <==

  Only print nonzero (> 1.0e-5) elements.


  ==> Transition Dipole Moments (Ag -> Ag) <==

  Only print nonzero (> 1.0e-5) elements.


  ==> Oscillator Strength (Ag -> Ag) <==

  Only print nonzero (> 1.0e-5) elements.


  ==> Prepare Fock Matrices in the Original Basis <==

  Computing 1-cumulants ... Done. Timing        0.000221 s

  Forming generalized Fock matrix     ...  Done. Timing        3.537268 s
  Computing 1-cumulants ... Done. Timing        0.000513 s

  Forming generalized Fock matrix     ...  Done. Timing        3.355837 s
  Computing 1-cumulants ... Done. Timing        0.001136 s

  Forming generalized Fock matrix     ...  Done. Timing        3.309813 s
  Computing VCISD reference oscillator strength 0Ag -> nAg ... Done.

  ==> Working on Root 0 <==

  Computing 1-, 2- and 3-cumulants ... Done. Timing        0.018964 s


  ==> Checking Fock Matrix Diagonal Blocks <==

    Off-Diag. Elements       Max           2-Norm
    ------------------------------------------------
    Fa actv_docc         0.0000000000   0.0000000000
    Fb actv_docc         0.0000000000   0.0000000000
    ------------------------------------------------
    Fa actv_virt         0.0000000000   0.0000000000
    Fb actv_virt         0.0000000000   0.0000000000
    ------------------------------------------------
    Fa core              0.0000000000   0.0000000000
    Fb core              0.0000000000   0.0000000000
    ------------------------------------------------
    Fa virt              0.0000000014   0.0000000080
    Fb virt              0.0000000014   0.0000000080
    ------------------------------------------------

  ==> Integral Transformation to Semicanonical Basis <==
    Molecular point group: c2h
    Full point group: C2h

    Geometry (in Angstrom), charge = 0, multiplicity = 1:

       Center              X                  Y                   Z               Mass       
    ------------   -----------------  -----------------  -----------------  -----------------
           H          1.080977000000    -2.558832000000     0.000000000000     1.007825032070
           H         -1.080977000000     2.558832000000     0.000000000000     1.007825032070
           H          2.103773000000    -1.017723000000     0.000000000000     1.007825032070
           H         -2.103773000000     1.017723000000     0.000000000000     1.007825032070
           H         -0.973565000000    -1.219040000000     0.000000000000     1.007825032070
           H          0.973565000000     1.219040000000     0.000000000000     1.007825032070
           C         -0.000000000000     0.728881000000     0.000000000000    12.000000000000
           C          0.000000000000    -0.728881000000     0.000000000000    12.000000000000
           C          1.117962000000    -1.474815000000     0.000000000000    12.000000000000
           C         -1.117962000000     1.474815000000     0.000000000000    12.000000000000

  -AO BASIS SET INFORMATION:
    Name                   = DEF2-TZVP
    Blend                  = DEF2-TZVP
    Total number of shells = 68
    Number of primitives   = 116
    Number of AO           = 180
    Number of SO           = 160
    Maximum AM             = 3
    Spherical Harmonics    = TRUE

  -Contraction Scheme:
    Atom   Type   All Primitives // Shells:
   ------ ------ --------------------------
       1     H     5s 1p // 3s 1p 
       2     H     5s 1p // 3s 1p 
       3     H     5s 1p // 3s 1p 
       4     H     5s 1p // 3s 1p 
       5     H     5s 1p // 3s 1p 
       6     H     5s 1p // 3s 1p 
       7     C     11s 6p 2d 1f // 5s 3p 2d 1f 
       8     C     11s 6p 2d 1f // 5s 3p 2d 1f 
       9     C     11s 6p 2d 1f // 5s 3p 2d 1f 
      10     C     11s 6p 2d 1f // 5s 3p 2d 1f 

  ==> AO Basis Functions <==

    [ DEF2-TZVP ]
    spherical
    ****
    H   1
    S   3 1.00
                        34.06134100           0.00602520
                         5.12357460           0.04502109
                         1.16466260           0.20189726
    S   1 1.00
                         0.32723041           1.00000000
    S   1 1.00
                         0.10307241           1.00000000
    P   1 1.00
                         0.80000000           1.00000000
    ****
    H   3
    S   3 1.00
                        34.06134100           0.00602520
                         5.12357460           0.04502109
                         1.16466260           0.20189726
    S   1 1.00
                         0.32723041           1.00000000
    S   1 1.00
                         0.10307241           1.00000000
    P   1 1.00
                         0.80000000           1.00000000
    ****
    H   5
    S   3 1.00
                        34.06134100           0.00602520
                         5.12357460           0.04502109
                         1.16466260           0.20189726
    S   1 1.00
                         0.32723041           1.00000000
    S   1 1.00
                         0.10307241           1.00000000
    P   1 1.00
                         0.80000000           1.00000000
    ****
    C   7
    S   6 1.00
                     13575.34968200           0.00022246
                      2035.23336800           0.00172327
                       463.22562359           0.00892557
                       131.20019598           0.03572798
                        42.85301589           0.11076260
                        15.58418577           0.24295628
    S   2 1.00
                         6.20671385           0.41440263
                         2.57648965           0.23744969
    S   1 1.00
                         0.57696339           1.00000000
    S   1 1.00
                         0.22972831           1.00000000
    S   1 1.00
                         0.09516444           1.00000000
    P   4 1.00
                        34.69723224           0.00533337
                         7.95826228           0.03586411
                         2.37808269           0.14215873
                         0.81433208           0.34270472
    P   1 1.00
                         0.28887547           1.00000000
    P   1 1.00
                         0.10056824           1.00000000
    D   1 1.00
                         1.09700000           1.00000000
    D   1 1.00
                         0.31800000           1.00000000
    F   1 1.00
                         0.76100000           1.00000000
    ****
    C   9
    S   6 1.00
                     13575.34968200           0.00022246
                      2035.23336800           0.00172327
                       463.22562359           0.00892557
                       131.20019598           0.03572798
                        42.85301589           0.11076260
                        15.58418577           0.24295628
    S   2 1.00
                         6.20671385           0.41440263
                         2.57648965           0.23744969
    S   1 1.00
                         0.57696339           1.00000000
    S   1 1.00
                         0.22972831           1.00000000
    S   1 1.00
                         0.09516444           1.00000000
    P   4 1.00
                        34.69723224           0.00533337
                         7.95826228           0.03586411
                         2.37808269           0.14215873
                         0.81433208           0.34270472
    P   1 1.00
                         0.28887547           1.00000000
    P   1 1.00
                         0.10056824           1.00000000
    D   1 1.00
                         1.09700000           1.00000000
    D   1 1.00
                         0.31800000           1.00000000
    F   1 1.00
                         0.76100000           1.00000000
    ****


 Integrals are about to be computed.
 Computing Density fitted integrals 

 Number of auxiliary basis functions:  408
 Need 0.077820 GB to store DF integrals

  Computing DF Integrals               ......Done. Timing        0.548643 s
 Integrals are about to be updated.
  Frozen-core energy           -176.832886811358 a.u.

  FrozenOneBody Operator takes  2.91161300 s
  Resorting integrals after freezing core.
 Done with resorting
 Resorting integrals takes   0.78062800s
  Frozen Orbitals takes     3.728 s.

  ==> Reference Transformation to Semicanonical Basis <==

    Transformed 1 cumulants.
    Transformed 2 cumulants and RDMs.
    Transformed 3 cumulants.
  SemiCanonicalize takes 8.222570 s.

  ==> Multireference Driven Similarity Renormalization Group <==

    Reading DSRG options ............................ Done
    Setting ambit MO space .......................... Done
    Preparing tensors for density cumulants ......... Done
    Building Fock matrix ............................ Done
    Checking reference energy ....................... Done

                  --------------------------------------------
                      Density Fitted / Cholesky Decomposed
                    MR-DSRG Second-Order Perturbation Theory
                      Kevin Hannon and Chenyang (York) Li
                                    1 thread
                  --------------------------------------------

    References:
      u-DSRG-MRPT2:      J. Chem. Theory Comput. 2015, 11, 2097.
      DF/CD-DSRG-MRPT2:  J. Chem. Phys. 2016, 144, 204111.
      (pr-)DSRG-MRPT2:   J. Chem. Phys. 2017, 146, 124132.


  ==> Calculation Information <==

    Flow parameter                                 5.000e-01
    Taylor expansion threshold                     1.000e-03
    Cholesky tolerance                             1.000e-06
    Psi4 ref_type                                        RHF
    Integral type                                         DF
    Source operator                                 STANDARD
    CCVV algorithm                                 FLY_AMBIT
    CCVV source                                       NORMAL
    Reference relaxation                                NONE
    State type                                STATE-SPECIFIC
    Internal_amp                             SINGLES_DOUBLES
    Internal_amp_select                                 AUTO

  ==> Checking Semicanonical Orbitals <==

    Abs. max of Fock core, active, virtual blocks (Fij, i != j)
                  core          active         virtual
    --------------------------------------------------
    Fα    0.0000000000    0.0000000000    0.0000000004
    Fβ    0.0000000000    0.0000000000    0.0000000004
    --------------------------------------------------

    1-Norm of Fock core, active, virtual blocks (Fij, i != j)
                  core          active         virtual
    --------------------------------------------------
    Fα    0.0000000000    0.0000000000    0.0000001104
    Fβ    0.0000000000    0.0000000000    0.0000001104
    --------------------------------------------------

    Orbitals are semi-canonicalized.
    It is OK for Fock (active) not being diagonal because CISD active space is incomplete.
    Please inspect if the Fock diag. blocks (C, AH, AP, V) are diagonal or not in the prior CI step.


  ==> Computing DSRG-MRPT2 Energy <==

  Reference Energy = -154.979263255341152
    Computing T2                             ...... Done. Timing        1.426741 s
    Renormalizing V                          ...... Done. Timing        1.246345 s
    Computing T1                             ...... Done. Timing        0.008304 s
    Renormalizing F                          ...... Done. Timing        0.009076 s
    Computing <[F, T1]>                      ...... Done. Timing        0.003293 s
    Computing <[F, T2]>                      ...... Done. Timing        0.008122 s
    Computing <[V, T1]>                      ...... Done. Timing        0.007305 s
    Computing <[V, T2]> 4HH                  ...... Done. Timing        0.011890 s
    Computing <V, T2]> 4PP                   ...... Done. Timing        0.016037 s
    Computing [V, T2] 4PH                    ...... Done. Timing        0.056142 s
    Computing [V, T2] λ3                     ...... Done. Timing        0.022819 s
    Computing <[V, T2]> (C_2)^4 (no ccvv)    ...... Done. Timing        0.140330 s
    Computing <[V, T2]> (C_2)^4 ccvv         ...... Done. Timing        0.366150 s
  Eccvv: -0.3502733141

  ==> DSRG-MRPT2 (DF/CD) Energy Summary <==

    E0 (reference)                 =   -154.979263255341152
    <[F, T1]>                      =     -0.000000000000000
    <[F, T2]>                      =      0.000000000000000
    <[V, T1]>                      =      0.000000000000000
    <[V, T2]> C_4 (C_2)^2 HH       =      0.000000000000000
    <[V, T2]> C_4 (C_2)^2 PP       =      0.000000000000000
    <[V, T2]> C_4 (C_2)^2 PH       =      0.000000000000000
    <[V, T2]> C_6 C_2              =      0.000000000000000
    <[V, T2]> (C_2)^4              =     -0.620354785820219
    <[V, T2]>                      =     -0.620354785820219
    DSRG-MRPT2 correlation energy  =     -0.620354785820219
    DSRG-MRPT2 total energy        =   -155.599618041161364
    max(T1)                        =      0.000000000002577
    ||T1||                         =      0.000000000020723

  ==> Total Timings (s) for Computing Commutators <==

             [H1, T1]    [H1, T2]    [H2, T1]    [H2, T2]
    -----------------------------------------------------
    -> C0       0.003       0.008       0.007       0.609
    -> C1       0.000       0.000       0.000       0.000
    -> C2                   0.000       0.000       0.000
    -----------------------------------------------------


  ==> Working on Root 1 <==

  Computing 1-, 2- and 3-cumulants ... Done. Timing        0.018979 s


  ==> Checking Fock Matrix Diagonal Blocks <==

    Off-Diag. Elements       Max           2-Norm
    ------------------------------------------------
    Fa actv_docc         0.0000000000   0.0000000000
    Fb actv_docc         0.0000000000   0.0000000000
    ------------------------------------------------
    Fa actv_virt         0.0000000000   0.0000000000
    Fb actv_virt         0.0000000000   0.0000000000
    ------------------------------------------------
    Fa core              0.0237346640   0.0509050696
    Fb core              0.0237346640   0.0509050696
    ------------------------------------------------
    Fa virt              0.0242627993   0.3015698943
    Fb virt              0.0242627993   0.3015698943
    ------------------------------------------------

  ==> Integral Transformation to Semicanonical Basis <==
    Molecular point group: c2h
    Full point group: C2h

    Geometry (in Angstrom), charge = 0, multiplicity = 1:

       Center              X                  Y                   Z               Mass       
    ------------   -----------------  -----------------  -----------------  -----------------
           H          1.080977000000    -2.558832000000     0.000000000000     1.007825032070
           H         -1.080977000000     2.558832000000     0.000000000000     1.007825032070
           H          2.103773000000    -1.017723000000     0.000000000000     1.007825032070
           H         -2.103773000000     1.017723000000     0.000000000000     1.007825032070
           H         -0.973565000000    -1.219040000000     0.000000000000     1.007825032070
           H          0.973565000000     1.219040000000     0.000000000000     1.007825032070
           C         -0.000000000000     0.728881000000     0.000000000000    12.000000000000
           C          0.000000000000    -0.728881000000     0.000000000000    12.000000000000
           C          1.117962000000    -1.474815000000     0.000000000000    12.000000000000
           C         -1.117962000000     1.474815000000     0.000000000000    12.000000000000

  -AO BASIS SET INFORMATION:
    Name                   = DEF2-TZVP
    Blend                  = DEF2-TZVP
    Total number of shells = 68
    Number of primitives   = 116
    Number of AO           = 180
    Number of SO           = 160
    Maximum AM             = 3
    Spherical Harmonics    = TRUE

  -Contraction Scheme:
    Atom   Type   All Primitives // Shells:
   ------ ------ --------------------------
       1     H     5s 1p // 3s 1p 
       2     H     5s 1p // 3s 1p 
       3     H     5s 1p // 3s 1p 
       4     H     5s 1p // 3s 1p 
       5     H     5s 1p // 3s 1p 
       6     H     5s 1p // 3s 1p 
       7     C     11s 6p 2d 1f // 5s 3p 2d 1f 
       8     C     11s 6p 2d 1f // 5s 3p 2d 1f 
       9     C     11s 6p 2d 1f // 5s 3p 2d 1f 
      10     C     11s 6p 2d 1f // 5s 3p 2d 1f 

  ==> AO Basis Functions <==

    [ DEF2-TZVP ]
    spherical
    ****
    H   1
    S   3 1.00
                        34.06134100           0.00602520
                         5.12357460           0.04502109
                         1.16466260           0.20189726
    S   1 1.00
                         0.32723041           1.00000000
    S   1 1.00
                         0.10307241           1.00000000
    P   1 1.00
                         0.80000000           1.00000000
    ****
    H   3
    S   3 1.00
                        34.06134100           0.00602520
                         5.12357460           0.04502109
                         1.16466260           0.20189726
    S   1 1.00
                         0.32723041           1.00000000
    S   1 1.00
                         0.10307241           1.00000000
    P   1 1.00
                         0.80000000           1.00000000
    ****
    H   5
    S   3 1.00
                        34.06134100           0.00602520
                         5.12357460           0.04502109
                         1.16466260           0.20189726
    S   1 1.00
                         0.32723041           1.00000000
    S   1 1.00
                         0.10307241           1.00000000
    P   1 1.00
                         0.80000000           1.00000000
    ****
    C   7
    S   6 1.00
                     13575.34968200           0.00022246
                      2035.23336800           0.00172327
                       463.22562359           0.00892557
                       131.20019598           0.03572798
                        42.85301589           0.11076260
                        15.58418577           0.24295628
    S   2 1.00
                         6.20671385           0.41440263
                         2.57648965           0.23744969
    S   1 1.00
                         0.57696339           1.00000000
    S   1 1.00
                         0.22972831           1.00000000
    S   1 1.00
                         0.09516444           1.00000000
    P   4 1.00
                        34.69723224           0.00533337
                         7.95826228           0.03586411
                         2.37808269           0.14215873
                         0.81433208           0.34270472
    P   1 1.00
                         0.28887547           1.00000000
    P   1 1.00
                         0.10056824           1.00000000
    D   1 1.00
                         1.09700000           1.00000000
    D   1 1.00
                         0.31800000           1.00000000
    F   1 1.00
                         0.76100000           1.00000000
    ****
    C   9
    S   6 1.00
                     13575.34968200           0.00022246
                      2035.23336800           0.00172327
                       463.22562359           0.00892557
                       131.20019598           0.03572798
                        42.85301589           0.11076260
                        15.58418577           0.24295628
    S   2 1.00
                         6.20671385           0.41440263
                         2.57648965           0.23744969
    S   1 1.00
                         0.57696339           1.00000000
    S   1 1.00
                         0.22972831           1.00000000
    S   1 1.00
                         0.09516444           1.00000000
    P   4 1.00
                        34.69723224           0.00533337
                         7.95826228           0.03586411
                         2.37808269           0.14215873
                         0.81433208           0.34270472
    P   1 1.00
                         0.28887547           1.00000000
    P   1 1.00
                         0.10056824           1.00000000
    D   1 1.00
                         1.09700000           1.00000000
    D   1 1.00
                         0.31800000           1.00000000
    F   1 1.00
                         0.76100000           1.00000000
    ****


 Integrals are about to be computed.
 Computing Density fitted integrals 

 Number of auxiliary basis functions:  408
 Need 0.077820 GB to store DF integrals

  Computing DF Integrals               ......Done. Timing        0.527479 s
 Integrals are about to be updated.
  Frozen-core energy           -176.832886811358 a.u.

  FrozenOneBody Operator takes  2.84337400 s
  Resorting integrals after freezing core.
 Done with resorting
 Resorting integrals takes   0.73875100s
  Frozen Orbitals takes     3.615 s.

  ==> Reference Transformation to Semicanonical Basis <==

    Transformed 1 cumulants.
    Transformed 2 cumulants and RDMs.
    Transformed 3 cumulants.
  SemiCanonicalize takes 8.104332 s.

  ==> Multireference Driven Similarity Renormalization Group <==

    Reading DSRG options ............................ Done
    Setting ambit MO space .......................... Done
    Preparing tensors for density cumulants ......... Done
    Building Fock matrix ............................ Done
    Checking reference energy ....................... Done

                  --------------------------------------------
                      Density Fitted / Cholesky Decomposed
                    MR-DSRG Second-Order Perturbation Theory
                      Kevin Hannon and Chenyang (York) Li
                                    1 thread
                  --------------------------------------------

    References:
      u-DSRG-MRPT2:      J. Chem. Theory Comput. 2015, 11, 2097.
      DF/CD-DSRG-MRPT2:  J. Chem. Phys. 2016, 144, 204111.
      (pr-)DSRG-MRPT2:   J. Chem. Phys. 2017, 146, 124132.


  ==> Calculation Information <==

    Flow parameter                                 5.000e-01
    Taylor expansion threshold                     1.000e-03
    Cholesky tolerance                             1.000e-06
    Psi4 ref_type                                        RHF
    Integral type                                         DF
    Source operator                                 STANDARD
    CCVV algorithm                                 FLY_AMBIT
    CCVV source                                       NORMAL
    Reference relaxation                                NONE
    State type                                STATE-SPECIFIC
    Internal_amp                             SINGLES_DOUBLES
    Internal_amp_select                                 AUTO

  ==> Checking Semicanonical Orbitals <==

    Abs. max of Fock core, active, virtual blocks (Fij, i != j)
                  core          active         virtual
    --------------------------------------------------
    Fα    0.0000000000    0.0492274808    0.0000000004
    Fβ    0.0000000000    0.0492274808    0.0000000004
    --------------------------------------------------

    1-Norm of Fock core, active, virtual blocks (Fij, i != j)
                  core          active         virtual
    --------------------------------------------------
    Fα    0.0000000000    0.1728232710    0.0000001083
    Fβ    0.0000000000    0.1728232710    0.0000001083
    --------------------------------------------------

    Warning! Orbitals are not semi-canonicalized!
    Energy is reliable about to the same digit as max(|Fij|, i != j).
    It is OK for Fock (active) not being diagonal because CISD active space is incomplete.
    Please inspect if the Fock diag. blocks (C, AH, AP, V) are diagonal or not in the prior CI step.


  ==> Computing DSRG-MRPT2 Energy <==

  Reference Energy = -154.733201172411555
    Computing T2                             ...... Done. Timing        1.416496 s
    Renormalizing V                          ...... Done. Timing        1.303945 s
    Computing T1                             ...... Done. Timing        0.008109 s
    Renormalizing F                          ...... Done. Timing        0.009865 s
    Computing <[F, T1]>                      ...... Done. Timing        0.003625 s
    Computing <[F, T2]>                      ...... Done. Timing        0.008749 s
    Computing <[V, T1]>                      ...... Done. Timing        0.008651 s
    Computing <[V, T2]> 4HH                  ...... Done. Timing        0.012412 s
    Computing <V, T2]> 4PP                   ...... Done. Timing        0.016221 s
    Computing [V, T2] 4PH                    ...... Done. Timing        0.063095 s
    Computing [V, T2] λ3                     ...... Done. Timing        0.022741 s
    Computing <[V, T2]> (C_2)^4 (no ccvv)    ...... Done. Timing        0.135052 s
    Computing <[V, T2]> (C_2)^4 ccvv         ...... Done. Timing        0.365494 s
  Eccvv: -0.3504382702

  ==> DSRG-MRPT2 (DF/CD) Energy Summary <==

    E0 (reference)                 =   -154.733201172411555
    <[F, T1]>                      =     -0.006189507426385
    <[F, T2]>                      =      0.001629347726586
    <[V, T1]>                      =     -0.002675662837186
    <[V, T2]> C_4 (C_2)^2 HH       =      0.002268633909898
    <[V, T2]> C_4 (C_2)^2 PP       =      0.014403944690889
    <[V, T2]> C_4 (C_2)^2 PH       =      0.034411719684257
    <[V, T2]> C_6 C_2              =     -0.000042748051900
    <[V, T2]> (C_2)^4              =     -0.653167006004434
    <[V, T2]>                      =     -0.602125455771290
    DSRG-MRPT2 correlation energy  =     -0.609361278308275
    DSRG-MRPT2 total energy        =   -155.342562450719839
    max(T1)                        =      0.008680280080607
    ||T1||                         =      0.053873416142055

  ==> Total Timings (s) for Computing Commutators <==

             [H1, T1]    [H1, T2]    [H2, T1]    [H2, T2]
    -----------------------------------------------------
    -> C0       0.004       0.009       0.009       0.610
    -> C1       0.000       0.000       0.000       0.000
    -> C2                   0.000       0.000       0.000
    -----------------------------------------------------


  ==> Working on Root 2 <==

  Computing 1-, 2- and 3-cumulants ... Done. Timing        0.023730 s


  ==> Checking Fock Matrix Diagonal Blocks <==

    Off-Diag. Elements       Max           2-Norm
    ------------------------------------------------
    Fa actv_docc         0.0000000000   0.0000000000
    Fb actv_docc         0.0000000000   0.0000000000
    ------------------------------------------------
    Fa actv_virt         0.0000000000   0.0000000000
    Fb actv_virt         0.0000000000   0.0000000000
    ------------------------------------------------
    Fa core              0.0186232590   0.0418436111
    Fb core              0.0186232590   0.0418436111
    ------------------------------------------------
    Fa virt              0.0198692318   0.2497191258
    Fb virt              0.0198692318   0.2497191258
    ------------------------------------------------

  ==> Integral Transformation to Semicanonical Basis <==
    Molecular point group: c2h
    Full point group: C2h

    Geometry (in Angstrom), charge = 0, multiplicity = 1:

       Center              X                  Y                   Z               Mass       
    ------------   -----------------  -----------------  -----------------  -----------------
           H          1.080977000000    -2.558832000000     0.000000000000     1.007825032070
           H         -1.080977000000     2.558832000000     0.000000000000     1.007825032070
           H          2.103773000000    -1.017723000000     0.000000000000     1.007825032070
           H         -2.103773000000     1.017723000000     0.000000000000     1.007825032070
           H         -0.973565000000    -1.219040000000     0.000000000000     1.007825032070
           H          0.973565000000     1.219040000000     0.000000000000     1.007825032070
           C         -0.000000000000     0.728881000000     0.000000000000    12.000000000000
           C          0.000000000000    -0.728881000000     0.000000000000    12.000000000000
           C          1.117962000000    -1.474815000000     0.000000000000    12.000000000000
           C         -1.117962000000     1.474815000000     0.000000000000    12.000000000000

  -AO BASIS SET INFORMATION:
    Name                   = DEF2-TZVP
    Blend                  = DEF2-TZVP
    Total number of shells = 68
    Number of primitives   = 116
    Number of AO           = 180
    Number of SO           = 160
    Maximum AM             = 3
    Spherical Harmonics    = TRUE

  -Contraction Scheme:
    Atom   Type   All Primitives // Shells:
   ------ ------ --------------------------
       1     H     5s 1p // 3s 1p 
       2     H     5s 1p // 3s 1p 
       3     H     5s 1p // 3s 1p 
       4     H     5s 1p // 3s 1p 
       5     H     5s 1p // 3s 1p 
       6     H     5s 1p // 3s 1p 
       7     C     11s 6p 2d 1f // 5s 3p 2d 1f 
       8     C     11s 6p 2d 1f // 5s 3p 2d 1f 
       9     C     11s 6p 2d 1f // 5s 3p 2d 1f 
      10     C     11s 6p 2d 1f // 5s 3p 2d 1f 

  ==> AO Basis Functions <==

    [ DEF2-TZVP ]
    spherical
    ****
    H   1
    S   3 1.00
                        34.06134100           0.00602520
                         5.12357460           0.04502109
                         1.16466260           0.20189726
    S   1 1.00
                         0.32723041           1.00000000
    S   1 1.00
                         0.10307241           1.00000000
    P   1 1.00
                         0.80000000           1.00000000
    ****
    H   3
    S   3 1.00
                        34.06134100           0.00602520
                         5.12357460           0.04502109
                         1.16466260           0.20189726
    S   1 1.00
                         0.32723041           1.00000000
    S   1 1.00
                         0.10307241           1.00000000
    P   1 1.00
                         0.80000000           1.00000000
    ****
    H   5
    S   3 1.00
                        34.06134100           0.00602520
                         5.12357460           0.04502109
                         1.16466260           0.20189726
    S   1 1.00
                         0.32723041           1.00000000
    S   1 1.00
                         0.10307241           1.00000000
    P   1 1.00
                         0.80000000           1.00000000
    ****
    C   7
    S   6 1.00
                     13575.34968200           0.00022246
                      2035.23336800           0.00172327
                       463.22562359           0.00892557
                       131.20019598           0.03572798
                        42.85301589           0.11076260
                        15.58418577           0.24295628
    S   2 1.00
                         6.20671385           0.41440263
                         2.57648965           0.23744969
    S   1 1.00
                         0.57696339           1.00000000
    S   1 1.00
                         0.22972831           1.00000000
    S   1 1.00
                         0.09516444           1.00000000
    P   4 1.00
                        34.69723224           0.00533337
                         7.95826228           0.03586411
                         2.37808269           0.14215873
                         0.81433208           0.34270472
    P   1 1.00
                         0.28887547           1.00000000
    P   1 1.00
                         0.10056824           1.00000000
    D   1 1.00
                         1.09700000           1.00000000
    D   1 1.00
                         0.31800000           1.00000000
    F   1 1.00
                         0.76100000           1.00000000
    ****
    C   9
    S   6 1.00
                     13575.34968200           0.00022246
                      2035.23336800           0.00172327
                       463.22562359           0.00892557
                       131.20019598           0.03572798
                        42.85301589           0.11076260
                        15.58418577           0.24295628
    S   2 1.00
                         6.20671385           0.41440263
                         2.57648965           0.23744969
    S   1 1.00
                         0.57696339           1.00000000
    S   1 1.00
                         0.22972831           1.00000000
    S   1 1.00
                         0.09516444           1.00000000
    P   4 1.00
                        34.69723224           0.00533337
                         7.95826228           0.03586411
                         2.37808269           0.14215873
                         0.81433208           0.34270472
    P   1 1.00
                         0.28887547           1.00000000
    P   1 1.00
                         0.10056824           1.00000000
    D   1 1.00
                         1.09700000           1.00000000
    D   1 1.00
                         0.31800000           1.00000000
    F   1 1.00
                         0.76100000           1.00000000
    ****


 Integrals are about to be computed.
 Computing Density fitted integrals 

 Number of auxiliary basis functions:  408
 Need 0.077820 GB to store DF integrals

  Computing DF Integrals               ......Done. Timing        0.522604 s
 Integrals are about to be updated.
  Frozen-core energy           -176.832886811358 a.u.

  FrozenOneBody Operator takes  2.87359600 s
  Resorting integrals after freezing core.
 Done with resorting
 Resorting integrals takes   0.73519400s
  Frozen Orbitals takes     3.642 s.

  ==> Reference Transformation to Semicanonical Basis <==

    Transformed 1 cumulants.
    Transformed 2 cumulants and RDMs.
    Transformed 3 cumulants.
  SemiCanonicalize takes 8.023518 s.

  ==> Multireference Driven Similarity Renormalization Group <==

    Reading DSRG options ............................ Done
    Setting ambit MO space .......................... Done
    Preparing tensors for density cumulants ......... Done
    Building Fock matrix ............................ Done
    Checking reference energy ....................... Done

                  --------------------------------------------
                      Density Fitted / Cholesky Decomposed
                    MR-DSRG Second-Order Perturbation Theory
                      Kevin Hannon and Chenyang (York) Li
                                    1 thread
                  --------------------------------------------

    References:
      u-DSRG-MRPT2:      J. Chem. Theory Comput. 2015, 11, 2097.
      DF/CD-DSRG-MRPT2:  J. Chem. Phys. 2016, 144, 204111.
      (pr-)DSRG-MRPT2:   J. Chem. Phys. 2017, 146, 124132.


  ==> Calculation Information <==

    Flow parameter                                 5.000e-01
    Taylor expansion threshold                     1.000e-03
    Cholesky tolerance                             1.000e-06
    Psi4 ref_type                                        RHF
    Integral type                                         DF
    Source operator                                 STANDARD
    CCVV algorithm                                 FLY_AMBIT
    CCVV source                                       NORMAL
    Reference relaxation                                NONE
    State type                                STATE-SPECIFIC
    Internal_amp                             SINGLES_DOUBLES
    Internal_amp_select                                 AUTO

  ==> Checking Semicanonical Orbitals <==

    Abs. max of Fock core, active, virtual blocks (Fij, i != j)
                  core          active         virtual
    --------------------------------------------------
    Fα    0.0000000000    0.0176836759    0.0000000004
    Fβ    0.0000000000    0.0176836759    0.0000000004
    --------------------------------------------------

    1-Norm of Fock core, active, virtual blocks (Fij, i != j)
                  core          active         virtual
    --------------------------------------------------
    Fα    0.0000000000    0.0543723760    0.0000001083
    Fβ    0.0000000000    0.0543723760    0.0000001083
    --------------------------------------------------

    Warning! Orbitals are not semi-canonicalized!
    Energy is reliable about to the same digit as max(|Fij|, i != j).
    It is OK for Fock (active) not being diagonal because CISD active space is incomplete.
    Please inspect if the Fock diag. blocks (C, AH, AP, V) are diagonal or not in the prior CI step.


  ==> Computing DSRG-MRPT2 Energy <==

  Reference Energy = -154.638421920528515
    Computing T2                             ...... Done. Timing        1.397811 s
    Renormalizing V                          ...... Done. Timing        1.285080 s
    Computing T1                             ...... Done. Timing        0.008083 s
    Renormalizing F                          ...... Done. Timing        0.009380 s
    Computing <[F, T1]>                      ...... Done. Timing        0.006065 s
    Computing <[F, T2]>                      ...... Done. Timing        0.008561 s
    Computing <[V, T1]>                      ...... Done. Timing        0.007343 s
    Computing <[V, T2]> 4HH                  ...... Done. Timing        0.011011 s
    Computing <V, T2]> 4PP                   ...... Done. Timing        0.017169 s
    Computing [V, T2] 4PH                    ...... Done. Timing        0.058521 s
    Computing [V, T2] λ3                     ...... Done. Timing        0.023132 s
    Computing <[V, T2]> (C_2)^4 (no ccvv)    ...... Done. Timing        0.139165 s
    Computing <[V, T2]> (C_2)^4 ccvv         ...... Done. Timing        0.363476 s
  Eccvv: -0.3504054025

  ==> DSRG-MRPT2 (DF/CD) Energy Summary <==

    E0 (reference)                 =   -154.638421920528515
    <[F, T1]>                      =     -0.005010056388569
    <[F, T2]>                      =      0.000764603001859
    <[V, T1]>                      =      0.000163021980739
    <[V, T2]> C_4 (C_2)^2 HH       =     -0.000031400918498
    <[V, T2]> C_4 (C_2)^2 PP       =     -0.001828971691361
    <[V, T2]> C_4 (C_2)^2 PH       =      0.004149503301230
    <[V, T2]> C_6 C_2              =      0.000154856908939
    <[V, T2]> (C_2)^4              =     -0.649185745181802
    <[V, T2]>                      =     -0.646741757581492
    DSRG-MRPT2 correlation energy  =     -0.650824188987463
    DSRG-MRPT2 total energy        =   -155.289246109515972
    max(T1)                        =      0.005270219965933
    ||T1||                         =      0.040797420943420

  ==> Total Timings (s) for Computing Commutators <==

             [H1, T1]    [H1, T2]    [H2, T1]    [H2, T2]
    -----------------------------------------------------
    -> C0       0.006       0.009       0.007       0.613
    -> C1       0.000       0.000       0.000       0.000
    -> C2                   0.000       0.000       0.000
    -----------------------------------------------------


  ==============================
  Current Job: Singlet Bu states
  ==============================


  ==> Transform Integrals to the Original Basis <==


    Molecular point group: c2h
    Full point group: C2h

    Geometry (in Angstrom), charge = 0, multiplicity = 1:

       Center              X                  Y                   Z               Mass       
    ------------   -----------------  -----------------  -----------------  -----------------
           H          1.080977000000    -2.558832000000     0.000000000000     1.007825032070
           H         -1.080977000000     2.558832000000     0.000000000000     1.007825032070
           H          2.103773000000    -1.017723000000     0.000000000000     1.007825032070
           H         -2.103773000000     1.017723000000     0.000000000000     1.007825032070
           H         -0.973565000000    -1.219040000000     0.000000000000     1.007825032070
           H          0.973565000000     1.219040000000     0.000000000000     1.007825032070
           C         -0.000000000000     0.728881000000     0.000000000000    12.000000000000
           C          0.000000000000    -0.728881000000     0.000000000000    12.000000000000
           C          1.117962000000    -1.474815000000     0.000000000000    12.000000000000
           C         -1.117962000000     1.474815000000     0.000000000000    12.000000000000

  -AO BASIS SET INFORMATION:
    Name                   = DEF2-TZVP
    Blend                  = DEF2-TZVP
    Total number of shells = 68
    Number of primitives   = 116
    Number of AO           = 180
    Number of SO           = 160
    Maximum AM             = 3
    Spherical Harmonics    = TRUE

  -Contraction Scheme:
    Atom   Type   All Primitives // Shells:
   ------ ------ --------------------------
       1     H     5s 1p // 3s 1p 
       2     H     5s 1p // 3s 1p 
       3     H     5s 1p // 3s 1p 
       4     H     5s 1p // 3s 1p 
       5     H     5s 1p // 3s 1p 
       6     H     5s 1p // 3s 1p 
       7     C     11s 6p 2d 1f // 5s 3p 2d 1f 
       8     C     11s 6p 2d 1f // 5s 3p 2d 1f 
       9     C     11s 6p 2d 1f // 5s 3p 2d 1f 
      10     C     11s 6p 2d 1f // 5s 3p 2d 1f 

  ==> AO Basis Functions <==

    [ DEF2-TZVP ]
    spherical
    ****
    H   1
    S   3 1.00
                        34.06134100           0.00602520
                         5.12357460           0.04502109
                         1.16466260           0.20189726
    S   1 1.00
                         0.32723041           1.00000000
    S   1 1.00
                         0.10307241           1.00000000
    P   1 1.00
                         0.80000000           1.00000000
    ****
    H   3
    S   3 1.00
                        34.06134100           0.00602520
                         5.12357460           0.04502109
                         1.16466260           0.20189726
    S   1 1.00
                         0.32723041           1.00000000
    S   1 1.00
                         0.10307241           1.00000000
    P   1 1.00
                         0.80000000           1.00000000
    ****
    H   5
    S   3 1.00
                        34.06134100           0.00602520
                         5.12357460           0.04502109
                         1.16466260           0.20189726
    S   1 1.00
                         0.32723041           1.00000000
    S   1 1.00
                         0.10307241           1.00000000
    P   1 1.00
                         0.80000000           1.00000000
    ****
    C   7
    S   6 1.00
                     13575.34968200           0.00022246
                      2035.23336800           0.00172327
                       463.22562359           0.00892557
                       131.20019598           0.03572798
                        42.85301589           0.11076260
                        15.58418577           0.24295628
    S   2 1.00
                         6.20671385           0.41440263
                         2.57648965           0.23744969
    S   1 1.00
                         0.57696339           1.00000000
    S   1 1.00
                         0.22972831           1.00000000
    S   1 1.00
                         0.09516444           1.00000000
    P   4 1.00
                        34.69723224           0.00533337
                         7.95826228           0.03586411
                         2.37808269           0.14215873
                         0.81433208           0.34270472
    P   1 1.00
                         0.28887547           1.00000000
    P   1 1.00
                         0.10056824           1.00000000
    D   1 1.00
                         1.09700000           1.00000000
    D   1 1.00
                         0.31800000           1.00000000
    F   1 1.00
                         0.76100000           1.00000000
    ****
    C   9
    S   6 1.00
                     13575.34968200           0.00022246
                      2035.23336800           0.00172327
                       463.22562359           0.00892557
                       131.20019598           0.03572798
                        42.85301589           0.11076260
                        15.58418577           0.24295628
    S   2 1.00
                         6.20671385           0.41440263
                         2.57648965           0.23744969
    S   1 1.00
                         0.57696339           1.00000000
    S   1 1.00
                         0.22972831           1.00000000
    S   1 1.00
                         0.09516444           1.00000000
    P   4 1.00
                        34.69723224           0.00533337
                         7.95826228           0.03586411
                         2.37808269           0.14215873
                         0.81433208           0.34270472
    P   1 1.00
                         0.28887547           1.00000000
    P   1 1.00
                         0.10056824           1.00000000
    D   1 1.00
                         1.09700000           1.00000000
    D   1 1.00
                         0.31800000           1.00000000
    F   1 1.00
                         0.76100000           1.00000000
    ****


 Integrals are about to be computed.
 Computing Density fitted integrals 

 Number of auxiliary basis functions:  408
 Need 0.077820 GB to store DF integrals

  Computing DF Integrals               ......Done. Timing        0.506648 s
 Integrals are about to be updated.
  Frozen-core energy           -176.832886811358 a.u.

  FrozenOneBody Operator takes  2.80162300 s
  Resorting integrals after freezing core.
 Done with resorting
 Resorting integrals takes   0.72478400s
  Frozen Orbitals takes     3.560 s.
  Forming determinants                ...  Done. Timing        0.000034 s

  ==> Determinants Summary <==

    number of alpha active electrons         =     2
    number of beta active electrons          =     2
    root symmetry (zero based)               =     3
    number of determinants                   =    12

  Diagonalizing Hamiltonian           ...
  Found 6 roots with 2S+1 = 1 *
  Found 6 roots with 2S+1 = 3  Done. Timing        0.001663 s

  * * * * * * * * * * * * * * * * *
  *  CI Vectors & Configurations  *
  * * * * * * * * * * * * * * * * *

  ==> Root No. 0 <==

    b0 2a          0.6994062344
    a0 2b          0.6994062344
    b0 a2          0.0874629484
    a0 b2          0.0874629484
    0b 2a         -0.0517538923
    0a 2b         -0.0517538923

    Total Energy:   -154.721216049858583



  ==> Permanent Dipole Moments (Bu) <==

  Only print nonzero (> 1.0e-5) elements.


  ==> Prepare Fock Matrices in the Original Basis <==

  Computing 1-cumulants ... Done. Timing        0.000450 s

  Forming generalized Fock matrix     ...  Done. Timing        3.333228 s
  Computing VCISD reference oscillator strength 0Ag -> nBu ... Done.

  ==> Working on Root 0 <==

  Computing 1-, 2- and 3-cumulants ... Done. Timing        0.018924 s


  ==> Checking Fock Matrix Diagonal Blocks <==

    Off-Diag. Elements       Max           2-Norm
    ------------------------------------------------
    Fa actv_docc         0.0000000000   0.0000000000
    Fb actv_docc         0.0000000000   0.0000000000
    ------------------------------------------------
    Fa actv_virt         0.0000000000   0.0000000000
    Fb actv_virt         0.0000000000   0.0000000000
    ------------------------------------------------
    Fa core              0.0134425740   0.0355485952
    Fb core              0.0134425740   0.0355485952
    ------------------------------------------------
    Fa virt              0.0106868251   0.1719025061
    Fb virt              0.0106868251   0.1719025061
    ------------------------------------------------

  ==> Integral Transformation to Semicanonical Basis <==
    Molecular point group: c2h
    Full point group: C2h

    Geometry (in Angstrom), charge = 0, multiplicity = 1:

       Center              X                  Y                   Z               Mass       
    ------------   -----------------  -----------------  -----------------  -----------------
           H          1.080977000000    -2.558832000000     0.000000000000     1.007825032070
           H         -1.080977000000     2.558832000000     0.000000000000     1.007825032070
           H          2.103773000000    -1.017723000000     0.000000000000     1.007825032070
           H         -2.103773000000     1.017723000000     0.000000000000     1.007825032070
           H         -0.973565000000    -1.219040000000     0.000000000000     1.007825032070
           H          0.973565000000     1.219040000000     0.000000000000     1.007825032070
           C         -0.000000000000     0.728881000000     0.000000000000    12.000000000000
           C          0.000000000000    -0.728881000000     0.000000000000    12.000000000000
           C          1.117962000000    -1.474815000000     0.000000000000    12.000000000000
           C         -1.117962000000     1.474815000000     0.000000000000    12.000000000000

  -AO BASIS SET INFORMATION:
    Name                   = DEF2-TZVP
    Blend                  = DEF2-TZVP
    Total number of shells = 68
    Number of primitives   = 116
    Number of AO           = 180
    Number of SO           = 160
    Maximum AM             = 3
    Spherical Harmonics    = TRUE

  -Contraction Scheme:
    Atom   Type   All Primitives // Shells:
   ------ ------ --------------------------
       1     H     5s 1p // 3s 1p 
       2     H     5s 1p // 3s 1p 
       3     H     5s 1p // 3s 1p 
       4     H     5s 1p // 3s 1p 
       5     H     5s 1p // 3s 1p 
       6     H     5s 1p // 3s 1p 
       7     C     11s 6p 2d 1f // 5s 3p 2d 1f 
       8     C     11s 6p 2d 1f // 5s 3p 2d 1f 
       9     C     11s 6p 2d 1f // 5s 3p 2d 1f 
      10     C     11s 6p 2d 1f // 5s 3p 2d 1f 

  ==> AO Basis Functions <==

    [ DEF2-TZVP ]
    spherical
    ****
    H   1
    S   3 1.00
                        34.06134100           0.00602520
                         5.12357460           0.04502109
                         1.16466260           0.20189726
    S   1 1.00
                         0.32723041           1.00000000
    S   1 1.00
                         0.10307241           1.00000000
    P   1 1.00
                         0.80000000           1.00000000
    ****
    H   3
    S   3 1.00
                        34.06134100           0.00602520
                         5.12357460           0.04502109
                         1.16466260           0.20189726
    S   1 1.00
                         0.32723041           1.00000000
    S   1 1.00
                         0.10307241           1.00000000
    P   1 1.00
                         0.80000000           1.00000000
    ****
    H   5
    S   3 1.00
                        34.06134100           0.00602520
                         5.12357460           0.04502109
                         1.16466260           0.20189726
    S   1 1.00
                         0.32723041           1.00000000
    S   1 1.00
                         0.10307241           1.00000000
    P   1 1.00
                         0.80000000           1.00000000
    ****
    C   7
    S   6 1.00
                     13575.34968200           0.00022246
                      2035.23336800           0.00172327
                       463.22562359           0.00892557
                       131.20019598           0.03572798
                        42.85301589           0.11076260
                        15.58418577           0.24295628
    S   2 1.00
                         6.20671385           0.41440263
                         2.57648965           0.23744969
    S   1 1.00
                         0.57696339           1.00000000
    S   1 1.00
                         0.22972831           1.00000000
    S   1 1.00
                         0.09516444           1.00000000
    P   4 1.00
                        34.69723224           0.00533337
                         7.95826228           0.03586411
                         2.37808269           0.14215873
                         0.81433208           0.34270472
    P   1 1.00
                         0.28887547           1.00000000
    P   1 1.00
                         0.10056824           1.00000000
    D   1 1.00
                         1.09700000           1.00000000
    D   1 1.00
                         0.31800000           1.00000000
    F   1 1.00
                         0.76100000           1.00000000
    ****
    C   9
    S   6 1.00
                     13575.34968200           0.00022246
                      2035.23336800           0.00172327
                       463.22562359           0.00892557
                       131.20019598           0.03572798
                        42.85301589           0.11076260
                        15.58418577           0.24295628
    S   2 1.00
                         6.20671385           0.41440263
                         2.57648965           0.23744969
    S   1 1.00
                         0.57696339           1.00000000
    S   1 1.00
                         0.22972831           1.00000000
    S   1 1.00
                         0.09516444           1.00000000
    P   4 1.00
                        34.69723224           0.00533337
                         7.95826228           0.03586411
                         2.37808269           0.14215873
                         0.81433208           0.34270472
    P   1 1.00
                         0.28887547           1.00000000
    P   1 1.00
                         0.10056824           1.00000000
    D   1 1.00
                         1.09700000           1.00000000
    D   1 1.00
                         0.31800000           1.00000000
    F   1 1.00
                         0.76100000           1.00000000
    ****


 Integrals are about to be computed.
 Computing Density fitted integrals 

 Number of auxiliary basis functions:  408
 Need 0.077820 GB to store DF integrals

  Computing DF Integrals               ......Done. Timing        0.541739 s
 Integrals are about to be updated.
  Frozen-core energy           -176.832886811358 a.u.

  FrozenOneBody Operator takes  2.78656400 s
  Resorting integrals after freezing core.
 Done with resorting
 Resorting integrals takes   0.73030900s
  Frozen Orbitals takes     3.552 s.

  ==> Reference Transformation to Semicanonical Basis <==

    Transformed 1 cumulants.
    Transformed 2 cumulants and RDMs.
    Transformed 3 cumulants.
  SemiCanonicalize takes 7.981801 s.

  ==> Multireference Driven Similarity Renormalization Group <==

    Reading DSRG options ............................ Done
    Setting ambit MO space .......................... Done
    Preparing tensors for density cumulants ......... Done
    Building Fock matrix ............................ Done
    Checking reference energy ....................... Done

                  --------------------------------------------
                      Density Fitted / Cholesky Decomposed
                    MR-DSRG Second-Order Perturbation Theory
                      Kevin Hannon and Chenyang (York) Li
                                    1 thread
                  --------------------------------------------

    References:
      u-DSRG-MRPT2:      J. Chem. Theory Comput. 2015, 11, 2097.
      DF/CD-DSRG-MRPT2:  J. Chem. Phys. 2016, 144, 204111.
      (pr-)DSRG-MRPT2:   J. Chem. Phys. 2017, 146, 124132.


  ==> Calculation Information <==

    Flow parameter                                 5.000e-01
    Taylor expansion threshold                     1.000e-03
    Cholesky tolerance                             1.000e-06
    Psi4 ref_type                                        RHF
    Integral type                                         DF
    Source operator                                 STANDARD
    CCVV algorithm                                 FLY_AMBIT
    CCVV source                                       NORMAL
    Reference relaxation                                NONE
    State type                                STATE-SPECIFIC
    Internal_amp                             SINGLES_DOUBLES
    Internal_amp_select                                 AUTO

  ==> Checking Semicanonical Orbitals <==

    Abs. max of Fock core, active, virtual blocks (Fij, i != j)
                  core          active         virtual
    --------------------------------------------------
    Fα    0.0000000000    0.0138714377    0.0000000004
    Fβ    0.0000000000    0.0138714377    0.0000000004
    --------------------------------------------------

    1-Norm of Fock core, active, virtual blocks (Fij, i != j)
                  core          active         virtual
    --------------------------------------------------
    Fα    0.0000000000    0.0447689851    0.0000002129
    Fβ    0.0000000000    0.0447689851    0.0000002129
    --------------------------------------------------

    Warning! Orbitals are not semi-canonicalized!
    Energy is reliable about to the same digit as max(|Fij|, i != j).
    It is OK for Fock (active) not being diagonal because CISD active space is incomplete.
    Please inspect if the Fock diag. blocks (C, AH, AP, V) are diagonal or not in the prior CI step.


  ==> Computing DSRG-MRPT2 Energy <==

  Reference Energy = -154.721216049858583
    Computing T2                             ...... Done. Timing        1.436798 s
    Renormalizing V                          ...... Done. Timing        1.261526 s
    Computing T1                             ...... Done. Timing        0.008188 s
    Renormalizing F                          ...... Done. Timing        0.009052 s
    Computing <[F, T1]>                      ...... Done. Timing        0.003377 s
    Computing <[F, T2]>                      ...... Done. Timing        0.008083 s
    Computing <[V, T1]>                      ...... Done. Timing        0.007323 s
    Computing <[V, T2]> 4HH                  ...... Done. Timing        0.011147 s
    Computing <V, T2]> 4PP                   ...... Done. Timing        0.016073 s
    Computing [V, T2] 4PH                    ...... Done. Timing        0.056731 s
    Computing [V, T2] λ3                     ...... Done. Timing        0.023602 s
    Computing <[V, T2]> (C_2)^4 (no ccvv)    ...... Done. Timing        0.157135 s
    Computing <[V, T2]> (C_2)^4 ccvv         ...... Done. Timing        0.358818 s
  Eccvv: -0.3503469981

  ==> DSRG-MRPT2 (DF/CD) Energy Summary <==

    E0 (reference)                 =   -154.721216049858583
    <[F, T1]>                      =     -0.003039289700376
    <[F, T2]>                      =      0.003318788025394
    <[V, T1]>                      =      0.001020888775664
    <[V, T2]> C_4 (C_2)^2 HH       =      0.000775398381920
    <[V, T2]> C_4 (C_2)^2 PP       =     -0.001683294145028
    <[V, T2]> C_4 (C_2)^2 PH       =      0.000142345113904
    <[V, T2]> C_6 C_2              =     -0.000033953136270
    <[V, T2]> (C_2)^4              =     -0.648820518725569
    <[V, T2]>                      =     -0.649620022511043
    DSRG-MRPT2 correlation energy  =     -0.648319635410361
    DSRG-MRPT2 total energy        =   -155.369535685268943
    max(T1)                        =      0.004948314743145
    ||T1||                         =      0.029152158702649

  ==> Total Timings (s) for Computing Commutators <==

             [H1, T1]    [H1, T2]    [H2, T1]    [H2, T2]
    -----------------------------------------------------
    -> C0       0.003       0.008       0.007       0.618
    -> C1       0.000       0.000       0.000       0.000
    -> C2                   0.000       0.000       0.000
    -----------------------------------------------------

  Computing VCISD-DSRG-PT2 oscillator strength ... Done. Timing        0.043334 s

  ==> VCISD Transition Dipole Moment (a.u.) <==

   0 Ag ->  0 Bu:  X:  2.0322  Y: -2.0449  Z:  0.0000  Total:  2.8830
   0 Ag ->  1 Ag:  X: -0.0000  Y:  0.0000  Z:  0.0000  Total:  0.0000
   0 Ag ->  2 Ag:  X:  0.0000  Y:  0.0000  Z:  0.0000  Total:  0.0000

  ==> VCISD Oscillator Strength (a.u.) <==

   0 Ag ->  0 Bu:  X:  0.7105  Y:  0.7193  Z:  0.0000  Total:  1.4298
   0 Ag ->  1 Ag:  X:  0.0000  Y:  0.0000  Z:  0.0000  Total:  0.0000
   0 Ag ->  2 Ag:  X:  0.0000  Y:  0.0000  Z:  0.0000  Total:  0.0000

  ==> VCISD-DSRG-PT2 Transition Dipole Moment (a.u.) <==

   0 Ag ->  0 Bu:  X:  1.8196  Y: -1.9213  Z: -0.0000  Total:  2.6463

  ==> VCISD-DSRG-PT2 Oscillator Strength (a.u.) <==

   0 Ag ->  0 Bu:  X:  0.5079  Y:  0.5662  Z:  0.0000  Total:  1.0741


  ==> ACTIVE-DSRG-MRPT2 Summary <==

    2S+1  Sym.  ROOT               VCISD      VCISD-DSRG-PT2    % T1
    ----------------------------------------------------------------
       1    Ag     0     -154.9792632553     -155.5996180412    0.00
       1    Ag     1     -154.7332011724     -155.3425624507   56.41
       1    Ag     2     -154.6384219205     -155.2892461095   90.69
    ----------------------------------------------------------------
       1    Bu     0     -154.7212160499     -155.3695356853   97.93
    ----------------------------------------------------------------

  ==> Relative Energy WRT Totally Symmetric Ground State (eV) <==

    2S+1  Sym.  ROOT     VCISD  DSRG-PT2                           Excitation Type
    ------------------------------------------------------------------------------
       1    Ag     1    6.6957    6.9948                  0Bg -> 1Au (  17.47) (D)
       1    Ag     2    9.2748    8.4456                  0Bg -> 1Bg (  19.45) (S)
    ------------------------------------------------------------------------------
       1    Bu     0    7.0218    6.2609                  0Bg -> 1Au (  17.47) (S)
    ------------------------------------------------------------------------------
    Notes on excitation type:
    General format: mAH -> nAP (<r^2>) (S/D)
      mAH:   Mulliken symbol of m-th Active Hole orbital
      nAP:   Mulliken symbol of n-th Active Particle orbital
      <r^2>: orbital extent of the nAP orbital in a.u.
      S/D:   single/double excitation
    NOTE: m and n are ZERO based ACTIVE indices (NO core orbitals)!	abs. energy of singlet 0Bu........................................PASSED

*** Psi4 exiting successfully. Buy a developer a beer!
