    -----------------------------------------------------------------------
          Psi4: An Open-Source Ab Initio Electronic Structure Package
                              Psi4 (no tag) Driver

                          Git: Rev {detached?} 7a17eb9 dirty

    J. M. Turney, A. C. Simmonett, R. M. Parrish, E. G. Hohenstein,
    F. A. Evangelista, J. T. Fermann, B. J. Mintz, L. A. Burns, J. J. Wilke,
    M. L. Abrams, N. J. Russ, M. L. Leininger, C. L. Janssen, E. T. Seidl,
    W. D. Allen, H. F. Schaefer, R. A. King, E. F. Valeev, C. D. Sherrill,
    and T. D. Crawford, WIREs Comput. Mol. Sci. 2, 556-565 (2012)
    (doi: 10.1002/wcms.93)

                         Additional Contributions by
    A. E. DePrince, M. Saitow, U. Bozkaya, A. Yu. Sokolov
    -----------------------------------------------------------------------


    Psi4 started on: Mon Jan 18 13:15:25 2016

    Process ID:   3107
    PSI4DATADIR: /Users/jeffschriber/src/psi4/lib
    Memory level set to 256.000 MB

  ==> Input File <==

--------------------------------------------------------------------------
#! Generated using commit GITCOMMIT
#Tests spin projection for a spin-contaminated system

import forte 

refscf = -37.97186042031555  
refaci = -38.903896578437 
refacipt2 = -38.972785019691

molecule CH2{
0 1
C  0.000000 0.00000 0.00000
H  1.644403 0.00000 1.32213
H -1.644403 0.00000 1.32213
units bohr
symmetry c2v
}

set {
  basis cc-pvdz
  scf_type pk
  reference rohf
  e_convergence 11
  d_convergence 11
  r_convergence 11
  multiplicity 1
  docc [2,0,2,0]
}


set forte {
  JOB_TYPE aci
  multiplicity 1
  SELECT_TYPE aimed_energy
  TAUP 0.05
  TAUQ 0.05
  nroot 1
  charge 0
  enforce_spin_complete true
  aci_add_aimed_degenerate true
  project_out_spin_contaminants true
  prescreen_threshold 1.0e-8
}

energy('scf')

#compare_values(refscf, get_variable("CURRENT ENERGY"),9, "SCF energy")

energy('forte')
#compare_values(refaci, get_variable("ACI ENERGY"),7, "ACI energy")
#compare_values(refacipt2, get_variable("ACI+PT2 ENERGY"),7, "ACI+PT2 energy")

--------------------------------------------------------------------------
/Users/jeffschriber/src/forte/forte.so loaded.

*** tstart() called on dhcp189-14.emerson.emory.edu
*** at Mon Jan 18 13:15:25 2016


         ---------------------------------------------------------
                                   SCF
            by Justin Turney, Rob Parrish, and Andy Simmonett
                             ROHF Reference
                        1 Threads,    256 MiB Core
         ---------------------------------------------------------

  ==> Geometry <==

    Molecular point group: c2v
    Full point group: C2v

    Geometry (in Bohr), charge = 0, multiplicity = 1:

       Center              X                  Y                   Z               Mass       
    ------------   -----------------  -----------------  -----------------  -----------------
           C          0.000000000000     0.000000000000    -0.190141121326    12.000000000000
           H          1.644403000000     0.000000000000     1.131988878674     1.007825032070
           H         -1.644403000000    -0.000000000000     1.131988878674     1.007825032070

  Running in c2v symmetry.

  Rotational constants: A =     19.95551  B =     11.04492  C =      7.10980 [cm^-1]
  Rotational constants: A = 598251.06074  B = 331118.37066  C = 213146.58067 [MHz]
  Nuclear repulsion =    5.991272557961065

  Charge       = 0
  Multiplicity = 1
  Electrons    = 8
  Nalpha       = 4
  Nbeta        = 4

  ==> Algorithm <==

  SCF Algorithm Type is PK.
  DIIS enabled.
  MOM disabled.
  Fractional occupation disabled.
  Guess Type is CORE.
  Energy threshold   = 1.00e-11
  Density threshold  = 1.00e-11
  Integral threshold = 0.00e+00

  ==> Primary Basis <==

  Basis Set: CC-PVDZ
    Number of shells: 12
    Number of basis function: 24
    Number of Cartesian functions: 25
    Spherical Harmonics?: true
    Max angular momentum: 2

  ==> Pre-Iterations <==

   -------------------------------------------------------
    Irrep   Nso     Nmo     Nalpha   Nbeta   Ndocc  Nsocc
   -------------------------------------------------------
     A1        11      11       2       2       2       0
     A2         2       2       0       0       0       0
     B1         7       7       2       2       2       0
     B2         4       4       0       0       0       0
   -------------------------------------------------------
    Total      24      24       4       4       4       0
   -------------------------------------------------------

  Starting with a DF guess...

 OEINTS: Overlap, kinetic, potential, dipole, and quadrupole integrals
         stored in file 35.

  ==> Integral Setup <==

  ==> DFJK: Density-Fitted J/K Matrices <==

    J tasked:                  Yes
    K tasked:                  Yes
    wK tasked:                  No
    OpenMP threads:              1
    Integrals threads:           1
    Memory (MB):               183
    Algorithm:                Core
    Integral Cache:           NONE
    Schwarz Cutoff:          1E-12
    Fitting Condition:       1E-12

   => Auxiliary Basis Set <=

  Basis Set: 
    Number of shells: 42
    Number of basis function: 116
    Number of Cartesian functions: 131
    Spherical Harmonics?: true
    Max angular momentum: 3

  Minimum eigenvalue in the overlap matrix is 2.9058910943E-02.
  Using Symmetric Orthogonalization.
  SCF Guess: Core (One-Electron) Hamiltonian.

  ==> Iterations <==

                           Total Energy        Delta E     RMS |[F,P]|

   @DF-ROHF iter   1:   -35.16229415712451   -3.51623e+01   2.65055e-01 
   @DF-ROHF iter   2:   -37.80797765545810   -2.64568e+00   9.73487e-02 DIIS
   @DF-ROHF iter   3:   -38.05317153297592   -2.45194e-01   1.14202e-02 DIIS
   @DF-ROHF iter   4:   -38.05795225644528   -4.78072e-03   3.21600e-03 DIIS
   @DF-ROHF iter   5:   -38.05853630957265   -5.84053e-04   4.46188e-04 DIIS
   @DF-ROHF iter   6:   -38.05858187567635   -4.55661e-05   1.50216e-04 DIIS
   @DF-ROHF iter   7:   -38.05858816903059   -6.29335e-06   1.97238e-05 DIIS
   @DF-ROHF iter   8:   -38.05858827594263   -1.06912e-07   4.04182e-06 DIIS
   @DF-ROHF iter   9:   -38.05858828138645   -5.44382e-09   9.93534e-07 DIIS
   @DF-ROHF iter  10:   -38.05858828175470   -3.68253e-10   9.01453e-08 DIIS
   @DF-ROHF iter  11:   -38.05858828175608   -1.37845e-12   7.65703e-09 DIIS
   @DF-ROHF iter  12:   -38.05858828175609   -1.42109e-14   1.47199e-09 DIIS
   @DF-ROHF iter  13:   -38.05858828175612   -2.13163e-14   1.74057e-10 DIIS
   @DF-ROHF iter  14:   -38.05858828175609    2.13163e-14   1.23034e-11 DIIS
   @DF-ROHF iter  15:   -38.05858828175610   -7.10543e-15   1.21072e-12 DIIS

  DF guess converged.

  ==> Integral Setup <==

 MINTS: Wrapper to libmints.
   by Justin Turney

   Calculation information:
      Number of atoms:                   3
      Number of AO shells:              12
      Number of SO shells:               9
      Number of primitives:             32
      Number of atomic orbitals:        25
      Number of basis functions:        24

      Number of irreps:                  4
      Integral cutoff                 0.00e+00
      Number of functions per irrep: [  11    2    7    4 ]

 OEINTS: Overlap, kinetic, potential, dipole, and quadrupole integrals
         stored in file 35.

      Computing two-electron integrals...done
      Computed 11592 non-zero two-electron integrals.
        Stored in file 33.

	Batch   1 pq = [       0,     107] index = [             0,5778]
  ==> DiskJK: Disk-Based J/K Matrices <==

    J tasked:                  Yes
    K tasked:                  Yes
    wK tasked:                  No
    Memory (MB):               183
    Schwarz Cutoff:          1E-12

   @ROHF iter  16:   -38.05794103004600    6.47252e-04   2.25539e-04 DIIS
   @ROHF iter  17:   -38.05794321913819   -2.18909e-06   4.41572e-05 DIIS
   @ROHF iter  18:   -38.05794339157045   -1.72432e-07   1.02541e-05 DIIS
   @ROHF iter  19:   -38.05794341619870   -2.46283e-08   2.69103e-06 DIIS
   @ROHF iter  20:   -38.05794341795268   -1.75397e-09   4.46323e-07 DIIS
   @ROHF iter  21:   -38.05794341798804   -3.53566e-11   6.77173e-08 DIIS
   @ROHF iter  22:   -38.05794341798915   -1.11555e-12   1.30607e-08 DIIS
   @ROHF iter  23:   -38.05794341798915    0.00000e+00   2.66987e-09 DIIS
   @ROHF iter  24:   -38.05794341798918   -2.84217e-14   4.89496e-10 DIIS
   @ROHF iter  25:   -38.05794341798919   -1.42109e-14   4.25045e-11 DIIS
   @ROHF iter  26:   -38.05794341798919    7.10543e-15   6.95986e-12 DIIS

  ==> Post-Iterations <==

    Orbital Energies (a.u.)
    -----------------------

    Doubly Occupied:                                                      

       1A1   -11.554170     2A1    -1.008774     1B1    -0.722917  
       2B1    -0.030674  

    Singly Occupied:                                                      

    

    Virtual:                                                              

       3A1    -0.189597     1B2    -0.095943     4A1     0.153254  
       3B1     0.499711     5A1     0.550279     2B2     0.572953  
       6A1     0.699089     4B1     0.710024     7A1     0.902500  
       8A1     1.062167     1A2     1.087271     3B2     1.124598  
       9A1     1.583434     5B1     1.693582     6B1     1.778546  
       2A2     1.896786     4B2     1.930368    10A1     2.184775  
      11A1     2.556940     7B1     2.604807  

    Final Occupation by Irrep:
             A1    A2    B1    B2 
    DOCC [     2,    0,    2,    0 ]
    SOCC [     0,    0,    0,    0 ]

  Energy converged.

  @ROHF Final Energy:   -38.05794341798919

   => Energetics <=

    Nuclear Repulsion Energy =              5.9912725579610653
    One-Electron Energy =                 -61.4653622030131572
    Two-Electron Energy =                  17.4161462270628995
    DFT Exchange-Correlation Energy =       0.0000000000000000
    Empirical Dispersion Energy =           0.0000000000000000
    PCM Polarization Energy =               0.0000000000000000
    EFP Energy =                            0.0000000000000000
    Total Energy =                        -38.0579434179891933

    Alert: EFP and PCM quantities not currently incorporated into SCF psivars.

Properties will be evaluated at   0.000000,   0.000000,   0.000000 Bohr
  ==> Properties <==


Properties computed using the SCF density matrix

  Nuclear Dipole Moment: (a.u.)
     X:     0.0000      Y:     0.0000      Z:     1.1231

  Electronic Dipole Moment: (a.u.)
     X:     0.0000      Y:     0.0000      Z:    -3.2453

  Dipole Moment: (a.u.)
     X:     0.0000      Y:     0.0000      Z:    -2.1222     Total:     2.1222

  Dipole Moment: (Debye)
     X:     0.0000      Y:     0.0000      Z:    -5.3940     Total:     5.3940


  Saving occupied orbitals to File 180.

*** tstop() called on dhcp189-14.emerson.emory.edu at Mon Jan 18 13:15:25 2016
Module time:
	user time   =       0.36 seconds =       0.01 minutes
	system time =       0.02 seconds =       0.00 minutes
	total time  =          0 seconds =       0.00 minutes
Total time:
	user time   =       0.36 seconds =       0.01 minutes
	system time =       0.02 seconds =       0.00 minutes
	total time  =          0 seconds =       0.00 minutes
Reading options from the FORTE block
Calling plugin /Users/jeffschriber/src/forte/forte.so.


  ==> MO Space Information <==

  -------------------------------------------------
                       A1    A2    B1    B2   Sum
  -------------------------------------------------
    FROZEN_DOCC         0     0     0     0     0
    RESTRICTED_DOCC     0     0     0     0     0
    ACTIVE             11     2     7     4    24
    RESTRICTED_UOCC     0     0     0     0     0
    FROZEN_UOCC         0     0     0     0     0
    Total              11     2     7     4    24
  -------------------------------------------------

  ==> Integral Transformation <==

  Number of molecular orbitals:               24
  Number of correlated molecular orbitals:    24
  Number of frozen occupied orbitals:          0
  Number of frozen unoccupied orbitals:        0


  Overall Conventional Integrals timings

	Presorting SO-basis two-electron integrals.
	Sorting File: SO Ints (nn|nn) nbuckets = 1
	Transforming the one-electron integrals and constructing Fock matrices
	Starting first half-transformation.
	Sorting half-transformed integrals.
	First half integral transformation complete.
	Starting second half-transformation.
	Two-electron integral transformation complete.

  Integral transformation done. 0.01648700 s
  Reading the two-electron integrals from disk
  Size of two-electron integrals:   0.007416 GB
  Conventional integrals take 0.03590200 s

                    ---------------------------------------
                      Adaptive Configuration Interaction
                      written by Francesco A. Evangelista
                    ---------------------------------------

  Using ROHF reference.

  ==> Reference Information <==

  There are 0 frozen orbitals.
  There are 24 active orbitals.

  |222000000000020000000000>
  REFERNECE ENERGY:         -38.782988990255
  ==> Calculation Information <==

  -----------------------------------------------------------------
    Multiplicity                             1    
    Symmetry                                 0    
    Number of roots                          1    
    Root used for properties                 0    
    P-threshold                              5.00e-02
    Q-threshold                              5.00e-02
    Convergence threshold                    1.00e-11
    Determinant selection criterion          Second-order Energy
    Selection criterion                      Aimed selection
    PQ Function                              AVERAGE
    Q Type                                   Absolute Energy
    PT2 Parameters                           False
    Project out spin contaminants            True
    Enforce spin completeness of basis       True
    Enforce complete aimed selection         True
  -----------------------------------------------------------------
  Using streamlined Q-space builder.

  ==> Cycle 0 <==

  Initial P space dimension: 1
  Spin-complete dimension of the P space: 1 determinants
  Time spent diagonalizing H:   0.000061
  Not performing spin projection.

    P-space  CI Energy Root   1        = -38.782988990255 Eh =   0.0000 eV

  Dimension of the SD space: 2568 determinants
  Time spent building the model space: 0.007615 s

  Dimension of the P + Q space: 168 determinants
  Time spent screening the model space: 0.008947 s
  Spin-complete dimension of the PQ space: 225

  Davidson-liu solver algorithm
  Generating determinants with N-1 electrons.

  Generating determinants with N-2 electrons.

  Memory for singles: 0.017166 MB
  Memory for doubles: 0.072098 MB
  number of guess vectors: 2
  Initial guess space is incomplete.
  Trying to add 3 determinant(s).  3 determinant(s) added.
  Initial guess found 13 solutions with 2S+1 = 1 *
  Initial guess found 9 solutions with 2S+1 = 3  
  Initial guess found 1 solutions with 2S+1 = 5  
  Adding guess 0 (multiplicity = 1.000000)
  Adding guess 1 (multiplicity = 1.000000)

  ==> Diagonalizing Hamiltonian <==

  ----------------------------------------
    Iter.      Avg. Energy       Delta_E
  ----------------------------------------
      1      -44.863434913936  -4.486e+01
      2      -44.952115403094  -8.868e-02
      3      -44.959406749907  -7.291e-03
      4      -44.959896869739  -4.901e-04
      5      -44.959939330018  -4.246e-05
      6      -44.959945225751  -5.896e-06
      7      -44.959946235913  -1.010e-06
      8      -44.959946339966  -1.041e-07
      9      -44.959946351885  -1.192e-08
     10      -44.959946353730  -1.845e-09
     11      -44.959946354048  -3.181e-10
     12      -44.959946354086  -3.783e-11
     13      -44.959946354091  -4.640e-12
  ----------------------------------------
  The Davidson-Liu algorithm converged in 14 iterations.
  Time spent diagonalizing H:   0.122565
  Not performing spin projection.

    PQ-space CI Energy Root   1        = -38.968673796130 Eh =   0.0000 eV
    PQ-space CI Energy + EPT2 Root   1 = -39.018581810534 Eh =   0.0000 eV

  Added 1 missing determinants in aimed selection.

  Most important contributions to root   0:
    0  -0.932812 0.870138282           0 |222000000000020000000000>
    1   0.169742 0.028812343         166 |2220000000000-+000000000>
    2   0.169742 0.028812343         167 |2220000000000+-000000000>
    3   0.091209 0.008319102         162 |220000000000020000002000>
    4   0.078112 0.006101470         164 |2220000000000-00+0000000>
    5   0.078112 0.006101470         165 |2220000000000+00-0000000>
    6   0.055079 0.003033656         160 |2+2-00000000020000000000>
    7   0.055079 0.003033656         159 |2-2+00000000020000000000>
    8   0.054508 0.002971120         161 |202000000000020000002000>
    9   0.046339 0.002147278         163 |220020000000020000000000>

  Spin state for root 0: S^2 = 0.000, S = 0.000, singlet (from 225 determinants, 100.00)

  ==> Cycle 1 <==

  Initial P space dimension: 8
  Spin-complete dimension of the P space: 8 determinants
  Time spent diagonalizing H:   0.000273
  Not performing spin projection.

    P-space  CI Energy Root   1        = -38.881772060036 Eh =   0.0000 eV

  Dimension of the SD space: 14622 determinants
  Time spent building the model space: 0.062736 s

  Dimension of the P + Q space: 174 determinants
  Time spent screening the model space: 0.057459 s
  Spin-complete dimension of the PQ space: 242

  Davidson-liu solver algorithm
  Generating determinants with N-1 electrons.

  Generating determinants with N-2 electrons.

  Memory for singles: 0.018463 MB
  Memory for doubles: 0.077545 MB
  number of guess vectors: 2
  Initial guess space is incomplete.
  Trying to add 1 determinant(s).  1 determinant(s) added.
  Initial guess found 12 solutions with 2S+1 = 1 *
  Initial guess found 8 solutions with 2S+1 = 3  
  Initial guess found 1 solutions with 2S+1 = 5  
  Adding guess 0 (multiplicity = 1.000000)
  Adding guess 1 (multiplicity = 1.000000)

  ==> Diagonalizing Hamiltonian <==

  ----------------------------------------
    Iter.      Avg. Energy       Delta_E
  ----------------------------------------
      1      -44.864744862208  -4.486e+01
      2      -44.958650688643  -9.391e-02
      3      -44.963993616322  -5.343e-03
      4      -44.964368355575  -3.747e-04
      5      -44.964399634972  -3.128e-05
      6      -44.964404268950  -4.634e-06
      7      -44.964405097286  -8.283e-07
      8      -44.964405183906  -8.662e-08
      9      -44.964405193058  -9.152e-09
     10      -44.964405194568  -1.510e-09
     11      -44.964405194844  -2.761e-10
     12      -44.964405194875  -3.125e-11
     13      -44.964405194879  -3.460e-12
  ----------------------------------------
  The Davidson-Liu algorithm converged in 14 iterations.
  Time spent diagonalizing H:   0.104231
  Not performing spin projection.

    PQ-space CI Energy Root   1        = -38.973132636918 Eh =   0.0000 eV
    PQ-space CI Energy + EPT2 Root   1 = -39.023124185877 Eh =   0.0000 eV

  Added 1 missing determinants in aimed selection.

  Most important contributions to root   0:
    0   0.929361 0.863712439           6 |222000000000020000000000>
    1  -0.172607 0.029793092           5 |2220000000000-+000000000>
    2  -0.172607 0.029793092           4 |2220000000000+-000000000>
    3  -0.113030 0.012775717           3 |220000000000020000002000>
    4  -0.078001 0.006084088           2 |2220000000000-00+0000000>
    5  -0.078001 0.006084088           1 |2220000000000+00-0000000>
    6  -0.055385 0.003067501           7 |2-2+00000000020000000000>
    7  -0.055385 0.003067501           0 |2+2-00000000020000000000>
    8  -0.052406 0.002746430         172 |202000000000020000002000>
    9  -0.047733 0.002278457         173 |220020000000020000000000>

  Spin state for root 0: S^2 = 0.000, S = 0.000, singlet (from 242 determinants, 100.00)

  ==> Cycle 2 <==

  Initial P space dimension: 8
  Spin-complete dimension of the P space: 8 determinants
  Time spent diagonalizing H:   0.000287
  Not performing spin projection.

    P-space  CI Energy Root   1        = -38.881772060036 Eh =   0.0000 eV

  Dimension of the SD space: 14622 determinants
  Time spent building the model space: 0.065427 s

  Dimension of the P + Q space: 174 determinants
  Time spent screening the model space: 0.052575 s
  Spin-complete dimension of the PQ space: 242

  Davidson-liu solver algorithm
  Generating determinants with N-1 electrons.

  Generating determinants with N-2 electrons.

  Memory for singles: 0.018463 MB
  Memory for doubles: 0.077545 MB
  number of guess vectors: 2
  Initial guess space is incomplete.
  Trying to add 1 determinant(s).  1 determinant(s) added.
  Initial guess found 12 solutions with 2S+1 = 1 *
  Initial guess found 8 solutions with 2S+1 = 3  
  Initial guess found 1 solutions with 2S+1 = 5  
  Adding guess 0 (multiplicity = 1.000000)
  Adding guess 1 (multiplicity = 1.000000)

  ==> Diagonalizing Hamiltonian <==

  ----------------------------------------
    Iter.      Avg. Energy       Delta_E
  ----------------------------------------
      1      -44.864744862208  -4.486e+01
      2      -44.958650688643  -9.391e-02
      3      -44.963993616322  -5.343e-03
      4      -44.964368355575  -3.747e-04
      5      -44.964399634971  -3.128e-05
      6      -44.964404268950  -4.634e-06
      7      -44.964405097286  -8.283e-07
      8      -44.964405183906  -8.662e-08
      9      -44.964405193058  -9.152e-09
     10      -44.964405194568  -1.510e-09
     11      -44.964405194844  -2.760e-10
     12      -44.964405194875  -3.125e-11
     13      -44.964405194879  -3.460e-12
  ----------------------------------------
  The Davidson-Liu algorithm converged in 14 iterations.
  Time spent diagonalizing H:   0.104668
  Not performing spin projection.

    PQ-space CI Energy Root   1        = -38.973132636918 Eh =   0.0000 eV
    PQ-space CI Energy + EPT2 Root   1 = -39.023124185877 Eh =   0.0000 eV

  ***** Calculation Converged *****
  Not performing spin projection.
  Computing RDMS
  Number of active alpha electrons: 4
  Number of active beta electrons: 4
  Number of correlated orbitals: 24

  Generating one-particle maps.
  Time spent forming 1-map:   0.002475
  Time spent building 1-rdm:   0.000139
  1-RDM  took 0.002627 s

  ==> ACI Summary <==

  Iterations required:                         2
  Dimension of optimized determinant space:    242

  * Adaptive-CI Energy Root   1        = -38.973132636918 Eh =   0.0000 eV
  * Adaptive-CI Energy Root   1 + EPT2 = -39.023124185877 Eh =   0.0000 eV

  ==> Wavefunction Information <==

  Most important contributions to root   0:
    0   0.929361 0.863712439           6 |222000000000020000000000>
    1  -0.172607 0.029793092           5 |2220000000000-+000000000>
    2  -0.172607 0.029793092           4 |2220000000000+-000000000>
    3  -0.113030 0.012775717           3 |220000000000020000002000>
    4  -0.078001 0.006084088           1 |2220000000000+00-0000000>
    5  -0.078001 0.006084088           2 |2220000000000-00+0000000>
    6  -0.055385 0.003067501           7 |2+2-00000000020000000000>
    7  -0.055385 0.003067501           0 |2-2+00000000020000000000>
    8  -0.052406 0.002746430         172 |202000000000020000002000>
    9  -0.047733 0.002278457         173 |220020000000020000000000>

  Spin state for root 0: S^2 = 0.000, S = 0.000, singlet (from 242 determinants, 100.00)

     Order		 # of Dets        Total |c^2|   
  __________ 	____________   ________________ 
       0                  1           0.86371243940
       1                 18           0.08462161144
       2                217           0.05031922776
       3                  6           0.00134672140

  Highest-order excitation searched:     6  


  Adaptive-CI (bitset) ran in : 0.886817 s

  Saving information for root: 1

  Your calculation took 1.05747700 seconds

*** PSI4 exiting successfully. Buy a developer a beer!
