
    -----------------------------------------------------------------------
          Psi4: An Open-Source Ab Initio Electronic Structure Package
                               Psi4 1.2a1.dev388 

                         Git: Rev {parallel_timer} df084d7 dirty


    R. M. Parrish, L. A. Burns, D. G. A. Smith, A. C. Simmonett,
    A. E. DePrince III, E. G. Hohenstein, U. Bozkaya, A. Yu. Sokolov,
    R. Di Remigio, R. M. Richard, J. F. Gonthier, A. M. James,
    H. R. McAlexander, A. Kumar, M. Saitow, X. Wang, B. P. Pritchard,
    P. Verma, H. F. Schaefer III, K. Patkowski, R. A. King, E. F. Valeev,
    F. A. Evangelista, J. M. Turney, T. D. Crawford, and C. D. Sherrill,
    J. Chem. Theory Comput. in press (2017).
    (doi: 10.1021/acs.jctc.7b00174)

    -----------------------------------------------------------------------


    Psi4 started on: Monday, 10 July 2017 06:24PM

    Process ID:  56937
    PSIDATADIR: /Users/tianyuanzhang/Documents/Source/psi4_2017/psi4-bin-clang-debug/share/psi4
    Memory:     500.0 MiB
    Threads:    1
    
  ==> Input File <==

--------------------------------------------------------------------------
#! This tests the Adaptive Path-Integral FCI procedure with initiator approximation
#! Generated using commit GITCOMMIT

import forte

refscf = -1.11317721661752 #TEST
refpci = -1.145796367592 #TEST

molecule H2{
   H
   H 1 0.62
}

set {
  basis cc-pVDZ
  scf_type pk
  e_convergence 12
}

set forte {
  job_type pci_hashvec
  pci_nroot 1
  charge 0
  pci_spawning_threshold 0.0
  pci_GUESS_SPAWNING_THRESHOLD 1.
  pci_ENERGY_ESTIMATE_FREQ 1
  pci_FAST_EVAR true
  pci_ENERGY_ESTIMATE_THRESHOLD 0.0
  pci_GENERATOR wall-Chebyshev
  pci_Chebyshev_order 5
  pci_maxbeta 100000.00
  pci_e_convergence 12
}

energy('scf')
compare_values(refscf, get_variable("CURRENT ENERGY"), 11, "SCF energy") #TEST

energy('forte')
compare_values(refpci, get_variable("PCI ENERGY"), 11, "PCI energy") #TEST
--------------------------------------------------------------------------
/Users/tianyuanzhang/Documents/Source/psi4_2017/forte/forte.so loaded.

*** tstart() called on n-ac-90-21.wireless.emory.edu
*** at Mon Jul 10 18:24:42 2017

   => Loading Basis Set <=

    Name: CC-PVDZ
    Role: ORBITAL
    Keyword: BASIS
    atoms 1-2 entry H          line    22 file /Users/tianyuanzhang/Documents/Source/psi4_2017/psi4-bin-clang-debug/share/psi4/basis/cc-pvdz.gbs 

    There are an even number of electrons - assuming singlet.
    Specify the multiplicity in the molecule input block.


         ---------------------------------------------------------
                                   SCF
            by Justin Turney, Rob Parrish, Andy Simmonett
                             and Daniel Smith
                              RHF Reference
                        1 Threads,    500 MiB Core
         ---------------------------------------------------------

  ==> Geometry <==

    Molecular point group: d2h
    Full point group: D_inf_h

    Geometry (in Angstrom), charge = 0, multiplicity = 1:

       Center              X                  Y                   Z               Mass       
    ------------   -----------------  -----------------  -----------------  -----------------
           H          0.000000000000     0.000000000000    -0.310000000000     1.007825032070
           H          0.000000000000     0.000000000000     0.310000000000     1.007825032070

  Running in d2h symmetry.

  Rotational constants: A = ************  B =     87.02779  C =     87.02779 [cm^-1]
  Rotational constants: A = ************  B = 2609027.58967  C = 2609027.58967 [MHz]
  Nuclear repulsion =    0.853511626758064

  Charge       = 0
  Multiplicity = 1
  Electrons    = 2
  Nalpha       = 1
  Nbeta        = 1

  ==> Algorithm <==

  SCF Algorithm Type is PK.
  DIIS enabled.
  MOM disabled.
  Fractional occupation disabled.
  Guess Type is SAD.
  Energy threshold   = 1.00e-12
  Density threshold  = 1.00e-06
  Integral threshold = 0.00e+00

  ==> Primary Basis <==

  Basis Set: CC-PVDZ
    Blend: CC-PVDZ
    Number of shells: 6
    Number of basis function: 10
    Number of Cartesian functions: 10
    Spherical Harmonics?: true
    Max angular momentum: 1

  ==> Pre-Iterations <==

   -------------------------------------------------------
    Irrep   Nso     Nmo     Nalpha   Nbeta   Ndocc  Nsocc
   -------------------------------------------------------
     Ag         3       3       0       0       0       0
     B1g        0       0       0       0       0       0
     B2g        1       1       0       0       0       0
     B3g        1       1       0       0       0       0
     Au         0       0       0       0       0       0
     B1u        3       3       0       0       0       0
     B2u        1       1       0       0       0       0
     B3u        1       1       0       0       0       0
   -------------------------------------------------------
    Total      10      10       1       1       1       0
   -------------------------------------------------------

  ==> Integral Setup <==

  Using in-core PK algorithm.
   Calculation information:
      Number of atoms:                   2
      Number of AO shells:               6
      Number of primitives:             10
      Number of atomic orbitals:        10
      Number of basis functions:        10

      Integral cutoff                 1.00e-12
      Number of threads:                 1

  Performing in-core PK
  Using 3080 doubles for integral storage.
  We computed 231 shell quartets total.
  Whereas there are 231 unique shell quartets.
  ==> DiskJK: Disk-Based J/K Matrices <==

    J tasked:                  Yes
    K tasked:                  Yes
    wK tasked:                  No
    Memory (MB):               375
    Schwarz Cutoff:          1E-12

    OpenMP threads:              1
  Minimum eigenvalue in the overlap matrix is 2.2441131803E-02.
  Using Symmetric Orthogonalization.

  SCF Guess: Superposition of Atomic Densities via on-the-fly atomic UHF.

  ==> Iterations <==

                        Total Energy        Delta E     RMS |[F,P]|

   @RHF iter   0:    -0.84398691458114   -8.43987e-01   4.91052e-02 
   @RHF iter   1:    -1.11127558806541   -2.67289e-01   8.96963e-03 
   @RHF iter   2:    -1.11311489621395   -1.83931e-03   1.57673e-03 DIIS
   @RHF iter   3:    -1.11317712895317   -6.22327e-05   7.99006e-05 DIIS
   @RHF iter   4:    -1.11317721657903   -8.76259e-08   1.26032e-06 DIIS
   @RHF iter   5:    -1.11317721661752   -3.84919e-11   1.10029e-09 DIIS
   @RHF iter   6:    -1.11317721661752    4.44089e-16   2.05288e-12 DIIS

  ==> Post-Iterations <==

    Orbital Energies (a.u.)
    -----------------------

    Doubly Occupied:                                                      

       1Ag    -0.631641  

    Virtual:                                                              

       1B1u    0.219233     2Ag     0.450304     2B1u    1.037790  
       1B3u    1.310066     1B2u    1.310066     3Ag     2.062763  
       1B3g    2.124688     1B2g    2.124688     3B1u    4.593655  

    Final Occupation by Irrep:
             Ag   B1g   B2g   B3g    Au   B1u   B2u   B3u 
    DOCC [     1,    0,    0,    0,    0,    0,    0,    0 ]

  Energy converged.

  @RHF Final Energy:    -1.11317721661752

   => Energetics <=

    Nuclear Repulsion Energy =              0.8535116267580645
    One-Electron Energy =                  -2.6700960568401748
    Two-Electron Energy =                   0.7034072134645889
    Total Energy =                         -1.1131772166175216



Properties will be evaluated at   0.000000,   0.000000,   0.000000 Bohr

Properties computed using the SCF density matrix

  Nuclear Dipole Moment: (a.u.)
     X:     0.0000      Y:     0.0000      Z:     0.0000

  Electronic Dipole Moment: (a.u.)
     X:     0.0000      Y:     0.0000      Z:     0.0000

  Dipole Moment: (a.u.)
     X:     0.0000      Y:     0.0000      Z:     0.0000     Total:     0.0000

  Dipole Moment: (Debye)
     X:     0.0000      Y:     0.0000      Z:     0.0000     Total:     0.0000


*** tstop() called on n-ac-90-21.wireless.emory.edu at Mon Jul 10 18:24:43 2017
Module time:
	user time   =       0.50 seconds =       0.01 minutes
	system time =       0.02 seconds =       0.00 minutes
	total time  =          1 seconds =       0.02 minutes
Total time:
	user time   =       0.50 seconds =       0.01 minutes
	system time =       0.02 seconds =       0.00 minutes
	total time  =          1 seconds =       0.02 minutes
	SCF energy........................................................PASSED

*** tstart() called on n-ac-90-21.wireless.emory.edu
*** at Mon Jul 10 18:24:43 2017

   => Loading Basis Set <=

    Name: CC-PVDZ
    Role: ORBITAL
    Keyword: BASIS
    atoms 1-2 entry H          line    22 file /Users/tianyuanzhang/Documents/Source/psi4_2017/psi4-bin-clang-debug/share/psi4/basis/cc-pvdz.gbs 


         ---------------------------------------------------------
                                   SCF
            by Justin Turney, Rob Parrish, Andy Simmonett
                             and Daniel Smith
                              RHF Reference
                        1 Threads,    500 MiB Core
         ---------------------------------------------------------

  ==> Geometry <==

    Molecular point group: d2h
    Full point group: D_inf_h

    Geometry (in Angstrom), charge = 0, multiplicity = 1:

       Center              X                  Y                   Z               Mass       
    ------------   -----------------  -----------------  -----------------  -----------------
           H          0.000000000000     0.000000000000    -0.310000000000     1.007825032070
           H          0.000000000000     0.000000000000     0.310000000000     1.007825032070

  Running in d2h symmetry.

  Rotational constants: A = ************  B =     87.02779  C =     87.02779 [cm^-1]
  Rotational constants: A = ************  B = 2609027.58967  C = 2609027.58967 [MHz]
  Nuclear repulsion =    0.853511626758064

  Charge       = 0
  Multiplicity = 1
  Electrons    = 2
  Nalpha       = 1
  Nbeta        = 1

  ==> Algorithm <==

  SCF Algorithm Type is PK.
  DIIS enabled.
  MOM disabled.
  Fractional occupation disabled.
  Guess Type is SAD.
  Energy threshold   = 1.00e-12
  Density threshold  = 1.00e-08
  Integral threshold = 0.00e+00

  ==> Primary Basis <==

  Basis Set: CC-PVDZ
    Blend: CC-PVDZ
    Number of shells: 6
    Number of basis function: 10
    Number of Cartesian functions: 10
    Spherical Harmonics?: true
    Max angular momentum: 1

  ==> Pre-Iterations <==

   -------------------------------------------------------
    Irrep   Nso     Nmo     Nalpha   Nbeta   Ndocc  Nsocc
   -------------------------------------------------------
     Ag         3       3       0       0       0       0
     B1g        0       0       0       0       0       0
     B2g        1       1       0       0       0       0
     B3g        1       1       0       0       0       0
     Au         0       0       0       0       0       0
     B1u        3       3       0       0       0       0
     B2u        1       1       0       0       0       0
     B3u        1       1       0       0       0       0
   -------------------------------------------------------
    Total      10      10       1       1       1       0
   -------------------------------------------------------

  ==> Integral Setup <==

  Using in-core PK algorithm.
   Calculation information:
      Number of atoms:                   2
      Number of AO shells:               6
      Number of primitives:             10
      Number of atomic orbitals:        10
      Number of basis functions:        10

      Integral cutoff                 1.00e-12
      Number of threads:                 1

  Performing in-core PK
  Using 3080 doubles for integral storage.
  We computed 231 shell quartets total.
  Whereas there are 231 unique shell quartets.
  ==> DiskJK: Disk-Based J/K Matrices <==

    J tasked:                  Yes
    K tasked:                  Yes
    wK tasked:                  No
    Memory (MB):               375
    Schwarz Cutoff:          1E-12

    OpenMP threads:              1
  Minimum eigenvalue in the overlap matrix is 2.2441131803E-02.
  Using Symmetric Orthogonalization.

  SCF Guess: Superposition of Atomic Densities via on-the-fly atomic UHF.

  ==> Iterations <==

                        Total Energy        Delta E     RMS |[F,P]|

   @RHF iter   0:    -0.84398691458114   -8.43987e-01   4.91052e-02 
   @RHF iter   1:    -1.11127558806541   -2.67289e-01   8.96963e-03 
   @RHF iter   2:    -1.11311489621395   -1.83931e-03   1.57673e-03 DIIS
   @RHF iter   3:    -1.11317712895317   -6.22327e-05   7.99006e-05 DIIS
   @RHF iter   4:    -1.11317721657903   -8.76259e-08   1.26032e-06 DIIS
   @RHF iter   5:    -1.11317721661752   -3.84919e-11   1.10029e-09 DIIS
   @RHF iter   6:    -1.11317721661752    4.44089e-16   2.05288e-12 DIIS

  ==> Post-Iterations <==

    Orbital Energies (a.u.)
    -----------------------

    Doubly Occupied:                                                      

       1Ag    -0.631641  

    Virtual:                                                              

       1B1u    0.219233     2Ag     0.450304     2B1u    1.037790  
       1B2u    1.310066     1B3u    1.310066     3Ag     2.062763  
       1B3g    2.124688     1B2g    2.124688     3B1u    4.593655  

    Final Occupation by Irrep:
             Ag   B1g   B2g   B3g    Au   B1u   B2u   B3u 
    DOCC [     1,    0,    0,    0,    0,    0,    0,    0 ]

  Energy converged.

  @RHF Final Energy:    -1.11317721661752

   => Energetics <=

    Nuclear Repulsion Energy =              0.8535116267580645
    One-Electron Energy =                  -2.6700960568401748
    Two-Electron Energy =                   0.7034072134645889
    Total Energy =                         -1.1131772166175216



Properties will be evaluated at   0.000000,   0.000000,   0.000000 Bohr

Properties computed using the SCF density matrix

  Nuclear Dipole Moment: (a.u.)
     X:     0.0000      Y:     0.0000      Z:     0.0000

  Electronic Dipole Moment: (a.u.)
     X:     0.0000      Y:     0.0000      Z:     0.0000

  Dipole Moment: (a.u.)
     X:     0.0000      Y:     0.0000      Z:     0.0000     Total:     0.0000

  Dipole Moment: (Debye)
     X:     0.0000      Y:     0.0000      Z:     0.0000     Total:     0.0000


*** tstop() called on n-ac-90-21.wireless.emory.edu at Mon Jul 10 18:24:43 2017
Module time:
	user time   =       0.48 seconds =       0.01 minutes
	system time =       0.02 seconds =       0.00 minutes
	total time  =          0 seconds =       0.00 minutes
Total time:
	user time   =       1.01 seconds =       0.02 minutes
	system time =       0.04 seconds =       0.00 minutes
	total time  =          1 seconds =       0.02 minutes
   => Loading Basis Set <=

    Name: STO-3G
    Role: ORBITAL
    Keyword: MINAO_BASIS
    atoms 1-2 entry H          line    19 file /Users/tianyuanzhang/Documents/Source/psi4_2017/psi4-bin-clang-debug/share/psi4/basis/sto-3g.gbs 


Reading options from the FORTE block
Calling plugin forte.so.



  Forte
  ----------------------------------------------------------------------------
  A suite of quantum chemistry methods for strongly correlated electrons

    git branch: master - git commit: 63976f22

  Developed by:
    Francesco A. Evangelista, Chenyang Li, Kevin P. Hannon,
    Jeffrey B. Schriber, Tianyuan Zhang, Chenxi Cai
  ----------------------------------------------------------------------------


  ==> MO Space Information <==

  -------------------------------------------------------------------------
                       Ag   B1g   B2g   B3g    Au   B1u   B2u   B3u   Sum
  -------------------------------------------------------------------------
    FROZEN_DOCC         0     0     0     0     0     0     0     0     0
    RESTRICTED_DOCC     0     0     0     0     0     0     0     0     0
    ACTIVE              3     0     1     1     0     3     1     1    10
    RESTRICTED_UOCC     0     0     0     0     0     0     0     0     0
    FROZEN_UOCC         0     0     0     0     0     0     0     0     0
    Total               3     0     1     1     0     3     1     1    10
  -------------------------------------------------------------------------

  ==> Integral Transformation <==

  Number of molecular orbitals:               10
  Number of correlated molecular orbitals:    10
  Number of frozen occupied orbitals:          0
  Number of frozen unoccupied orbitals:        0

    Molecular point group: d2h
    Full point group: D_inf_h

    Geometry (in Angstrom), charge = 0, multiplicity = 1:

       Center              X                  Y                   Z               Mass       
    ------------   -----------------  -----------------  -----------------  -----------------
           H          0.000000000000     0.000000000000    -0.310000000000     1.007825032070
           H          0.000000000000     0.000000000000     0.310000000000     1.007825032070

  -AO BASIS SET INFORMATION:
    Name                   = CC-PVDZ
    Blend                  = CC-PVDZ
    Total number of shells = 6
    Number of primitives   = 10
    Number of AO           = 10
    Number of SO           = 10
    Maximum AM             = 1
    Spherical Harmonics    = TRUE

  -Contraction Scheme:
    Atom   Type   All Primitives // Shells:
   ------ ------ --------------------------
       1     H     4s 1p // 2s 1p 
       2     H     4s 1p // 2s 1p 

  ==> AO Basis Functions <==

    [ CC-PVDZ ]
    spherical
    ****
    H   1
    S   3 1.00
                        13.01000000           0.01968500
                         1.96200000           0.13797700
                         0.44460000           0.47814800
    S   1 1.00
                         0.12200000           1.00000000
    P   1 1.00
                         0.72700000           1.00000000
    ****


  Overall Conventional Integrals timings

	Presorting SO-basis two-electron integrals.
	Sorting File: SO Ints (nn|nn) nbuckets = 1
	Transforming the one-electron integrals and constructing Fock matrices
	Starting first half-transformation.
	Sorting half-transformed integrals.
	First half integral transformation complete.
	Starting second half-transformation.
	Two-electron integral transformation complete.

  Integral transformation done. 0.00583400 s
  Reading the two-electron integrals from disk
  Size of two-electron integrals:   0.000224 GB
  Conventional integrals take 0.04144000 s

	  ---------------------------------------------------------
	    Projector Configuration Interaction HashVector implementation
	         by Francesco A. Evangelista and Tianyuan Zhang
	                      version Jun. 29 2017
	                       1 thread(s) 
	  ---------------------------------------------------------

  ==> Calculation Information <==

    Symmetry                                         0
    Multiplicity                                     1
    Number of roots                                  1
    Root used for properties                         0
    Maximum number of iterations                100000
    Energy estimation frequency                      1
    Number of threads                                1
    Time step (beta)                         1.000e+00
    Spawning threshold                       0.000e+00
    Initial guess spawning threshold         1.000e+00
    Convergence threshold                    1.000e-12
    Energy estimate tollerance               0.000e+00
    Generator type                          Wall-Chebyshev
    Shift the energy                                NO
    Use intermediate normalization                  NO
    Fast variational estimate                      YES
    Result perturbation analysis                    NO
    Using OpenMP                                    NO

  ==> Initial Guess <==      -1.113177216618 -1.113e+00

  Initial guess size = 1
  Found 1 roots with 2S+1 = 1 *

  Initial guess energy (variational) =      -1.113177216618 Eh (root = 1)

  Most important contributions to the wave function:

    0              1             1           0 |2000000000>     -1.966688843376

  Spin State: S^2 = 0.000, S = 0.000, singlet (from 1 determinants,100.00)

  ==> Estimate highest excitation energy <==
  Highest Excited determinant:
  |0000000200>
  Determinant Energy                    :  8.124277998437
  Highest Energy Gershgorin circle Est. :  8.875328177471

  ==> Characteristic Function <==
    f(x) = -1.029906e-02 * x^5 +2.571804e-02 * x^4 +2.568848e-01 * x^3 -4.811054e-01 * x^2 -1.201381e+00 * x +1.000000e+00
    with tau = 1.000000e+00, shift = 3.027563853668, range = 4.994252697044
    Initial guess: lambda_1= -1.113177216618
    Est. Highest eigenvalue=  8.875328177471

  ==> PCI Iterations <==

  ------------------------------------------------------------------------------------------------
    Steps  Beta/Eh      Ndets     Proj. Energy/Eh     dEp/dt      Approx. Energy/Eh   dEv/dt
  ------------------------------------------------------------------------------------------------
        0     0.00         22      -1.149001726618 -3.582e-02      -1.145172831654 -3.200e-02
        1     1.00         22      -1.145533535972  3.468e-03      -1.145782583221 -6.098e-04
        2     2.00         22      -1.145867485819 -3.339e-04      -1.145795839838 -1.326e-05
        3     3.00         22      -1.145784913631  8.257e-05      -1.145796345391 -5.056e-07
        4     4.00         22      -1.145799012742 -1.410e-05      -1.145796366635 -2.124e-08
        5     5.00         22      -1.145795861860  3.151e-06      -1.145796367552 -9.174e-10
        6     6.00         22      -1.145796476694 -6.148e-07      -1.145796367592 -3.997e-11
        7     7.00         22      -1.145796345514  1.312e-07      -1.145796367594 -1.750e-12
        8     8.00         22      -1.145796372247 -2.673e-08      -1.145796367594 -7.461e-14
        9     9.00         22      -1.145796366634  5.613e-09
  ------------------------------------------------------------------------------------------------

  Calculation converged.

  ==> Post-Iterations <==

  * Size of CI space                    = 22
  * Projector-CI Approximate Energy     =    -1.145796367594 Eh
  Variational energy estimated with 22 determinants to meet the max error 0.000000e+00
  * Projector-CI Projective  Energy     =    -1.145796366634 Eh

  * Projector-CI Variational Energy     =    -1.145796367594 Eh
  * Projector-CI Var. Corr.  Energy     =    -0.032619150977 Eh
  * 1st order perturbation   Energy     =    -0.000000000000 Eh

  Projector-CI (bitset) ran in  : 0.030743 s

  Most important contributions to the wave function:

    0       0.993095      0.986237           0 |2000000000>     -1.966688843376
    1     -0.0505026    0.00255051           7 |0000002000>      0.465430647836
    2     -0.0486604    0.00236784           8 |0200000000>     -0.397745116504
    3     -0.0421031    0.00177267           6 |0000000020>      0.893715722862
    4     -0.0421031    0.00177267           5 |0000000002>      0.893715722862
    5     -0.0381598    0.00145617          12 |00000+-000>     -0.186631585972
    6     -0.0381598    0.00145617          11 |00000-+000>     -0.186631585972
    7     -0.0370655    0.00137385          17 |0000020000>     -0.652883884307
    8      0.0139536   0.000194703          18 |0-+0000000>      0.910192241632
    9      0.0139536   0.000194703          19 |0+-0000000>      0.910192241632

  Spin State: S^2 = 0.000, S = 0.000, singlet (from 1 determinants,98.62)

  Your calculation took 0.08626900 seconds
	PCI energy........................................................PASSED

*** Psi4 exiting successfully. Buy a developer a beer!
