
Host: Shuhe.Wang

Timers On : Mon Nov 18 15:57:02 2019
Timers Off: Mon Nov 18 15:57:04 2019

Wall Time:        2.77 seconds

                                                       Time (seconds)
Module                                       User      System        Wall        Calls
HF: Form core H                     :      0.000u      0.017s      0.003w      2 calls
HF: Form S/X                        :      0.000u      0.000s      0.000w      2 calls
HF: Guess                           :      0.150u      0.017s      0.089w      2 calls
SAD Guess                           :      0.117u      0.017s      0.083w      2 calls
HF: Form G                          :      0.050u      0.000s      0.032w     13 calls
JK: D                               :      0.000u      0.017s      0.001w     82 calls
JK: JK                              :      0.750u      0.033s      0.463w     82 calls
DFH: compute_JK()                   :      0.000u      0.000s      0.000w      5 calls
DFH: Grabbing AOs                   :      0.000u      0.000s      0.000w      5 calls
DFH: compute_J                      :      0.000u      0.000s      0.000w      5 calls
DFH: compute_K                      :      0.000u      0.000s      0.000w      5 calls
JK: USO2AO                          :      0.000u      0.000s      0.001w     58 calls
JK: AO2USO                          :      0.000u      0.000s      0.000w     58 calls
HF: Form F                          :      0.000u      0.000s      0.000w     13 calls
HF: Form D                          :      0.000u      0.000s      0.000w     13 calls
HF: DIIS                            :      0.000u      0.000s      0.015w     11 calls
DIISManager::add_entry              :      0.000u      0.000s      0.001w     11 calls
DIISManager::extrapolate            :      0.000u      0.000s      0.001w     11 calls
bMatrix setup                       :      0.000u      0.000s      0.000w     11 calls
bMatrix pseudoinverse               :      0.000u      0.000s      0.000w     11 calls
New vector                          :      0.000u      0.000s      0.000w     11 calls
HF: Form C                          :      0.000u      0.000s      0.000w     11 calls
CIWave: MCSCF integral transform    :      0.033u      0.083s      0.062w     10 calls
CIWave: CIvect write                :      0.000u      0.017s      0.002w    172 calls
CIWave: CIvect read                 :      0.000u      0.000s      0.003w    558 calls
CIWave: s2                          :      0.000u      0.000s      0.000w     24 calls
CIWave: s3                          :      0.000u      0.000s      0.000w     24 calls
CIWave: opdm                        :      0.000u      0.000s      0.001w     10 calls
CIWave: TPDM                        :      0.017u      0.000s      0.000w     10 calls
CIWave: TPDM Block                  :      0.000u      0.000s      0.000w     10 calls
CIWave: TPDM Reorder                :      0.000u      0.000s      0.000w     10 calls
SOMCSCF: Compute Gradient           :      0.000u      0.017s      0.016w      9 calls
SOMCSCF: Q matrix                   :      0.000u      0.017s      0.010w      9 calls
SOMCSCF: Approximate hessian        :      0.000u      0.000s      0.000w      9 calls
DFH: sparsity prep                  :      0.000u      0.000s      0.007w      1 calls
DFH: initialize()                   :      0.033u      0.000s      0.027w      1 calls
DFH: AO Construction                :      0.000u      0.000s      0.000w      1 calls
DFH: AO-Met. Contraction            :      0.000u      0.000s      0.000w      1 calls
Integrals                           :      0.050u      0.017s      0.037w      1 calls
Method                              :      1.350u      0.433s      1.123w      1 calls

--------------------------------------------------------------------------------------
HF: Form core H                     :      0.000u      0.017s      0.003w      2 calls
HF: Form S/X                        :      0.000u      0.000s      0.000w      2 calls
HF: Guess                           :      0.150u      0.017s      0.089w      2 calls
| SAD Guess                         :      0.117u      0.017s      0.083w      2 calls
HF: Form G                          :      0.050u      0.000s      0.032w     13 calls
| JK: D                             :      0.000u      0.000s      0.000w     13 calls
| JK: JK                            :      0.050u      0.000s      0.031w     13 calls
| | DFH: compute_JK()               :      0.000u      0.000s      0.000w      5 calls
| | | DFH: Grabbing AOs             :      0.000u      0.000s      0.000w      5 calls
| | | DFH: compute_J                :      0.000u      0.000s      0.000w      5 calls
| | | DFH: compute_K                :      0.000u      0.000s      0.000w      5 calls
| JK: USO2AO                        :      0.000u      0.000s      0.000w      8 calls
| JK: AO2USO                        :      0.000u      0.000s      0.000w      8 calls
HF: Form F                          :      0.000u      0.000s      0.000w     13 calls
HF: Form D                          :      0.000u      0.000s      0.000w     13 calls
HF: DIIS                            :      0.000u      0.000s      0.015w     11 calls
| DIISManager::add_entry            :      0.000u      0.000s      0.001w     11 calls
| DIISManager::extrapolate          :      0.000u      0.000s      0.001w     11 calls
| | bMatrix setup                   :      0.000u      0.000s      0.000w     11 calls
| | bMatrix pseudoinverse           :      0.000u      0.000s      0.000w     11 calls
| | New vector                      :      0.000u      0.000s      0.000w     11 calls
HF: Form C                          :      0.000u      0.000s      0.000w     11 calls
CIWave: MCSCF integral transform    :      0.033u      0.083s      0.062w     10 calls
| JK: D                             :      0.000u      0.000s      0.000w     10 calls
| JK: JK                            :      0.000u      0.017s      0.005w     10 calls
CIWave: CIvect write                :      0.000u      0.017s      0.002w    172 calls
CIWave: CIvect read                 :      0.000u      0.000s      0.002w    518 calls
CIWave: s2                          :      0.000u      0.000s      0.000w     24 calls
CIWave: s3                          :      0.000u      0.000s      0.000w     24 calls
CIWave: opdm                        :      0.000u      0.000s      0.001w     10 calls
| CIWave: CIvect read               :      0.000u      0.000s      0.000w     20 calls
CIWave: TPDM                        :      0.017u      0.000s      0.000w     10 calls
| CIWave: CIvect read               :      0.000u      0.000s      0.000w     20 calls
| CIWave: TPDM Block                :      0.000u      0.000s      0.000w     10 calls
| CIWave: TPDM Reorder              :      0.000u      0.000s      0.000w     10 calls
SOMCSCF: Compute Gradient           :      0.000u      0.017s      0.016w      9 calls
| JK: D                             :      0.000u      0.000s      0.000w      9 calls
| JK: JK                            :      0.000u      0.000s      0.005w      9 calls
| SOMCSCF: Q matrix                 :      0.000u      0.017s      0.010w      9 calls
SOMCSCF: Approximate hessian        :      0.000u      0.000s      0.000w      9 calls
DFH: sparsity prep                  :      0.000u      0.000s      0.007w      1 calls
DFH: initialize()                   :      0.033u      0.000s      0.027w      1 calls
| DFH: AO Construction              :      0.000u      0.000s      0.000w      1 calls
| DFH: AO-Met. Contraction          :      0.000u      0.000s      0.000w      1 calls
Integrals                           :      0.050u      0.017s      0.037w      1 calls
Method                              :      1.350u      0.433s      1.123w      1 calls
| JK: D                             :      0.000u      0.017s      0.001w     50 calls
| JK: USO2AO                        :      0.000u      0.000s      0.001w     50 calls
| JK: JK                            :      0.700u      0.017s      0.422w     50 calls
| JK: AO2USO                        :      0.000u      0.000s      0.000w     50 calls

**************************************************************************************

Host: Shuhe.Wang

Timers On : Mon Nov 18 16:03:19 2019
Timers Off: Mon Nov 18 16:03:22 2019

Wall Time:        2.75 seconds

                                                       Time (seconds)
Module                                       User      System        Wall        Calls
HF: Form core H                     :      0.000u      0.000s      0.004w      2 calls
HF: Form S/X                        :      0.000u      0.000s      0.000w      2 calls
HF: Guess                           :      0.133u      0.000s      0.088w      2 calls
SAD Guess                           :      0.133u      0.000s      0.083w      2 calls
HF: Form G                          :      0.050u      0.000s      0.029w     13 calls
JK: D                               :      0.017u      0.000s      0.001w     82 calls
JK: JK                              :      0.767u      0.017s      0.476w     82 calls
DFH: compute_JK()                   :      0.000u      0.000s      0.000w      5 calls
DFH: Grabbing AOs                   :      0.000u      0.000s      0.000w      5 calls
DFH: compute_J                      :      0.000u      0.000s      0.000w      5 calls
DFH: compute_K                      :      0.000u      0.000s      0.000w      5 calls
JK: USO2AO                          :      0.000u      0.000s      0.001w     58 calls
JK: AO2USO                          :      0.000u      0.000s      0.000w     58 calls
HF: Form F                          :      0.000u      0.000s      0.000w     13 calls
HF: Form D                          :      0.000u      0.000s      0.000w     13 calls
HF: DIIS                            :      0.000u      0.000s      0.014w     11 calls
DIISManager::add_entry              :      0.000u      0.000s      0.001w     11 calls
DIISManager::extrapolate            :      0.000u      0.000s      0.001w     11 calls
bMatrix setup                       :      0.000u      0.000s      0.000w     11 calls
bMatrix pseudoinverse               :      0.000u      0.000s      0.000w     11 calls
New vector                          :      0.000u      0.000s      0.000w     11 calls
HF: Form C                          :      0.000u      0.000s      0.000w     11 calls
CIWave: MCSCF integral transform    :      0.017u      0.067s      0.062w     10 calls
CIWave: CIvect write                :      0.000u      0.000s      0.002w    172 calls
CIWave: CIvect read                 :      0.000u      0.000s      0.003w    558 calls
CIWave: s2                          :      0.000u      0.000s      0.000w     24 calls
CIWave: s3                          :      0.000u      0.000s      0.000w     24 calls
CIWave: opdm                        :      0.000u      0.000s      0.000w     10 calls
CIWave: TPDM                        :      0.000u      0.000s      0.000w     10 calls
CIWave: TPDM Block                  :      0.000u      0.000s      0.000w     10 calls
CIWave: TPDM Reorder                :      0.000u      0.000s      0.000w     10 calls
SOMCSCF: Compute Gradient           :      0.000u      0.033s      0.015w      9 calls
SOMCSCF: Q matrix                   :      0.000u      0.033s      0.010w      9 calls
SOMCSCF: Approximate hessian        :      0.000u      0.000s      0.000w      9 calls
DFH: sparsity prep                  :      0.017u      0.000s      0.007w      1 calls
DFH: initialize()                   :      0.050u      0.000s      0.026w      1 calls
DFH: AO Construction                :      0.000u      0.000s      0.000w      1 calls
DFH: AO-Met. Contraction            :      0.000u      0.000s      0.000w      1 calls
Integrals                           :      0.033u      0.033s      0.036w      1 calls
Method                              :      1.367u      0.433s      1.145w      1 calls

--------------------------------------------------------------------------------------
HF: Form core H                     :      0.000u      0.000s      0.004w      2 calls
HF: Form S/X                        :      0.000u      0.000s      0.000w      2 calls
HF: Guess                           :      0.133u      0.000s      0.088w      2 calls
| SAD Guess                         :      0.133u      0.000s      0.083w      2 calls
HF: Form G                          :      0.050u      0.000s      0.029w     13 calls
| JK: D                             :      0.000u      0.000s      0.000w     13 calls
| JK: JK                            :      0.050u      0.000s      0.028w     13 calls
| | DFH: compute_JK()               :      0.000u      0.000s      0.000w      5 calls
| | | DFH: Grabbing AOs             :      0.000u      0.000s      0.000w      5 calls
| | | DFH: compute_J                :      0.000u      0.000s      0.000w      5 calls
| | | DFH: compute_K                :      0.000u      0.000s      0.000w      5 calls
| JK: USO2AO                        :      0.000u      0.000s      0.000w      8 calls
| JK: AO2USO                        :      0.000u      0.000s      0.000w      8 calls
HF: Form F                          :      0.000u      0.000s      0.000w     13 calls
HF: Form D                          :      0.000u      0.000s      0.000w     13 calls
HF: DIIS                            :      0.000u      0.000s      0.014w     11 calls
| DIISManager::add_entry            :      0.000u      0.000s      0.001w     11 calls
| DIISManager::extrapolate          :      0.000u      0.000s      0.001w     11 calls
| | bMatrix setup                   :      0.000u      0.000s      0.000w     11 calls
| | bMatrix pseudoinverse           :      0.000u      0.000s      0.000w     11 calls
| | New vector                      :      0.000u      0.000s      0.000w     11 calls
HF: Form C                          :      0.000u      0.000s      0.000w     11 calls
CIWave: MCSCF integral transform    :      0.017u      0.067s      0.062w     10 calls
| JK: D                             :      0.000u      0.000s      0.000w     10 calls
| JK: JK                            :      0.017u      0.017s      0.006w     10 calls
CIWave: CIvect write                :      0.000u      0.000s      0.002w    172 calls
CIWave: CIvect read                 :      0.000u      0.000s      0.002w    518 calls
CIWave: s2                          :      0.000u      0.000s      0.000w     24 calls
CIWave: s3                          :      0.000u      0.000s      0.000w     24 calls
CIWave: opdm                        :      0.000u      0.000s      0.000w     10 calls
| CIWave: CIvect read               :      0.000u      0.000s      0.000w     20 calls
CIWave: TPDM                        :      0.000u      0.000s      0.000w     10 calls
| CIWave: CIvect read               :      0.000u      0.000s      0.000w     20 calls
| CIWave: TPDM Block                :      0.000u      0.000s      0.000w     10 calls
| CIWave: TPDM Reorder              :      0.000u      0.000s      0.000w     10 calls
SOMCSCF: Compute Gradient           :      0.000u      0.033s      0.015w      9 calls
| JK: D                             :      0.000u      0.000s      0.000w      9 calls
| JK: JK                            :      0.000u      0.000s      0.005w      9 calls
| SOMCSCF: Q matrix                 :      0.000u      0.033s      0.010w      9 calls
SOMCSCF: Approximate hessian        :      0.000u      0.000s      0.000w      9 calls
DFH: sparsity prep                  :      0.017u      0.000s      0.007w      1 calls
DFH: initialize()                   :      0.050u      0.000s      0.026w      1 calls
| DFH: AO Construction              :      0.000u      0.000s      0.000w      1 calls
| DFH: AO-Met. Contraction          :      0.000u      0.000s      0.000w      1 calls
Integrals                           :      0.033u      0.033s      0.036w      1 calls
Method                              :      1.367u      0.433s      1.145w      1 calls
| JK: D                             :      0.017u      0.000s      0.001w     50 calls
| JK: USO2AO                        :      0.000u      0.000s      0.001w     50 calls
| JK: JK                            :      0.700u      0.000s      0.437w     50 calls
| JK: AO2USO                        :      0.000u      0.000s      0.000w     50 calls

**************************************************************************************

Host: Shuhe.Wang

Timers On : Mon Nov 18 16:07:08 2019
Timers Off: Mon Nov 18 16:07:10 2019

Wall Time:        2.62 seconds

                                                       Time (seconds)
Module                                       User      System        Wall        Calls
HF: Form core H                     :      0.000u      0.017s      0.003w      2 calls
HF: Form S/X                        :      0.000u      0.000s      0.000w      2 calls
HF: Guess                           :      0.133u      0.000s      0.092w      2 calls
SAD Guess                           :      0.133u      0.000s      0.087w      2 calls
HF: Form G                          :      0.050u      0.000s      0.027w     13 calls
JK: D                               :      0.017u      0.000s      0.001w     82 calls
JK: JK                              :      0.617u      0.017s      0.460w     82 calls
DFH: compute_JK()                   :      0.000u      0.000s      0.000w      5 calls
DFH: Grabbing AOs                   :      0.000u      0.000s      0.000w      5 calls
DFH: compute_J                      :      0.000u      0.000s      0.000w      5 calls
DFH: compute_K                      :      0.000u      0.000s      0.000w      5 calls
JK: USO2AO                          :      0.000u      0.000s      0.001w     58 calls
JK: AO2USO                          :      0.000u      0.000s      0.000w     58 calls
HF: Form F                          :      0.000u      0.000s      0.000w     13 calls
HF: Form D                          :      0.000u      0.000s      0.000w     13 calls
HF: DIIS                            :      0.017u      0.000s      0.013w     11 calls
DIISManager::add_entry              :      0.000u      0.000s      0.000w     11 calls
DIISManager::extrapolate            :      0.000u      0.000s      0.001w     11 calls
bMatrix setup                       :      0.000u      0.000s      0.000w     11 calls
bMatrix pseudoinverse               :      0.000u      0.000s      0.000w     11 calls
New vector                          :      0.000u      0.000s      0.000w     11 calls
HF: Form C                          :      0.000u      0.000s      0.000w     11 calls
CIWave: MCSCF integral transform    :      0.017u      0.083s      0.065w     10 calls
CIWave: CIvect write                :      0.000u      0.000s      0.002w    172 calls
CIWave: CIvect read                 :      0.000u      0.000s      0.003w    558 calls
CIWave: s2                          :      0.000u      0.000s      0.000w     24 calls
CIWave: s3                          :      0.000u      0.000s      0.000w     24 calls
CIWave: opdm                        :      0.017u      0.000s      0.000w     10 calls
CIWave: TPDM                        :      0.000u      0.000s      0.000w     10 calls
CIWave: TPDM Block                  :      0.000u      0.000s      0.000w     10 calls
CIWave: TPDM Reorder                :      0.000u      0.000s      0.000w     10 calls
SOMCSCF: Compute Gradient           :      0.000u      0.017s      0.016w      9 calls
SOMCSCF: Q matrix                   :      0.000u      0.017s      0.010w      9 calls
SOMCSCF: Approximate hessian        :      0.000u      0.000s      0.000w      9 calls
DFH: sparsity prep                  :      0.000u      0.000s      0.007w      1 calls
DFH: initialize()                   :      0.050u      0.000s      0.027w      1 calls
DFH: AO Construction                :      0.000u      0.000s      0.000w      1 calls
DFH: AO-Met. Contraction            :      0.000u      0.000s      0.000w      1 calls
Integrals                           :      0.017u      0.017s      0.029w      1 calls
Method                              :      1.350u      0.433s      1.107w      1 calls

--------------------------------------------------------------------------------------
HF: Form core H                     :      0.000u      0.017s      0.003w      2 calls
HF: Form S/X                        :      0.000u      0.000s      0.000w      2 calls
HF: Guess                           :      0.133u      0.000s      0.092w      2 calls
| SAD Guess                         :      0.133u      0.000s      0.087w      2 calls
HF: Form G                          :      0.050u      0.000s      0.027w     13 calls
| JK: D                             :      0.000u      0.000s      0.000w     13 calls
| JK: JK                            :      0.050u      0.000s      0.026w     13 calls
| | DFH: compute_JK()               :      0.000u      0.000s      0.000w      5 calls
| | | DFH: Grabbing AOs             :      0.000u      0.000s      0.000w      5 calls
| | | DFH: compute_J                :      0.000u      0.000s      0.000w      5 calls
| | | DFH: compute_K                :      0.000u      0.000s      0.000w      5 calls
| JK: USO2AO                        :      0.000u      0.000s      0.000w      8 calls
| JK: AO2USO                        :      0.000u      0.000s      0.000w      8 calls
HF: Form F                          :      0.000u      0.000s      0.000w     13 calls
HF: Form D                          :      0.000u      0.000s      0.000w     13 calls
HF: DIIS                            :      0.017u      0.000s      0.013w     11 calls
| DIISManager::add_entry            :      0.000u      0.000s      0.000w     11 calls
| DIISManager::extrapolate          :      0.000u      0.000s      0.001w     11 calls
| | bMatrix setup                   :      0.000u      0.000s      0.000w     11 calls
| | bMatrix pseudoinverse           :      0.000u      0.000s      0.000w     11 calls
| | New vector                      :      0.000u      0.000s      0.000w     11 calls
HF: Form C                          :      0.000u      0.000s      0.000w     11 calls
CIWave: MCSCF integral transform    :      0.017u      0.083s      0.065w     10 calls
| JK: D                             :      0.000u      0.000s      0.000w     10 calls
| JK: JK                            :      0.000u      0.017s      0.006w     10 calls
CIWave: CIvect write                :      0.000u      0.000s      0.002w    172 calls
CIWave: CIvect read                 :      0.000u      0.000s      0.002w    518 calls
CIWave: s2                          :      0.000u      0.000s      0.000w     24 calls
CIWave: s3                          :      0.000u      0.000s      0.000w     24 calls
CIWave: opdm                        :      0.017u      0.000s      0.000w     10 calls
| CIWave: CIvect read               :      0.000u      0.000s      0.000w     20 calls
CIWave: TPDM                        :      0.000u      0.000s      0.000w     10 calls
| CIWave: CIvect read               :      0.000u      0.000s      0.000w     20 calls
| CIWave: TPDM Block                :      0.000u      0.000s      0.000w     10 calls
| CIWave: TPDM Reorder              :      0.000u      0.000s      0.000w     10 calls
SOMCSCF: Compute Gradient           :      0.000u      0.017s      0.016w      9 calls
| JK: D                             :      0.000u      0.000s      0.000w      9 calls
| JK: JK                            :      0.000u      0.000s      0.005w      9 calls
| SOMCSCF: Q matrix                 :      0.000u      0.017s      0.010w      9 calls
SOMCSCF: Approximate hessian        :      0.000u      0.000s      0.000w      9 calls
DFH: sparsity prep                  :      0.000u      0.000s      0.007w      1 calls
DFH: initialize()                   :      0.050u      0.000s      0.027w      1 calls
| DFH: AO Construction              :      0.000u      0.000s      0.000w      1 calls
| DFH: AO-Met. Contraction          :      0.000u      0.000s      0.000w      1 calls
Integrals                           :      0.017u      0.017s      0.029w      1 calls
Method                              :      1.350u      0.433s      1.107w      1 calls
| JK: D                             :      0.017u      0.000s      0.001w     50 calls
| JK: USO2AO                        :      0.000u      0.000s      0.001w     50 calls
| JK: JK                            :      0.567u      0.000s      0.423w     50 calls
| JK: AO2USO                        :      0.000u      0.000s      0.000w     50 calls

**************************************************************************************

Host: Shuhe.Wang

Timers On : Mon Nov 18 16:08:43 2019
Timers Off: Mon Nov 18 16:08:45 2019

Wall Time:        2.70 seconds

                                                       Time (seconds)
Module                                       User      System        Wall        Calls
HF: Form core H                     :      0.000u      0.000s      0.004w      2 calls
HF: Form S/X                        :      0.000u      0.000s      0.000w      2 calls
HF: Guess                           :      0.150u      0.000s      0.091w      2 calls
SAD Guess                           :      0.150u      0.000s      0.086w      2 calls
HF: Form G                          :      0.017u      0.000s      0.026w     13 calls
JK: D                               :      0.000u      0.000s      0.001w     82 calls
JK: JK                              :      0.750u      0.017s      0.466w     82 calls
DFH: compute_JK()                   :      0.000u      0.000s      0.000w      5 calls
DFH: Grabbing AOs                   :      0.000u      0.000s      0.000w      5 calls
DFH: compute_J                      :      0.000u      0.000s      0.000w      5 calls
DFH: compute_K                      :      0.000u      0.000s      0.000w      5 calls
JK: USO2AO                          :      0.000u      0.000s      0.001w     58 calls
JK: AO2USO                          :      0.000u      0.000s      0.000w     58 calls
HF: Form F                          :      0.000u      0.000s      0.000w     13 calls
HF: Form D                          :      0.000u      0.000s      0.000w     13 calls
HF: DIIS                            :      0.017u      0.000s      0.014w     11 calls
DIISManager::add_entry              :      0.000u      0.000s      0.000w     11 calls
DIISManager::extrapolate            :      0.000u      0.000s      0.001w     11 calls
bMatrix setup                       :      0.000u      0.000s      0.000w     11 calls
bMatrix pseudoinverse               :      0.000u      0.000s      0.000w     11 calls
New vector                          :      0.000u      0.000s      0.000w     11 calls
HF: Form C                          :      0.000u      0.000s      0.000w     11 calls
CIWave: MCSCF integral transform    :      0.000u      0.100s      0.063w     10 calls
CIWave: CIvect write                :      0.000u      0.000s      0.002w    180 calls
CIWave: CIvect read                 :      0.000u      0.000s      0.003w    590 calls
CIWave: s2                          :      0.000u      0.000s      0.000w     25 calls
CIWave: s3                          :      0.000u      0.000s      0.000w     25 calls
CIWave: opdm                        :      0.000u      0.000s      0.000w     10 calls
CIWave: TPDM                        :      0.000u      0.000s      0.000w     10 calls
CIWave: TPDM Block                  :      0.000u      0.000s      0.000w     10 calls
CIWave: TPDM Reorder                :      0.000u      0.000s      0.000w     10 calls
SOMCSCF: Compute Gradient           :      0.000u      0.017s      0.016w      9 calls
SOMCSCF: Q matrix                   :      0.000u      0.017s      0.010w      9 calls
SOMCSCF: Approximate hessian        :      0.000u      0.000s      0.000w      9 calls
DFH: sparsity prep                  :      0.017u      0.000s      0.007w      1 calls
DFH: initialize()                   :      0.050u      0.000s      0.026w      1 calls
DFH: AO Construction                :      0.000u      0.000s      0.000w      1 calls
DFH: AO-Met. Contraction            :      0.000u      0.000s      0.000w      1 calls
Integrals                           :      0.017u      0.017s      0.035w      1 calls
Method                              :      1.367u      0.467s      1.151w      1 calls

--------------------------------------------------------------------------------------
HF: Form core H                     :      0.000u      0.000s      0.004w      2 calls
HF: Form S/X                        :      0.000u      0.000s      0.000w      2 calls
HF: Guess                           :      0.150u      0.000s      0.091w      2 calls
| SAD Guess                         :      0.150u      0.000s      0.086w      2 calls
HF: Form G                          :      0.017u      0.000s      0.026w     13 calls
| JK: D                             :      0.000u      0.000s      0.000w     13 calls
| JK: JK                            :      0.017u      0.000s      0.026w     13 calls
| | DFH: compute_JK()               :      0.000u      0.000s      0.000w      5 calls
| | | DFH: Grabbing AOs             :      0.000u      0.000s      0.000w      5 calls
| | | DFH: compute_J                :      0.000u      0.000s      0.000w      5 calls
| | | DFH: compute_K                :      0.000u      0.000s      0.000w      5 calls
| JK: USO2AO                        :      0.000u      0.000s      0.000w      8 calls
| JK: AO2USO                        :      0.000u      0.000s      0.000w      8 calls
HF: Form F                          :      0.000u      0.000s      0.000w     13 calls
HF: Form D                          :      0.000u      0.000s      0.000w     13 calls
HF: DIIS                            :      0.017u      0.000s      0.014w     11 calls
| DIISManager::add_entry            :      0.000u      0.000s      0.000w     11 calls
| DIISManager::extrapolate          :      0.000u      0.000s      0.001w     11 calls
| | bMatrix setup                   :      0.000u      0.000s      0.000w     11 calls
| | bMatrix pseudoinverse           :      0.000u      0.000s      0.000w     11 calls
| | New vector                      :      0.000u      0.000s      0.000w     11 calls
HF: Form C                          :      0.000u      0.000s      0.000w     11 calls
CIWave: MCSCF integral transform    :      0.000u      0.100s      0.063w     10 calls
| JK: D                             :      0.000u      0.000s      0.000w     10 calls
| JK: JK                            :      0.000u      0.017s      0.005w     10 calls
CIWave: CIvect write                :      0.000u      0.000s      0.002w    180 calls
CIWave: CIvect read                 :      0.000u      0.000s      0.003w    550 calls
CIWave: s2                          :      0.000u      0.000s      0.000w     25 calls
CIWave: s3                          :      0.000u      0.000s      0.000w     25 calls
CIWave: opdm                        :      0.000u      0.000s      0.000w     10 calls
| CIWave: CIvect read               :      0.000u      0.000s      0.000w     20 calls
CIWave: TPDM                        :      0.000u      0.000s      0.000w     10 calls
| CIWave: CIvect read               :      0.000u      0.000s      0.000w     20 calls
| CIWave: TPDM Block                :      0.000u      0.000s      0.000w     10 calls
| CIWave: TPDM Reorder              :      0.000u      0.000s      0.000w     10 calls
SOMCSCF: Compute Gradient           :      0.000u      0.017s      0.016w      9 calls
| JK: D                             :      0.000u      0.000s      0.000w      9 calls
| JK: JK                            :      0.000u      0.000s      0.006w      9 calls
| SOMCSCF: Q matrix                 :      0.000u      0.017s      0.010w      9 calls
SOMCSCF: Approximate hessian        :      0.000u      0.000s      0.000w      9 calls
DFH: sparsity prep                  :      0.017u      0.000s      0.007w      1 calls
DFH: initialize()                   :      0.050u      0.000s      0.026w      1 calls
| DFH: AO Construction              :      0.000u      0.000s      0.000w      1 calls
| DFH: AO-Met. Contraction          :      0.000u      0.000s      0.000w      1 calls
Integrals                           :      0.017u      0.017s      0.035w      1 calls
Method                              :      1.367u      0.467s      1.151w      1 calls
| JK: D                             :      0.000u      0.000s      0.001w     50 calls
| JK: USO2AO                        :      0.000u      0.000s      0.001w     50 calls
| JK: JK                            :      0.733u      0.000s      0.429w     50 calls
| JK: AO2USO                        :      0.000u      0.000s      0.000w     50 calls

**************************************************************************************

Host: Shuhe.Wang

Timers On : Mon Nov 18 16:11:06 2019
Timers Off: Mon Nov 18 16:11:07 2019

Wall Time:        1.00 seconds

                                                       Time (seconds)
Module                                       User      System        Wall        Calls
HF: Form core H                     :      0.000u      0.000s      0.002w      1 calls
HF: Form S/X                        :      0.000u      0.000s      0.000w      1 calls
HF: Guess                           :      0.067u      0.017s      0.043w      1 calls
SAD Guess                           :      0.067u      0.017s      0.041w      1 calls
HF: Form G                          :      0.000u      0.000s      0.003w      5 calls
JK: D                               :      0.000u      0.000s      0.000w      5 calls
JK: JK                              :      0.000u      0.000s      0.003w      5 calls
HF: Form F                          :      0.000u      0.000s      0.000w      5 calls
HF: Form D                          :      0.000u      0.000s      0.000w      5 calls
HF: DIIS                            :      0.000u      0.000s      0.005w      4 calls
DIISManager::add_entry              :      0.000u      0.000s      0.001w      4 calls
DIISManager::extrapolate            :      0.000u      0.000s      0.000w      4 calls
bMatrix setup                       :      0.000u      0.000s      0.000w      4 calls
bMatrix pseudoinverse               :      0.000u      0.000s      0.000w      4 calls
New vector                          :      0.000u      0.000s      0.000w      4 calls
HF: Form C                          :      0.000u      0.000s      0.000w      4 calls

--------------------------------------------------------------------------------------
HF: Form core H                     :      0.000u      0.000s      0.002w      1 calls
HF: Form S/X                        :      0.000u      0.000s      0.000w      1 calls
HF: Guess                           :      0.067u      0.017s      0.043w      1 calls
| SAD Guess                         :      0.067u      0.017s      0.041w      1 calls
HF: Form G                          :      0.000u      0.000s      0.003w      5 calls
| JK: D                             :      0.000u      0.000s      0.000w      5 calls
| JK: JK                            :      0.000u      0.000s      0.003w      5 calls
HF: Form F                          :      0.000u      0.000s      0.000w      5 calls
HF: Form D                          :      0.000u      0.000s      0.000w      5 calls
HF: DIIS                            :      0.000u      0.000s      0.005w      4 calls
| DIISManager::add_entry            :      0.000u      0.000s      0.001w      4 calls
| DIISManager::extrapolate          :      0.000u      0.000s      0.000w      4 calls
| | bMatrix setup                   :      0.000u      0.000s      0.000w      4 calls
| | bMatrix pseudoinverse           :      0.000u      0.000s      0.000w      4 calls
| | New vector                      :      0.000u      0.000s      0.000w      4 calls
HF: Form C                          :      0.000u      0.000s      0.000w      4 calls

**************************************************************************************

Host: Shuhe.Wang

Timers On : Mon Nov 18 16:12:07 2019
Timers Off: Mon Nov 18 16:12:09 2019

Wall Time:        2.84 seconds

                                                       Time (seconds)
Module                                       User      System        Wall        Calls
HF: Form core H                     :      0.000u      0.000s      0.004w      2 calls
HF: Form S/X                        :      0.000u      0.000s      0.000w      2 calls
HF: Guess                           :      0.150u      0.000s      0.100w      2 calls
SAD Guess                           :      0.150u      0.000s      0.094w      2 calls
HF: Form G                          :      0.033u      0.017s      0.028w     13 calls
JK: D                               :      0.000u      0.000s      0.001w     82 calls
JK: JK                              :      0.767u      0.033s      0.461w     82 calls
DFH: compute_JK()                   :      0.000u      0.000s      0.000w      5 calls
DFH: Grabbing AOs                   :      0.000u      0.000s      0.000w      5 calls
DFH: compute_J                      :      0.000u      0.000s      0.000w      5 calls
DFH: compute_K                      :      0.000u      0.000s      0.000w      5 calls
JK: USO2AO                          :      0.000u      0.000s      0.002w     58 calls
JK: AO2USO                          :      0.000u      0.000s      0.000w     58 calls
HF: Form F                          :      0.000u      0.000s      0.000w     13 calls
HF: Form D                          :      0.000u      0.000s      0.000w     13 calls
HF: DIIS                            :      0.083u      0.000s      0.016w     11 calls
DIISManager::add_entry              :      0.000u      0.000s      0.001w     11 calls
DIISManager::extrapolate            :      0.000u      0.000s      0.001w     11 calls
bMatrix setup                       :      0.000u      0.000s      0.000w     11 calls
bMatrix pseudoinverse               :      0.000u      0.000s      0.000w     11 calls
New vector                          :      0.000u      0.000s      0.000w     11 calls
HF: Form C                          :      0.000u      0.000s      0.000w     11 calls
CIWave: MCSCF integral transform    :      0.017u      0.100s      0.064w     10 calls
CIWave: CIvect write                :      0.000u      0.000s      0.001w    156 calls
CIWave: CIvect read                 :      0.000u      0.017s      0.002w    482 calls
CIWave: s2                          :      0.000u      0.000s      0.000w     40 calls
CIWave: s3                          :      0.000u      0.000s      0.000w     80 calls
CIWave: opdm                        :      0.000u      0.000s      0.000w     10 calls
CIWave: TPDM                        :      0.000u      0.000s      0.001w     10 calls
CIWave: TPDM Block                  :      0.000u      0.000s      0.000w     40 calls
CIWave: TPDM Reorder                :      0.000u      0.000s      0.000w     10 calls
SOMCSCF: Compute Gradient           :      0.000u      0.017s      0.016w      9 calls
SOMCSCF: Q matrix                   :      0.000u      0.000s      0.010w      9 calls
SOMCSCF: Approximate hessian        :      0.000u      0.000s      0.000w      9 calls
DFH: sparsity prep                  :      0.017u      0.000s      0.007w      1 calls
DFH: initialize()                   :      0.050u      0.000s      0.027w      1 calls
DFH: AO Construction                :      0.017u      0.000s      0.000w      1 calls
DFH: AO-Met. Contraction            :      0.000u      0.000s      0.000w      1 calls
Integrals                           :      0.033u      0.017s      0.032w      1 calls
Method                              :      1.433u      0.467s      1.183w      1 calls

--------------------------------------------------------------------------------------
HF: Form core H                     :      0.000u      0.000s      0.004w      2 calls
HF: Form S/X                        :      0.000u      0.000s      0.000w      2 calls
HF: Guess                           :      0.150u      0.000s      0.100w      2 calls
| SAD Guess                         :      0.150u      0.000s      0.094w      2 calls
HF: Form G                          :      0.033u      0.017s      0.028w     13 calls
| JK: D                             :      0.000u      0.000s      0.000w     13 calls
| JK: JK                            :      0.017u      0.017s      0.027w     13 calls
| | DFH: compute_JK()               :      0.000u      0.000s      0.000w      5 calls
| | | DFH: Grabbing AOs             :      0.000u      0.000s      0.000w      5 calls
| | | DFH: compute_J                :      0.000u      0.000s      0.000w      5 calls
| | | DFH: compute_K                :      0.000u      0.000s      0.000w      5 calls
| JK: USO2AO                        :      0.000u      0.000s      0.001w      8 calls
| JK: AO2USO                        :      0.000u      0.000s      0.000w      8 calls
HF: Form F                          :      0.000u      0.000s      0.000w     13 calls
HF: Form D                          :      0.000u      0.000s      0.000w     13 calls
HF: DIIS                            :      0.083u      0.000s      0.016w     11 calls
| DIISManager::add_entry            :      0.000u      0.000s      0.001w     11 calls
| DIISManager::extrapolate          :      0.000u      0.000s      0.001w     11 calls
| | bMatrix setup                   :      0.000u      0.000s      0.000w     11 calls
| | bMatrix pseudoinverse           :      0.000u      0.000s      0.000w     11 calls
| | New vector                      :      0.000u      0.000s      0.000w     11 calls
HF: Form C                          :      0.000u      0.000s      0.000w     11 calls
CIWave: MCSCF integral transform    :      0.017u      0.100s      0.064w     10 calls
| JK: D                             :      0.000u      0.000s      0.000w     10 calls
| JK: JK                            :      0.000u      0.000s      0.005w     10 calls
CIWave: CIvect write                :      0.000u      0.000s      0.001w    156 calls
CIWave: CIvect read                 :      0.000u      0.017s      0.002w    442 calls
CIWave: s2                          :      0.000u      0.000s      0.000w     40 calls
CIWave: s3                          :      0.000u      0.000s      0.000w     80 calls
CIWave: opdm                        :      0.000u      0.000s      0.000w     10 calls
| CIWave: CIvect read               :      0.000u      0.000s      0.000w     20 calls
CIWave: TPDM                        :      0.000u      0.000s      0.001w     10 calls
| CIWave: CIvect read               :      0.000u      0.000s      0.000w     20 calls
| CIWave: TPDM Block                :      0.000u      0.000s      0.000w     40 calls
| CIWave: TPDM Reorder              :      0.000u      0.000s      0.000w     10 calls
SOMCSCF: Compute Gradient           :      0.000u      0.017s      0.016w      9 calls
| JK: D                             :      0.000u      0.000s      0.000w      9 calls
| JK: JK                            :      0.000u      0.017s      0.005w      9 calls
| SOMCSCF: Q matrix                 :      0.000u      0.000s      0.010w      9 calls
SOMCSCF: Approximate hessian        :      0.000u      0.000s      0.000w      9 calls
DFH: sparsity prep                  :      0.017u      0.000s      0.007w      1 calls
DFH: initialize()                   :      0.050u      0.000s      0.027w      1 calls
| DFH: AO Construction              :      0.017u      0.000s      0.000w      1 calls
| DFH: AO-Met. Contraction          :      0.000u      0.000s      0.000w      1 calls
Integrals                           :      0.033u      0.017s      0.032w      1 calls
Method                              :      1.433u      0.467s      1.183w      1 calls
| JK: D                             :      0.000u      0.000s      0.001w     50 calls
| JK: USO2AO                        :      0.000u      0.000s      0.002w     50 calls
| JK: JK                            :      0.750u      0.000s      0.424w     50 calls
| JK: AO2USO                        :      0.000u      0.000s      0.000w     50 calls

**************************************************************************************

Host: Shuhe.Wang

Timers On : Mon Nov 18 16:16:00 2019
Timers Off: Mon Nov 18 16:16:02 2019

Wall Time:        2.94 seconds

                                                       Time (seconds)
Module                                       User      System        Wall        Calls
HF: Form core H                     :      0.000u      0.000s      0.003w      2 calls
HF: Form S/X                        :      0.000u      0.000s      0.000w      2 calls
HF: Guess                           :      0.300u      0.000s      0.197w      2 calls
SAD Guess                           :      0.300u      0.000s      0.192w      2 calls
HF: Form G                          :      0.150u      0.017s      0.078w     25 calls
JK: D                               :      0.000u      0.000s      0.001w     79 calls
JK: JK                              :      0.917u      0.017s      0.567w     79 calls
DFH: compute_JK()                   :      0.000u      0.000s      0.001w     10 calls
DFH: Grabbing AOs                   :      0.000u      0.000s      0.000w     10 calls
DFH: compute_J                      :      0.000u      0.000s      0.000w     10 calls
DFH: compute_K                      :      0.000u      0.000s      0.000w     10 calls
JK: USO2AO                          :      0.000u      0.000s      0.001w     46 calls
JK: AO2USO                          :      0.000u      0.000s      0.000w     46 calls
HF: Form F                          :      0.000u      0.000s      0.000w     25 calls
HF: Form D                          :      0.000u      0.000s      0.000w     25 calls
HF: DIIS                            :      0.033u      0.000s      0.028w     23 calls
DIISManager::add_entry              :      0.000u      0.000s      0.001w     28 calls
DIISManager::extrapolate            :      0.000u      0.000s      0.002w     28 calls
bMatrix setup                       :      0.000u      0.000s      0.001w     28 calls
bMatrix pseudoinverse               :      0.000u      0.000s      0.000w     28 calls
New vector                          :      0.000u      0.000s      0.001w     28 calls
HF: Form C                          :      0.000u      0.000s      0.001w     23 calls
CIWave: MCSCF integral transform    :      0.033u      0.100s      0.087w     12 calls
CIWave: CIvect write                :      0.000u      0.000s      0.002w    216 calls
CIWave: CIvect read                 :      0.000u      0.000s      0.003w    708 calls
CIWave: s2                          :      0.000u      0.000s      0.000w     30 calls
CIWave: s3                          :      0.000u      0.000s      0.000w     30 calls
CIWave: opdm                        :      0.000u      0.000s      0.000w     12 calls
CIWave: TPDM                        :      0.000u      0.000s      0.001w     12 calls
CIWave: TPDM Block                  :      0.000u      0.000s      0.000w     12 calls
CIWave: TPDM Reorder                :      0.000u      0.000s      0.000w     12 calls
SOMCSCF: Compute Gradient           :      0.000u      0.000s      0.019w     11 calls
SOMCSCF: Q matrix                   :      0.000u      0.000s      0.011w     11 calls
SOMCSCF: Approximate hessian        :      0.000u      0.000s      0.000w     11 calls
DFH: sparsity prep                  :      0.033u      0.000s      0.013w      1 calls
DFH: initialize()                   :      0.067u      0.000s      0.038w      1 calls
DFH: AO Construction                :      0.017u      0.000s      0.002w      1 calls
DFH: AO-Met. Contraction            :      0.000u      0.000s      0.000w      1 calls
Integrals                           :      0.050u      0.017s      0.045w      1 calls
Method                              :      1.233u      0.183s      0.882w      1 calls

--------------------------------------------------------------------------------------
HF: Form core H                     :      0.000u      0.000s      0.003w      2 calls
HF: Form S/X                        :      0.000u      0.000s      0.000w      2 calls
HF: Guess                           :      0.300u      0.000s      0.197w      2 calls
| SAD Guess                         :      0.300u      0.000s      0.192w      2 calls
HF: Form G                          :      0.150u      0.017s      0.078w     25 calls
| JK: D                             :      0.000u      0.000s      0.000w     25 calls
| JK: JK                            :      0.150u      0.017s      0.077w     25 calls
| | DFH: compute_JK()               :      0.000u      0.000s      0.001w     10 calls
| | | DFH: Grabbing AOs             :      0.000u      0.000s      0.000w     10 calls
| | | DFH: compute_J                :      0.000u      0.000s      0.000w     10 calls
| | | DFH: compute_K                :      0.000u      0.000s      0.000w     10 calls
| JK: USO2AO                        :      0.000u      0.000s      0.000w     15 calls
| JK: AO2USO                        :      0.000u      0.000s      0.000w     15 calls
HF: Form F                          :      0.000u      0.000s      0.000w     25 calls
HF: Form D                          :      0.000u      0.000s      0.000w     25 calls
HF: DIIS                            :      0.033u      0.000s      0.028w     23 calls
| DIISManager::add_entry            :      0.000u      0.000s      0.001w     23 calls
| DIISManager::extrapolate          :      0.000u      0.000s      0.002w     23 calls
| | bMatrix setup                   :      0.000u      0.000s      0.001w     23 calls
| | bMatrix pseudoinverse           :      0.000u      0.000s      0.000w     23 calls
| | New vector                      :      0.000u      0.000s      0.001w     23 calls
HF: Form C                          :      0.000u      0.000s      0.001w     23 calls
CIWave: MCSCF integral transform    :      0.033u      0.100s      0.087w     12 calls
| JK: D                             :      0.000u      0.000s      0.000w     12 calls
| JK: JK                            :      0.000u      0.000s      0.008w     12 calls
CIWave: CIvect write                :      0.000u      0.000s      0.002w    216 calls
CIWave: CIvect read                 :      0.000u      0.000s      0.003w    660 calls
CIWave: s2                          :      0.000u      0.000s      0.000w     30 calls
CIWave: s3                          :      0.000u      0.000s      0.000w     30 calls
CIWave: opdm                        :      0.000u      0.000s      0.000w     12 calls
| CIWave: CIvect read               :      0.000u      0.000s      0.000w     24 calls
CIWave: TPDM                        :      0.000u      0.000s      0.001w     12 calls
| CIWave: CIvect read               :      0.000u      0.000s      0.000w     24 calls
| CIWave: TPDM Block                :      0.000u      0.000s      0.000w     12 calls
| CIWave: TPDM Reorder              :      0.000u      0.000s      0.000w     12 calls
SOMCSCF: Compute Gradient           :      0.000u      0.000s      0.019w     11 calls
| JK: D                             :      0.000u      0.000s      0.000w     11 calls
| JK: JK                            :      0.000u      0.000s      0.008w     11 calls
| SOMCSCF: Q matrix                 :      0.000u      0.000s      0.011w     11 calls
SOMCSCF: Approximate hessian        :      0.000u      0.000s      0.000w     11 calls
DFH: sparsity prep                  :      0.033u      0.000s      0.013w      1 calls
DFH: initialize()                   :      0.067u      0.000s      0.038w      1 calls
| DFH: AO Construction              :      0.017u      0.000s      0.002w      1 calls
| DFH: AO-Met. Contraction          :      0.000u      0.000s      0.000w      1 calls
Integrals                           :      0.050u      0.017s      0.045w      1 calls
Method                              :      1.233u      0.183s      0.882w      1 calls
| JK: D                             :      0.000u      0.000s      0.000w     31 calls
| JK: USO2AO                        :      0.000u      0.000s      0.001w     31 calls
| JK: JK                            :      0.767u      0.000s      0.475w     31 calls
| JK: AO2USO                        :      0.000u      0.000s      0.000w     31 calls
| DIISManager::add_entry            :      0.000u      0.000s      0.000w      5 calls
| DIISManager::extrapolate          :      0.000u      0.000s      0.000w      5 calls
| | bMatrix setup                   :      0.000u      0.000s      0.000w      5 calls
| | bMatrix pseudoinverse           :      0.000u      0.000s      0.000w      5 calls
| | New vector                      :      0.000u      0.000s      0.000w      5 calls

**************************************************************************************

Host: Shuhe.Wang

Timers On : Mon Nov 18 16:18:17 2019
Timers Off: Mon Nov 18 16:18:20 2019

Wall Time:        2.89 seconds

                                                       Time (seconds)
Module                                       User      System        Wall        Calls
HF: Form core H                     :      0.000u      0.000s      0.004w      2 calls
HF: Form S/X                        :      0.000u      0.000s      0.000w      2 calls
HF: Guess                           :      0.317u      0.000s      0.199w      2 calls
SAD Guess                           :      0.300u      0.000s      0.195w      2 calls
HF: Form G                          :      0.133u      0.017s      0.077w     25 calls
JK: D                               :      0.000u      0.000s      0.001w     79 calls
JK: JK                              :      0.967u      0.033s      0.559w     79 calls
DFH: compute_JK()                   :      0.000u      0.000s      0.001w     10 calls
DFH: Grabbing AOs                   :      0.000u      0.000s      0.000w     10 calls
DFH: compute_J                      :      0.000u      0.000s      0.000w     10 calls
DFH: compute_K                      :      0.000u      0.000s      0.000w     10 calls
JK: USO2AO                          :      0.000u      0.000s      0.001w     46 calls
JK: AO2USO                          :      0.000u      0.000s      0.000w     46 calls
HF: Form F                          :      0.000u      0.000s      0.000w     25 calls
HF: Form D                          :      0.000u      0.000s      0.000w     25 calls
HF: DIIS                            :      0.067u      0.000s      0.027w     23 calls
DIISManager::add_entry              :      0.000u      0.000s      0.001w     28 calls
DIISManager::extrapolate            :      0.000u      0.000s      0.002w     28 calls
bMatrix setup                       :      0.000u      0.000s      0.000w     28 calls
bMatrix pseudoinverse               :      0.000u      0.000s      0.000w     28 calls
New vector                          :      0.000u      0.000s      0.001w     28 calls
HF: Form C                          :      0.000u      0.000s      0.001w     23 calls
CIWave: MCSCF integral transform    :      0.050u      0.117s      0.095w     12 calls
CIWave: CIvect write                :      0.000u      0.000s      0.002w    216 calls
CIWave: CIvect read                 :      0.000u      0.000s      0.003w    708 calls
CIWave: s2                          :      0.000u      0.000s      0.000w     30 calls
CIWave: s3                          :      0.000u      0.000s      0.000w     30 calls
CIWave: opdm                        :      0.000u      0.000s      0.000w     12 calls
CIWave: TPDM                        :      0.000u      0.000s      0.001w     12 calls
CIWave: TPDM Block                  :      0.000u      0.000s      0.000w     12 calls
CIWave: TPDM Reorder                :      0.000u      0.000s      0.000w     12 calls
SOMCSCF: Compute Gradient           :      0.017u      0.033s      0.021w     11 calls
SOMCSCF: Q matrix                   :      0.000u      0.017s      0.012w     11 calls
SOMCSCF: Approximate hessian        :      0.000u      0.000s      0.000w     11 calls
DFH: sparsity prep                  :      0.017u      0.000s      0.012w      1 calls
DFH: initialize()                   :      0.067u      0.000s      0.039w      1 calls
DFH: AO Construction                :      0.000u      0.000s      0.002w      1 calls
DFH: AO-Met. Contraction            :      0.000u      0.000s      0.000w      1 calls
Integrals                           :      0.050u      0.017s      0.046w      1 calls
Method                              :      1.217u      0.217s      0.885w      1 calls

--------------------------------------------------------------------------------------
HF: Form core H                     :      0.000u      0.000s      0.004w      2 calls
HF: Form S/X                        :      0.000u      0.000s      0.000w      2 calls
HF: Guess                           :      0.317u      0.000s      0.199w      2 calls
| SAD Guess                         :      0.300u      0.000s      0.195w      2 calls
HF: Form G                          :      0.133u      0.017s      0.077w     25 calls
| JK: D                             :      0.000u      0.000s      0.000w     25 calls
| JK: JK                            :      0.133u      0.017s      0.076w     25 calls
| | DFH: compute_JK()               :      0.000u      0.000s      0.001w     10 calls
| | | DFH: Grabbing AOs             :      0.000u      0.000s      0.000w     10 calls
| | | DFH: compute_J                :      0.000u      0.000s      0.000w     10 calls
| | | DFH: compute_K                :      0.000u      0.000s      0.000w     10 calls
| JK: USO2AO                        :      0.000u      0.000s      0.000w     15 calls
| JK: AO2USO                        :      0.000u      0.000s      0.000w     15 calls
HF: Form F                          :      0.000u      0.000s      0.000w     25 calls
HF: Form D                          :      0.000u      0.000s      0.000w     25 calls
HF: DIIS                            :      0.067u      0.000s      0.027w     23 calls
| DIISManager::add_entry            :      0.000u      0.000s      0.001w     23 calls
| DIISManager::extrapolate          :      0.000u      0.000s      0.002w     23 calls
| | bMatrix setup                   :      0.000u      0.000s      0.000w     23 calls
| | bMatrix pseudoinverse           :      0.000u      0.000s      0.000w     23 calls
| | New vector                      :      0.000u      0.000s      0.001w     23 calls
HF: Form C                          :      0.000u      0.000s      0.001w     23 calls
CIWave: MCSCF integral transform    :      0.050u      0.117s      0.095w     12 calls
| JK: D                             :      0.000u      0.000s      0.000w     12 calls
| JK: JK                            :      0.017u      0.000s      0.009w     12 calls
CIWave: CIvect write                :      0.000u      0.000s      0.002w    216 calls
CIWave: CIvect read                 :      0.000u      0.000s      0.003w    660 calls
CIWave: s2                          :      0.000u      0.000s      0.000w     30 calls
CIWave: s3                          :      0.000u      0.000s      0.000w     30 calls
CIWave: opdm                        :      0.000u      0.000s      0.000w     12 calls
| CIWave: CIvect read               :      0.000u      0.000s      0.000w     24 calls
CIWave: TPDM                        :      0.000u      0.000s      0.001w     12 calls
| CIWave: CIvect read               :      0.000u      0.000s      0.000w     24 calls
| CIWave: TPDM Block                :      0.000u      0.000s      0.000w     12 calls
| CIWave: TPDM Reorder              :      0.000u      0.000s      0.000w     12 calls
SOMCSCF: Compute Gradient           :      0.017u      0.033s      0.021w     11 calls
| JK: D                             :      0.000u      0.000s      0.000w     11 calls
| JK: JK                            :      0.017u      0.017s      0.008w     11 calls
| SOMCSCF: Q matrix                 :      0.000u      0.017s      0.012w     11 calls
SOMCSCF: Approximate hessian        :      0.000u      0.000s      0.000w     11 calls
DFH: sparsity prep                  :      0.017u      0.000s      0.012w      1 calls
DFH: initialize()                   :      0.067u      0.000s      0.039w      1 calls
| DFH: AO Construction              :      0.000u      0.000s      0.002w      1 calls
| DFH: AO-Met. Contraction          :      0.000u      0.000s      0.000w      1 calls
Integrals                           :      0.050u      0.017s      0.046w      1 calls
Method                              :      1.217u      0.217s      0.885w      1 calls
| JK: D                             :      0.000u      0.000s      0.000w     31 calls
| JK: USO2AO                        :      0.000u      0.000s      0.001w     31 calls
| JK: JK                            :      0.800u      0.000s      0.465w     31 calls
| JK: AO2USO                        :      0.000u      0.000s      0.000w     31 calls
| DIISManager::add_entry            :      0.000u      0.000s      0.000w      5 calls
| DIISManager::extrapolate          :      0.000u      0.000s      0.000w      5 calls
| | bMatrix setup                   :      0.000u      0.000s      0.000w      5 calls
| | bMatrix pseudoinverse           :      0.000u      0.000s      0.000w      5 calls
| | New vector                      :      0.000u      0.000s      0.000w      5 calls

**************************************************************************************

Host: Shuhe.Wang

Timers On : Mon Nov 18 16:56:09 2019
Timers Off: Mon Nov 18 16:56:11 2019

Wall Time:        2.60 seconds

                                                       Time (seconds)
Module                                       User      System        Wall        Calls
DFH: sparsity prep                  :      0.017u      0.000s      0.012w      1 calls
DFH: initialize()                   :      0.067u      0.000s      0.040w      1 calls
DFH: AO Construction                :      0.017u      0.000s      0.002w      1 calls
DFH: AO-Met. Contraction            :      0.000u      0.000s      0.000w      1 calls
HF: Form core H                     :      0.000u      0.000s      0.002w      1 calls
HF: Form S/X                        :      0.000u      0.000s      0.000w      1 calls
HF: Guess                           :      0.150u      0.000s      0.098w      1 calls
SAD Guess                           :      0.150u      0.000s      0.096w      1 calls
HF: Form G                          :      0.133u      0.000s      0.070w     15 calls
JK: D                               :      0.017u      0.000s      0.001w     46 calls
JK: USO2AO                          :      0.000u      0.000s      0.001w     46 calls
JK: JK                              :      0.933u      0.000s      0.534w     46 calls
DFH: compute_JK()                   :      0.000u      0.000s      0.001w     10 calls
DFH: Grabbing AOs                   :      0.000u      0.000s      0.000w     10 calls
DFH: compute_J                      :      0.000u      0.000s      0.000w     10 calls
DFH: compute_K                      :      0.000u      0.000s      0.000w     10 calls
JK: AO2USO                          :      0.000u      0.000s      0.000w     46 calls
HF: Form F                          :      0.000u      0.000s      0.000w     15 calls
HF: Form D                          :      0.000u      0.000s      0.000w     15 calls
HF: DIIS                            :      0.050u      0.000s      0.015w     14 calls
DIISManager::add_entry              :      0.000u      0.000s      0.000w     19 calls
DIISManager::extrapolate            :      0.000u      0.000s      0.001w     19 calls
bMatrix setup                       :      0.000u      0.000s      0.000w     19 calls
bMatrix pseudoinverse               :      0.000u      0.000s      0.000w     19 calls
New vector                          :      0.000u      0.000s      0.000w     19 calls
HF: Form C                          :      0.000u      0.000s      0.001w     14 calls
Integrals                           :      0.050u      0.033s      0.043w      1 calls
Method                              :      1.883u      0.200s      1.294w      1 calls

--------------------------------------------------------------------------------------
DFH: sparsity prep                  :      0.017u      0.000s      0.012w      1 calls
DFH: initialize()                   :      0.067u      0.000s      0.040w      1 calls
| DFH: AO Construction              :      0.017u      0.000s      0.002w      1 calls
| DFH: AO-Met. Contraction          :      0.000u      0.000s      0.000w      1 calls
HF: Form core H                     :      0.000u      0.000s      0.002w      1 calls
HF: Form S/X                        :      0.000u      0.000s      0.000w      1 calls
HF: Guess                           :      0.150u      0.000s      0.098w      1 calls
| SAD Guess                         :      0.150u      0.000s      0.096w      1 calls
HF: Form G                          :      0.133u      0.000s      0.070w     15 calls
| JK: D                             :      0.000u      0.000s      0.000w     15 calls
| JK: USO2AO                        :      0.000u      0.000s      0.000w     15 calls
| JK: JK                            :      0.133u      0.000s      0.069w     15 calls
| | DFH: compute_JK()               :      0.000u      0.000s      0.001w     10 calls
| | | DFH: Grabbing AOs             :      0.000u      0.000s      0.000w     10 calls
| | | DFH: compute_J                :      0.000u      0.000s      0.000w     10 calls
| | | DFH: compute_K                :      0.000u      0.000s      0.000w     10 calls
| JK: AO2USO                        :      0.000u      0.000s      0.000w     15 calls
HF: Form F                          :      0.000u      0.000s      0.000w     15 calls
HF: Form D                          :      0.000u      0.000s      0.000w     15 calls
HF: DIIS                            :      0.050u      0.000s      0.015w     14 calls
| DIISManager::add_entry            :      0.000u      0.000s      0.000w     14 calls
| DIISManager::extrapolate          :      0.000u      0.000s      0.001w     14 calls
| | bMatrix setup                   :      0.000u      0.000s      0.000w     14 calls
| | bMatrix pseudoinverse           :      0.000u      0.000s      0.000w     14 calls
| | New vector                      :      0.000u      0.000s      0.000w     14 calls
HF: Form C                          :      0.000u      0.000s      0.001w     14 calls
Integrals                           :      0.050u      0.033s      0.043w      1 calls
Method                              :      1.883u      0.200s      1.294w      1 calls
| JK: D                             :      0.017u      0.000s      0.000w     31 calls
| JK: USO2AO                        :      0.000u      0.000s      0.000w     31 calls
| JK: JK                            :      0.800u      0.000s      0.466w     31 calls
| JK: AO2USO                        :      0.000u      0.000s      0.000w     31 calls
| DIISManager::add_entry            :      0.000u      0.000s      0.000w      5 calls
| DIISManager::extrapolate          :      0.000u      0.000s      0.000w      5 calls
| | bMatrix setup                   :      0.000u      0.000s      0.000w      5 calls
| | bMatrix pseudoinverse           :      0.000u      0.000s      0.000w      5 calls
| | New vector                      :      0.000u      0.000s      0.000w      5 calls

**************************************************************************************

Host: Shuhe.Wang

Timers On : Mon Nov 18 16:59:09 2019
Timers Off: Mon Nov 18 16:59:11 2019

Wall Time:        2.60 seconds

                                                       Time (seconds)
Module                                       User      System        Wall        Calls
DFH: sparsity prep                  :      0.017u      0.000s      0.012w      1 calls
DFH: initialize()                   :      0.067u      0.000s      0.039w      1 calls
DFH: AO Construction                :      0.000u      0.000s      0.002w      1 calls
DFH: AO-Met. Contraction            :      0.017u      0.000s      0.000w      1 calls
HF: Form core H                     :      0.000u      0.000s      0.001w      1 calls
HF: Form S/X                        :      0.000u      0.000s      0.000w      1 calls
HF: Guess                           :      0.150u      0.000s      0.099w      1 calls
SAD Guess                           :      0.150u      0.000s      0.096w      1 calls
HF: Form G                          :      0.117u      0.000s      0.070w     15 calls
JK: D                               :      0.000u      0.000s      0.001w     46 calls
JK: USO2AO                          :      0.000u      0.000s      0.001w     46 calls
JK: JK                              :      0.817u      0.000s      0.529w     46 calls
DFH: compute_JK()                   :      0.000u      0.000s      0.001w     10 calls
DFH: Grabbing AOs                   :      0.000u      0.000s      0.000w     10 calls
DFH: compute_J                      :      0.000u      0.000s      0.000w     10 calls
DFH: compute_K                      :      0.000u      0.000s      0.000w     10 calls
JK: AO2USO                          :      0.000u      0.000s      0.000w     46 calls
HF: Form F                          :      0.000u      0.000s      0.000w     15 calls
HF: Form D                          :      0.000u      0.000s      0.000w     15 calls
HF: DIIS                            :      0.000u      0.000s      0.015w     14 calls
DIISManager::add_entry              :      0.000u      0.000s      0.000w     19 calls
DIISManager::extrapolate            :      0.000u      0.000s      0.001w     19 calls
bMatrix setup                       :      0.000u      0.000s      0.000w     19 calls
bMatrix pseudoinverse               :      0.000u      0.000s      0.000w     19 calls
New vector                          :      0.000u      0.000s      0.000w     19 calls
HF: Form C                          :      0.017u      0.000s      0.001w     14 calls
Integrals                           :      0.050u      0.033s      0.043w      1 calls
Method                              :      1.883u      0.200s      1.286w      1 calls

--------------------------------------------------------------------------------------
DFH: sparsity prep                  :      0.017u      0.000s      0.012w      1 calls
DFH: initialize()                   :      0.067u      0.000s      0.039w      1 calls
| DFH: AO Construction              :      0.000u      0.000s      0.002w      1 calls
| DFH: AO-Met. Contraction          :      0.017u      0.000s      0.000w      1 calls
HF: Form core H                     :      0.000u      0.000s      0.001w      1 calls
HF: Form S/X                        :      0.000u      0.000s      0.000w      1 calls
HF: Guess                           :      0.150u      0.000s      0.099w      1 calls
| SAD Guess                         :      0.150u      0.000s      0.096w      1 calls
HF: Form G                          :      0.117u      0.000s      0.070w     15 calls
| JK: D                             :      0.000u      0.000s      0.000w     15 calls
| JK: USO2AO                        :      0.000u      0.000s      0.000w     15 calls
| JK: JK                            :      0.117u      0.000s      0.070w     15 calls
| | DFH: compute_JK()               :      0.000u      0.000s      0.001w     10 calls
| | | DFH: Grabbing AOs             :      0.000u      0.000s      0.000w     10 calls
| | | DFH: compute_J                :      0.000u      0.000s      0.000w     10 calls
| | | DFH: compute_K                :      0.000u      0.000s      0.000w     10 calls
| JK: AO2USO                        :      0.000u      0.000s      0.000w     15 calls
HF: Form F                          :      0.000u      0.000s      0.000w     15 calls
HF: Form D                          :      0.000u      0.000s      0.000w     15 calls
HF: DIIS                            :      0.000u      0.000s      0.015w     14 calls
| DIISManager::add_entry            :      0.000u      0.000s      0.000w     14 calls
| DIISManager::extrapolate          :      0.000u      0.000s      0.001w     14 calls
| | bMatrix setup                   :      0.000u      0.000s      0.000w     14 calls
| | bMatrix pseudoinverse           :      0.000u      0.000s      0.000w     14 calls
| | New vector                      :      0.000u      0.000s      0.000w     14 calls
HF: Form C                          :      0.017u      0.000s      0.001w     14 calls
Integrals                           :      0.050u      0.033s      0.043w      1 calls
Method                              :      1.883u      0.200s      1.286w      1 calls
| JK: D                             :      0.000u      0.000s      0.000w     31 calls
| JK: USO2AO                        :      0.000u      0.000s      0.000w     31 calls
| JK: JK                            :      0.700u      0.000s      0.459w     31 calls
| JK: AO2USO                        :      0.000u      0.000s      0.000w     31 calls
| DIISManager::add_entry            :      0.000u      0.000s      0.000w      5 calls
| DIISManager::extrapolate          :      0.000u      0.000s      0.000w      5 calls
| | bMatrix setup                   :      0.000u      0.000s      0.000w      5 calls
| | bMatrix pseudoinverse           :      0.000u      0.000s      0.000w      5 calls
| | New vector                      :      0.000u      0.000s      0.000w      5 calls

**************************************************************************************

Host: Shuhe.Wang

Timers On : Mon Nov 18 17:02:05 2019
Timers Off: Mon Nov 18 17:02:08 2019

Wall Time:        2.75 seconds

                                                       Time (seconds)
Module                                       User      System        Wall        Calls
DFH: sparsity prep                  :      0.017u      0.000s      0.014w      1 calls
DFH: initialize()                   :      0.050u      0.000s      0.039w      1 calls
DFH: AO Construction                :      0.000u      0.000s      0.002w      1 calls
DFH: AO-Met. Contraction            :      0.000u      0.000s      0.000w      1 calls
HF: Form core H                     :      0.000u      0.000s      0.001w      1 calls
HF: Form S/X                        :      0.000u      0.000s      0.000w      1 calls
HF: Guess                           :      0.167u      0.017s      0.104w      1 calls
SAD Guess                           :      0.150u      0.017s      0.101w      1 calls
HF: Form G                          :      0.133u      0.000s      0.074w     15 calls
JK: D                               :      0.000u      0.000s      0.001w     46 calls
JK: USO2AO                          :      0.000u      0.000s      0.001w     46 calls
JK: JK                              :      0.933u      0.000s      0.546w     46 calls
DFH: compute_JK()                   :      0.000u      0.000s      0.001w     10 calls
DFH: Grabbing AOs                   :      0.000u      0.000s      0.000w     10 calls
DFH: compute_J                      :      0.000u      0.000s      0.000w     10 calls
DFH: compute_K                      :      0.000u      0.000s      0.000w     10 calls
JK: AO2USO                          :      0.000u      0.000s      0.000w     46 calls
HF: Form F                          :      0.000u      0.000s      0.000w     15 calls
HF: Form D                          :      0.000u      0.000s      0.000w     15 calls
HF: DIIS                            :      0.017u      0.000s      0.017w     14 calls
DIISManager::add_entry              :      0.000u      0.000s      0.000w     19 calls
DIISManager::extrapolate            :      0.000u      0.000s      0.001w     19 calls
bMatrix setup                       :      0.000u      0.000s      0.000w     19 calls
bMatrix pseudoinverse               :      0.000u      0.000s      0.000w     19 calls
New vector                          :      0.000u      0.000s      0.000w     19 calls
HF: Form C                          :      0.000u      0.000s      0.001w     14 calls
Integrals                           :      0.050u      0.017s      0.049w      1 calls
Method                              :      1.933u      0.217s      1.313w      1 calls

--------------------------------------------------------------------------------------
DFH: sparsity prep                  :      0.017u      0.000s      0.014w      1 calls
DFH: initialize()                   :      0.050u      0.000s      0.039w      1 calls
| DFH: AO Construction              :      0.000u      0.000s      0.002w      1 calls
| DFH: AO-Met. Contraction          :      0.000u      0.000s      0.000w      1 calls
HF: Form core H                     :      0.000u      0.000s      0.001w      1 calls
HF: Form S/X                        :      0.000u      0.000s      0.000w      1 calls
HF: Guess                           :      0.167u      0.017s      0.104w      1 calls
| SAD Guess                         :      0.150u      0.017s      0.101w      1 calls
HF: Form G                          :      0.133u      0.000s      0.074w     15 calls
| JK: D                             :      0.000u      0.000s      0.000w     15 calls
| JK: USO2AO                        :      0.000u      0.000s      0.000w     15 calls
| JK: JK                            :      0.133u      0.000s      0.073w     15 calls
| | DFH: compute_JK()               :      0.000u      0.000s      0.001w     10 calls
| | | DFH: Grabbing AOs             :      0.000u      0.000s      0.000w     10 calls
| | | DFH: compute_J                :      0.000u      0.000s      0.000w     10 calls
| | | DFH: compute_K                :      0.000u      0.000s      0.000w     10 calls
| JK: AO2USO                        :      0.000u      0.000s      0.000w     15 calls
HF: Form F                          :      0.000u      0.000s      0.000w     15 calls
HF: Form D                          :      0.000u      0.000s      0.000w     15 calls
HF: DIIS                            :      0.017u      0.000s      0.017w     14 calls
| DIISManager::add_entry            :      0.000u      0.000s      0.000w     14 calls
| DIISManager::extrapolate          :      0.000u      0.000s      0.001w     14 calls
| | bMatrix setup                   :      0.000u      0.000s      0.000w     14 calls
| | bMatrix pseudoinverse           :      0.000u      0.000s      0.000w     14 calls
| | New vector                      :      0.000u      0.000s      0.000w     14 calls
HF: Form C                          :      0.000u      0.000s      0.001w     14 calls
Integrals                           :      0.050u      0.017s      0.049w      1 calls
Method                              :      1.933u      0.217s      1.313w      1 calls
| JK: D                             :      0.000u      0.000s      0.000w     31 calls
| JK: USO2AO                        :      0.000u      0.000s      0.001w     31 calls
| JK: JK                            :      0.800u      0.000s      0.473w     31 calls
| JK: AO2USO                        :      0.000u      0.000s      0.000w     31 calls
[...]
HF: DIIS                            :      0.050u      0.000s      0.019w     16 calls
| DIISManager::add_entry            :      0.000u      0.000s      0.000w     16 calls
| DIISManager::extrapolate          :      0.000u      0.000s      0.001w     16 calls
| | bMatrix setup                   :      0.000u      0.000s      0.000w     16 calls
| | bMatrix pseudoinverse           :      0.000u      0.000s      0.000w     16 calls
| | New vector                      :      0.000u      0.000s      0.000w     16 calls
HF: Form C                          :      0.000u      0.000s      0.001w     16 calls
Integrals                           :      0.050u      0.033s      0.044w      1 calls
Method                              :      2.350u      0.333s      1.677w      1 calls
| JK: D                             :      0.000u      0.000s      0.001w     46 calls
| JK: USO2AO                        :      0.017u      0.000s      0.002w     46 calls
| JK: JK                            :      1.183u      0.000s      0.681w     46 calls
| JK: AO2USO                        :      0.000u      0.000s      0.000w     46 calls
| DIISManager::add_entry            :      0.000u      0.000s      0.000w      9 calls
| DIISManager::extrapolate          :      0.000u      0.000s      0.000w      9 calls
| | bMatrix setup                   :      0.000u      0.000s      0.000w      9 calls
| | bMatrix pseudoinverse           :      0.000u      0.000s      0.000w      9 calls
| | New vector                      :      0.000u      0.000s      0.000w      9 calls

**************************************************************************************

Host: Shuhe.Wang

Timers On : Tue Nov 26 14:31:38 2019
Timers Off: Tue Nov 26 14:31:42 2019

Wall Time:        4.11 seconds

                                                       Time (seconds)
Module                                       User      System        Wall        Calls
DFH: sparsity prep                  :      0.033u      0.000s      0.019w      1 calls
DFH: initialize()                   :      0.067u      0.000s      0.045w      1 calls
DFH: AO Construction                :      0.000u      0.000s      0.002w      1 calls
DFH: AO-Met. Contraction            :      0.000u      0.000s      0.000w      1 calls
HF: Form core H                     :      0.000u      0.000s      0.002w      1 calls
HF: Form S/X                        :      0.000u      0.000s      0.001w      1 calls
HF: Guess                           :      0.167u      0.000s      0.111w      1 calls
SAD Guess                           :      0.167u      0.000s      0.108w      1 calls
HF: Form G                          :      0.133u      0.000s      0.090w     17 calls
JK: D                               :      0.000u      0.000s      0.001w     63 calls
JK: USO2AO                          :      0.000u      0.000s      0.002w     63 calls
JK: JK                              :      1.300u      0.000s      0.796w     63 calls
DFH: compute_JK()                   :      0.000u      0.000s      0.001w     11 calls
DFH: Grabbing AOs                   :      0.000u      0.000s      0.000w     11 calls
DFH: compute_J                      :      0.000u      0.000s      0.000w     11 calls
DFH: compute_K                      :      0.000u      0.000s      0.000w     11 calls
JK: AO2USO                          :      0.000u      0.000s      0.000w     63 calls
HF: Form F                          :      0.000u      0.000s      0.001w     17 calls
HF: Form D                          :      0.000u      0.000s      0.000w     17 calls
HF: DIIS                            :      0.050u      0.000s      0.020w     16 calls
DIISManager::add_entry              :      0.000u      0.000s      0.000w     25 calls
DIISManager::extrapolate            :      0.000u      0.000s      0.002w     25 calls
bMatrix setup                       :      0.000u      0.000s      0.000w     25 calls
bMatrix pseudoinverse               :      0.000u      0.000s      0.001w     25 calls
New vector                          :      0.000u      0.000s      0.000w     25 calls
HF: Form C                          :      0.000u      0.000s      0.001w     16 calls
Integrals                           :      0.050u      0.017s      0.050w      1 calls
Method                              :      2.450u      0.333s      1.720w      1 calls

--------------------------------------------------------------------------------------
DFH: sparsity prep                  :      0.033u      0.000s      0.019w      1 calls
DFH: initialize()                   :      0.067u      0.000s      0.045w      1 calls
| DFH: AO Construction              :      0.000u      0.000s      0.002w      1 calls
| DFH: AO-Met. Contraction          :      0.000u      0.000s      0.000w      1 calls
HF: Form core H                     :      0.000u      0.000s      0.002w      1 calls
HF: Form S/X                        :      0.000u      0.000s      0.001w      1 calls
HF: Guess                           :      0.167u      0.000s      0.111w      1 calls
| SAD Guess                         :      0.167u      0.000s      0.108w      1 calls
HF: Form G                          :      0.133u      0.000s      0.090w     17 calls
| JK: D                             :      0.000u      0.000s      0.000w     17 calls
| JK: USO2AO                        :      0.000u      0.000s      0.000w     17 calls
| JK: JK                            :      0.133u      0.000s      0.088w     17 calls
| | DFH: compute_JK()               :      0.000u      0.000s      0.001w     11 calls
| | | DFH: Grabbing AOs             :      0.000u      0.000s      0.000w     11 calls
| | | DFH: compute_J                :      0.000u      0.000s      0.000w     11 calls
| | | DFH: compute_K                :      0.000u      0.000s      0.000w     11 calls
| JK: AO2USO                        :      0.000u      0.000s      0.000w     17 calls
HF: Form F                          :      0.000u      0.000s      0.001w     17 calls
HF: Form D                          :      0.000u      0.000s      0.000w     17 calls
HF: DIIS                            :      0.050u      0.000s      0.020w     16 calls
| DIISManager::add_entry            :      0.000u      0.000s      0.000w     16 calls
| DIISManager::extrapolate          :      0.000u      0.000s      0.001w     16 calls
| | bMatrix setup                   :      0.000u      0.000s      0.000w     16 calls
| | bMatrix pseudoinverse           :      0.000u      0.000s      0.000w     16 calls
| | New vector                      :      0.000u      0.000s      0.000w     16 calls
HF: Form C                          :      0.000u      0.000s      0.001w     16 calls
Integrals                           :      0.050u      0.017s      0.050w      1 calls
Method                              :      2.450u      0.333s      1.720w      1 calls
| JK: D                             :      0.000u      0.000s      0.001w     46 calls
| JK: USO2AO                        :      0.000u      0.000s      0.002w     46 calls
| JK: JK                            :      1.167u      0.000s      0.708w     46 calls
| JK: AO2USO                        :      0.000u      0.000s      0.000w     46 calls
| DIISManager::add_entry            :      0.000u      0.000s      0.000w      9 calls
| DIISManager::extrapolate          :      0.000u      0.000s      0.001w      9 calls
| | bMatrix setup                   :      0.000u      0.000s      0.000w      9 calls
| | bMatrix pseudoinverse           :      0.000u      0.000s      0.000w      9 calls
| | New vector                      :      0.000u      0.000s      0.000w      9 calls

**************************************************************************************

Host: Shuhe.Wang

Timers On : Tue Nov 26 16:23:37 2019
Timers Off: Tue Nov 26 16:23:41 2019

Wall Time:        3.18 seconds

                                                       Time (seconds)
Module                                       User      System        Wall        Calls
DFH: sparsity prep                  :      0.017u      0.000s      0.019w      1 calls
DFH: initialize()                   :      0.067u      0.017s      0.065w      1 calls
DFH: AO Construction                :      0.000u      0.000s      0.003w      1 calls
DFH: AO-Met. Contraction            :      0.000u      0.000s      0.000w      1 calls
HF: Form core H                     :      0.000u      0.000s      0.002w      1 calls
HF: Form S/X                        :      0.000u      0.000s      0.002w      1 calls
HF: Guess                           :      0.183u      0.000s      0.122w      1 calls
SAD Guess                           :      0.167u      0.000s      0.116w      1 calls
HF: Form G                          :      0.150u      0.017s      0.090w     17 calls
JK: D                               :      0.000u      0.000s      0.001w     63 calls
JK: USO2AO                          :      0.000u      0.000s      0.002w     63 calls
JK: JK                              :      1.350u      0.000s      0.773w     63 calls
DFH: compute_JK()                   :      0.000u      0.000s      0.001w     11 calls
DFH: Grabbing AOs                   :      0.000u      0.000s      0.000w     11 calls
DFH: compute_J                      :      0.000u      0.000s      0.000w     11 calls
DFH: compute_K                      :      0.000u      0.000s      0.000w     11 calls
JK: AO2USO                          :      0.000u      0.000s      0.001w     63 calls
HF: Form F                          :      0.000u      0.000s      0.001w     17 calls
HF: Form D                          :      0.000u      0.000s      0.000w     17 calls
HF: DIIS                            :      0.033u      0.000s      0.020w     16 calls
DIISManager::add_entry              :      0.000u      0.000s      0.000w     25 calls
DIISManager::extrapolate            :      0.000u      0.000s      0.001w     25 calls
bMatrix setup                       :      0.000u      0.000s      0.000w     25 calls
bMatrix pseudoinverse               :      0.000u      0.000s      0.001w     25 calls
New vector                          :      0.000u      0.000s      0.000w     25 calls
HF: Form C                          :      0.000u      0.000s      0.001w     16 calls
Integrals                           :      0.050u      0.033s      0.051w      1 calls
Method                              :      2.400u      0.317s      1.686w      1 calls

--------------------------------------------------------------------------------------
DFH: sparsity prep                  :      0.017u      0.000s      0.019w      1 calls
DFH: initialize()                   :      0.067u      0.017s      0.065w      1 calls
| DFH: AO Construction              :      0.000u      0.000s      0.003w      1 calls
| DFH: AO-Met. Contraction          :      0.000u      0.000s      0.000w      1 calls
HF: Form core H                     :      0.000u      0.000s      0.002w      1 calls
HF: Form S/X                        :      0.000u      0.000s      0.002w      1 calls
HF: Guess                           :      0.183u      0.000s      0.122w      1 calls
| SAD Guess                         :      0.167u      0.000s      0.116w      1 calls
HF: Form G                          :      0.150u      0.017s      0.090w     17 calls
| JK: D                             :      0.000u      0.000s      0.000w     17 calls
| JK: USO2AO                        :      0.000u      0.000s      0.000w     17 calls
| JK: JK                            :      0.150u      0.000s      0.087w     17 calls
| | DFH: compute_JK()               :      0.000u      0.000s      0.001w     11 calls
| | | DFH: Grabbing AOs             :      0.000u      0.000s      0.000w     11 calls
| | | DFH: compute_J                :      0.000u      0.000s      0.000w     11 calls
| | | DFH: compute_K                :      0.000u      0.000s      0.000w     11 calls
| JK: AO2USO                        :      0.000u      0.000s      0.000w     17 calls
HF: Form F                          :      0.000u      0.000s      0.001w     17 calls
HF: Form D                          :      0.000u      0.000s      0.000w     17 calls
HF: DIIS                            :      0.033u      0.000s      0.020w     16 calls
| DIISManager::add_entry            :      0.000u      0.000s      0.000w     16 calls
| DIISManager::extrapolate          :      0.000u      0.000s      0.001w     16 calls
| | bMatrix setup                   :      0.000u      0.000s      0.000w     16 calls
| | bMatrix pseudoinverse           :      0.000u      0.000s      0.000w     16 calls
| | New vector                      :      0.000u      0.000s      0.000w     16 calls
HF: Form C                          :      0.000u      0.000s      0.001w     16 calls
Integrals                           :      0.050u      0.033s      0.051w      1 calls
Method                              :      2.400u      0.317s      1.686w      1 calls
| JK: D                             :      0.000u      0.000s      0.001w     46 calls
| JK: USO2AO                        :      0.000u      0.000s      0.002w     46 calls
| JK: JK                            :      1.200u      0.000s      0.685w     46 calls
| JK: AO2USO                        :      0.000u      0.000s      0.000w     46 calls
| DIISManager::add_entry            :      0.000u      0.000s      0.000w      9 calls
| DIISManager::extrapolate          :      0.000u      0.000s      0.001w      9 calls
| | bMatrix setup                   :      0.000u      0.000s      0.000w      9 calls
| | bMatrix pseudoinverse           :      0.000u      0.000s      0.000w      9 calls
| | New vector                      :      0.000u      0.000s      0.000w      9 calls

**************************************************************************************

Host: Shuhe.Wang

Timers On : Tue Nov 26 16:24:20 2019
Timers Off: Tue Nov 26 16:24:23 2019

Wall Time:        2.55 seconds

                                                       Time (seconds)
Module                                       User      System        Wall        Calls
DFH: sparsity prep                  :      0.017u      0.000s      0.013w      1 calls
DFH: initialize()                   :      0.067u      0.000s      0.039w      1 calls
DFH: AO Construction                :      0.000u      0.000s      0.002w      1 calls
DFH: AO-Met. Contraction            :      0.000u      0.000s      0.000w      1 calls
HF: Form core H                     :      0.000u      0.000s      0.002w      1 calls
HF: Form S/X                        :      0.000u      0.000s      0.000w      1 calls
HF: Guess                           :      0.167u      0.017s      0.102w      1 calls
SAD Guess                           :      0.150u      0.017s      0.100w      1 calls
HF: Form G                          :      0.150u      0.000s      0.087w     17 calls
JK: D                               :      0.000u      0.000s      0.001w     63 calls
JK: USO2AO                          :      0.000u      0.000s      0.002w     63 calls
JK: JK                              :      1.267u      0.000s      0.771w     63 calls
DFH: compute_JK()                   :      0.000u      0.000s      0.001w     11 calls
DFH: Grabbing AOs                   :      0.000u      0.000s      0.000w     11 calls
DFH: compute_J                      :      0.000u      0.000s      0.000w     11 calls
DFH: compute_K                      :      0.000u      0.000s      0.000w     11 calls
JK: AO2USO                          :      0.000u      0.000s      0.001w     63 calls
HF: Form F                          :      0.000u      0.000s      0.000w     17 calls
HF: Form D                          :      0.000u      0.000s      0.000w     17 calls
HF: DIIS                            :      0.017u      0.000s      0.019w     16 calls
DIISManager::add_entry              :      0.000u      0.000s      0.000w     25 calls
DIISManager::extrapolate            :      0.000u      0.000s      0.001w     25 calls
bMatrix setup                       :      0.000u      0.000s      0.000w     25 calls
bMatrix pseudoinverse               :      0.000u      0.000s      0.001w     25 calls
New vector                          :      0.000u      0.000s      0.000w     25 calls
HF: Form C                          :      0.017u      0.000s      0.001w     16 calls
Integrals                           :      0.050u      0.017s      0.043w      1 calls
Method                              :      2.383u      0.300s      1.661w      1 calls

--------------------------------------------------------------------------------------
DFH: sparsity prep                  :      0.017u      0.000s      0.013w      1 calls
DFH: initialize()                   :      0.067u      0.000s      0.039w      1 calls
| DFH: AO Construction              :      0.000u      0.000s      0.002w      1 calls
| DFH: AO-Met. Contraction          :      0.000u      0.000s      0.000w      1 calls
HF: Form core H                     :      0.000u      0.000s      0.002w      1 calls
HF: Form S/X                        :      0.000u      0.000s      0.000w      1 calls
HF: Guess                           :      0.167u      0.017s      0.102w      1 calls
| SAD Guess                         :      0.150u      0.017s      0.100w      1 calls
HF: Form G                          :      0.150u      0.000s      0.087w     17 calls
| JK: D                             :      0.000u      0.000s      0.000w     17 calls
| JK: USO2AO                        :      0.000u      0.000s      0.000w     17 calls
| JK: JK                            :      0.150u      0.000s      0.086w     17 calls
| | DFH: compute_JK()               :      0.000u      0.000s      0.001w     11 calls
| | | DFH: Grabbing AOs             :      0.000u      0.000s      0.000w     11 calls
| | | DFH: compute_J                :      0.000u      0.000s      0.000w     11 calls
| | | DFH: compute_K                :      0.000u      0.000s      0.000w     11 calls
| JK: AO2USO                        :      0.000u      0.000s      0.000w     17 calls
HF: Form F                          :      0.000u      0.000s      0.000w     17 calls
HF: Form D                          :      0.000u      0.000s      0.000w     17 calls
HF: DIIS                            :      0.017u      0.000s      0.019w     16 calls
| DIISManager::add_entry            :      0.000u      0.000s      0.000w     16 calls
| DIISManager::extrapolate          :      0.000u      0.000s      0.001w     16 calls
| | bMatrix setup                   :      0.000u      0.000s      0.000w     16 calls
| | bMatrix pseudoinverse           :      0.000u      0.000s      0.000w     16 calls
| | New vector                      :      0.000u      0.000s      0.000w     16 calls
HF: Form C                          :      0.017u      0.000s      0.001w     16 calls
Integrals                           :      0.050u      0.017s      0.043w      1 calls
Method                              :      2.383u      0.300s      1.661w      1 calls
| JK: D                             :      0.000u      0.000s      0.001w     46 calls
| JK: USO2AO                        :      0.000u      0.000s      0.002w     46 calls
| JK: JK                            :      1.117u      0.000s      0.685w     46 calls
| JK: AO2USO                        :      0.000u      0.000s      0.000w     46 calls
| DIISManager::add_entry            :      0.000u      0.000s      0.000w      9 calls
| DIISManager::extrapolate          :      0.000u      0.000s      0.001w      9 calls
| | bMatrix setup                   :      0.000u      0.000s      0.000w      9 calls
| | bMatrix pseudoinverse           :      0.000u      0.000s      0.000w      9 calls
| | New vector                      :      0.000u      0.000s      0.000w      9 calls

**************************************************************************************
