
    -----------------------------------------------------------------------
          Psi4: An Open-Source Ab Initio Electronic Structure Package
                               Psi4 1.10a1.dev49 

                         Git: Rev {master} 82ce595 


    D. G. A. Smith, L. A. Burns, A. C. Simmonett, R. M. Parrish,
    M. C. Schieber, R. Galvelis, P. Kraus, H. Kruse, R. Di Remigio,
    A. Alenaizan, A. M. James, S. Lehtola, J. P. Misiewicz, M. Scheurer,
    R. A. Shaw, J. B. Schriber, Y. Xie, Z. L. Glick, D. A. Sirianni,
    J. S. O'Brien, J. M. Waldrop, A. Kumar, E. G. Hohenstein,
    B. P. Pritchard, B. R. Brooks, H. F. Schaefer III, A. Yu. Sokolov,
    K. Patkowski, A. E. DePrince III, U. Bozkaya, R. A. King,
    F. A. Evangelista, J. M. Turney, T. D. Crawford, C. D. Sherrill,
    J. Chem. Phys. 152(18) 184108 (2020). https://doi.org/10.1063/5.0006002

                            Additional Code Authors
    E. T. Seidl, C. L. Janssen, E. F. Valeev, M. L. Leininger,
    J. F. Gonthier, R. M. Richard, H. R. McAlexander, M. Saitow, X. Wang,
    P. Verma, M. H. Lechner, A. Jiang, S. Behnle, A. G. Heide,
    M. F. Herbst, and D. L. Poole

             Previous Authors, Complete List of Code Contributors,
                       and Citations for Specific Modules
    https://github.com/psi4/psi4/blob/master/codemeta.json
    https://github.com/psi4/psi4/graphs/contributors
    http://psicode.org/psi4manual/master/introduction.html#citing-psifour

    -----------------------------------------------------------------------


    Psi4 started on: Thursday, 17 October 2024 09:50AM

    Process ID: 8166
    Host:       MacBook-Pro-347.attlocal.net
    PSIDATADIR: /Users/fevange/Source/psi4/objdir-Release/stage/share/psi4
    Memory:     500.0 MiB
    Threads:    1
    
  ==> Input File <==

--------------------------------------------------------------------------
import forte

memory 500 mb

molecule HF{
F
H  1 R
symmetry c1
}

set {
  basis                   6-31G
  reference               rhf
  scf_type                df
  df_basis_scf            cc-pvdz-jkfit
  df_basis_mp2            cc-pvdz-jkfit
  d_convergence           8
  e_convergence           9
}

HF.R = 1.5

set forte{
  int_type                df
  frozen_docc             [1]
  restricted_docc         [3]
  active                  [2]
  active_space_solver     fci
  mcscf_maxiter           25
  mcscf_e_convergence     12
  mcscf_g_convergence     7
  print                   0
  mcscf_ignore_frozen_orbs false
}

_,wfn = energy('forte',return_wfn=True)
wfn.to_file('cas_ref.npy')
--------------------------------------------------------------------------

  Memory set to 476.837 MiB by Python driver.
Molecule: geometry: Molecule is not complete, please use 'update_geometry'
                    once all variables are set.
Molecule: Setting geometry variable R to 1.500000

Scratch directory: /tmp/

  Forte
  ----------------------------------------------------------------------------
  A suite of quantum chemistry methods for strongly correlated electrons

    git branch: main - git commit: ec4d442a

  Developed by:
    Francesco A. Evangelista, Chenyang Li, Kevin P. Hannon,
    Jeffrey B. Schriber, Tianyuan Zhang, Chenxi Cai,
    Nan He, Nicholas Stair, Shuhe Wang, Renke Huang
  ----------------------------------------------------------------------------


  Preparing forte objects from a Psi4 Wavefunction object   => Libint2 <=

    Primary   basis highest AM E, G, H:  6, 6, 3
    Auxiliary basis highest AM E, G, H:  7, 7, 4
    Onebody   basis highest AM E, G, H:  -, -, -
    Solid Harmonics ordering:            Gaussian

*** tstart() called on MacBook-Pro-347.attlocal.net
*** at Thu Oct 17 09:50:17 2024

   => Loading Basis Set <=

    Name: 6-31G
    Role: ORBITAL
    Keyword: BASIS
    atoms 1 entry F          line   132 file /Users/fevange/Source/psi4/objdir-Release/stage/share/psi4/basis/6-31g.gbs 
    atoms 2 entry H          line    26 file /Users/fevange/Source/psi4/objdir-Release/stage/share/psi4/basis/6-31g.gbs 


         ---------------------------------------------------------
                                   SCF
               by Justin Turney, Rob Parrish, Andy Simmonett
                          and Daniel G. A. Smith
                              RHF Reference
                        1 Threads,    476 MiB Core
         ---------------------------------------------------------

  ==> Geometry <==

    Molecular point group: c1
    Full point group: C_inf_v

    Geometry (in Angstrom), charge = 0, multiplicity = 1:

       Center              X                  Y                   Z               Mass       
    ------------   -----------------  -----------------  -----------------  -----------------
         F            0.000000000000     0.000000000000    -0.075563346255    18.998403162730
         H            0.000000000000     0.000000000000     1.424436653745     1.007825032230

  Running in c1 symmetry.

  Rotational constants: A = ************  B =      7.82847  C =      7.82847 [cm^-1]
  Rotational constants: A = ************  B = 234691.66104  C = 234691.66104 [MHz]
  Nuclear repulsion =    3.175063264020000

  Charge       = 0
  Multiplicity = 1
  Electrons    = 10
  Nalpha       = 5
  Nbeta        = 5

  ==> Algorithm <==

  SCF Algorithm Type is DF.
  DIIS enabled.
  MOM disabled.
  Fractional occupation disabled.
  Guess Type is SAD.
  Energy threshold   = 1.00e-09
  Density threshold  = 1.00e-08
  Integral threshold = 1.00e-12

  ==> Primary Basis <==

  Basis Set: 6-31G
    Blend: 6-31G
    Number of shells: 7
    Number of basis functions: 11
    Number of Cartesian functions: 11
    Spherical Harmonics?: false
    Max angular momentum: 1

   => Loading Basis Set <=

    Name: CC-PVDZ-JKFIT
    Role: JKFIT
    Keyword: DF_BASIS_SCF
    atoms 1 entry F          line   271 file /Users/fevange/Source/psi4/objdir-Release/stage/share/psi4/basis/cc-pvdz-jkfit.gbs 
    atoms 2 entry H          line    51 file /Users/fevange/Source/psi4/objdir-Release/stage/share/psi4/basis/cc-pvdz-jkfit.gbs 

  ==> Integral Setup <==

  DFHelper Memory: AOs need 0.000 GiB; user supplied 0.349 GiB. 
  SCF_SUBTYPE=INCORE selected. In-core MEM_DF algorithm will be used.
  Using in-core AOs.

  ==> MemDFJK: Density-Fitted J/K Matrices <==

    J tasked:                   Yes
    K tasked:                   Yes
    wK tasked:                   No
    OpenMP threads:               1
    Memory [MiB]:               357
    Algorithm:                 Core
    Schwarz Cutoff:           1E-12
    Mask sparsity (%):       0.0000
    Fitting Condition:        1E-10

   => Auxiliary Basis Set <=

  Basis Set: CC-PVDZ-JKFIT
    Blend: CC-PVDZ-JKFIT
    Number of shells: 33
    Number of basis functions: 106
    Number of Cartesian functions: 106
    Spherical Harmonics?: false
    Max angular momentum: 3

  Minimum eigenvalue in the overlap matrix is 1.8292270761E-01.
  Reciprocal condition number of the overlap matrix is 8.1583719978E-02.
    Using symmetric orthogonalization.

  ==> Pre-Iterations <==

  SCF Guess: Superposition of Atomic Densities via on-the-fly atomic UHF (no occupation information).

   -------------------------
    Irrep   Nso     Nmo    
   -------------------------
     A         11      11 
   -------------------------
    Total      11      11
   -------------------------

  ==> Iterations <==

                           Total Energy        Delta E     RMS |[F,P]|

   @DF-RHF iter SAD:   -99.67530917858782   -9.96753e+01   0.00000e+00 
   @DF-RHF iter   1:   -99.82272684845522   -1.47418e-01   1.29164e-02 ADIIS/DIIS
   @DF-RHF iter   2:   -99.84996411877789   -2.72373e-02   9.47209e-03 ADIIS/DIIS
   @DF-RHF iter   3:   -99.85374734614663   -3.78323e-03   2.61111e-03 ADIIS/DIIS
   @DF-RHF iter   4:   -99.85495151872487   -1.20417e-03   1.13463e-03 ADIIS/DIIS
   @DF-RHF iter   5:   -99.85503432530395   -8.28066e-05   5.82584e-05 DIIS
   @DF-RHF iter   6:   -99.85503483402000   -5.08716e-07   6.05066e-06 DIIS
   @DF-RHF iter   7:   -99.85503483786363   -3.84362e-09   9.19266e-07 DIIS
   @DF-RHF iter   8:   -99.85503483793515   -7.15232e-11   3.40222e-08 DIIS
   @DF-RHF iter   9:   -99.85503483793535   -1.98952e-13   1.59314e-09 DIIS
  Energy and wave function converged.


  ==> Post-Iterations <==

    Orbital Energies [Eh]
    ---------------------

    Doubly Occupied:                                                      

       1A    -26.280881     2A     -1.484595     3A     -0.597912  
       4A     -0.597912     5A     -0.563050  

    Virtual:                                                              

       6A      0.020016     7A      0.896716     8A      1.516467  
       9A      1.516467    10A      1.634802    11A      1.798831  

    Final Occupation by Irrep:
              A 
    DOCC [     5 ]
    NA   [     5 ]
    NB   [     5 ]

  @DF-RHF Final Energy:   -99.85503483793535

   => Energetics <=

    Nuclear Repulsion Energy =              3.1750632640200003
    One-Electron Energy =                -147.0114942199217580
    Two-Electron Energy =                  43.9813961179664261
    Total Energy =                        -99.8550348379353352

Computation Completed


Properties will be evaluated at   0.000000,   0.000000,   0.000000 [a0]

Properties computed using the SCF density matrix


 Multipole Moments:

 ------------------------------------------------------------------------------------
     Multipole            Electronic (a.u.)      Nuclear  (a.u.)        Total (a.u.)
 ------------------------------------------------------------------------------------

 L = 1.  Multiply by 2.5417464519 to convert [e a0] to [Debye]
 Dipole X            :          0.0000000            0.0000000            0.0000000
 Dipole Y            :         -0.0000000            0.0000000           -0.0000000
 Dipole Z            :         -0.2418281            1.4066489            1.1648208
 Magnitude           :                                                    1.1648208

 ------------------------------------------------------------------------------------

*** tstop() called on MacBook-Pro-347.attlocal.net at Thu Oct 17 09:50:17 2024
Module time:
	user time   =       0.07 seconds =       0.00 minutes
	system time =       0.00 seconds =       0.00 minutes
	total time  =          0 seconds =       0.00 minutes
Total time:
	user time   =       0.07 seconds =       0.00 minutes
	system time =       0.00 seconds =       0.00 minutes
	total time  =          0 seconds =       0.00 minutes


  ==> MO Space Information <==

  -------------------------------
                        A   Sum
  -------------------------------
    FROZEN_DOCC         1     1
    RESTRICTED_DOCC     3     3
    GAS1                2     2
    GAS2                0     0
    GAS3                0     0
    GAS4                0     0
    GAS5                0     0
    GAS6                0     0
    RESTRICTED_UOCC     5     5
    FROZEN_UOCC         0     0
    Total              11    11
  -------------------------------   => Loading Basis Set <=

    Name: CC-PVDZ-JKFIT
    Role: RIFIT
    Keyword: DF_BASIS_MP2
    atoms 1 entry F          line   271 file /Users/fevange/Source/psi4/objdir-Release/stage/share/psi4/basis/cc-pvdz-jkfit.gbs 
    atoms 2 entry H          line    51 file /Users/fevange/Source/psi4/objdir-Release/stage/share/psi4/basis/cc-pvdz-jkfit.gbs 

   => Loading Basis Set <=

    Name: STO-3G
    Role: ORBITAL
    Keyword: MINAO_BASIS
    atoms 1 entry F          line    91 file /Users/fevange/Source/psi4/objdir-Release/stage/share/psi4/basis/sto-3g.gbs 
    atoms 2 entry H          line    19 file /Users/fevange/Source/psi4/objdir-Release/stage/share/psi4/basis/sto-3g.gbs 


  Forte will use psi4 integrals

  ==> Primary Basis Set Summary <==

  Basis Set: 6-31G
    Blend: 6-31G
    Number of shells: 7
    Number of basis functions: 11
    Number of Cartesian functions: 11
    Spherical Harmonics?: false
    Max angular momentum: 1


  JK created using MemDF integrals
  DFHelper Memory: AOs need 0.000 GiB; user supplied 0.373 GiB. 
  SCF_SUBTYPE=INCORE selected. In-core MEM_DF algorithm will be used.
  Using in-core AOs.

  ==> MemDFJK: Density-Fitted J/K Matrices <==

    J tasked:                   Yes
    K tasked:                   Yes
    wK tasked:                   No
    OpenMP threads:               1
    Memory [MiB]:               381
    Algorithm:                 Core
    Schwarz Cutoff:           1E-12
    Mask sparsity (%):       0.0000
    Fitting Condition:        1E-10

   => Auxiliary Basis Set <=

  Basis Set: CC-PVDZ-JKFIT
    Blend: CC-PVDZ-JKFIT
    Number of shells: 33
    Number of basis functions: 106
    Number of Cartesian functions: 106
    Spherical Harmonics?: false
    Max angular momentum: 3



  ==> Integral Transformation <==

  Number of molecular orbitals:                         11
  Number of correlated molecular orbitals:              10
  Number of frozen occupied orbitals:                    1
  Number of frozen unoccupied orbitals:                  0
  Two-electron integral type:              Density fitting

  DFHelper Memory: AOs need 0.000 GiB; user supplied 0.419 GiB. 
  SCF_SUBTYPE=INCORE selected. In-core MEM_DF algorithm will be used.
  Using in-core AOs.

  ==> DFHelper <==
    NBF:                              11
    NAux:                            106
    Schwarz Cutoff:                1E-12
    Mask sparsity (%):                 0
    DFH Avail. Memory [GiB]:       0.419
    OpenMP threads:                    1
    Algorithm:                     STORE
    AO Core:                        True
    MO Core:                       False
    Hold Metric:                   False
    Metric Power:                 -0.500
    Fitting Condition:             1E-10
    Q Shell Max:                      10



  Timing for computing density-fitted integrals:              0.007 s.

          -----------------------------------------------------------
                  Multi-Configurational Self Consistent Field
                Two-Step Approximate Second-Order AO Algorithm
            written by Chenyang Li, Kevin P. Hannon, and Shuhe Wang
          -----------------------------------------------------------


  ==> MCSCF Calculation Information <==

    --------------------------------------------------------
    Print level                                        Quiet
    Integral type                                         DF
    CI solver type                                       FCI
    Final orbital type                             CANONICAL
    Derivative type                                     NONE
    Optimize orbitals                                   TRUE
    Include internal rotations                         FALSE
    Debug printing                                     FALSE
    Energy convergence                             1.000e-12
    Gradient convergence                           1.000e-07
    Max value for rotation                         2.000e-01
    Max number of macro iter.                             25
    Max number of micro iter. for orbitals                 6
    Max number of micro iter. for CI                      12
    DIIS start                                            15
    Min DIIS vectors                                       3
    Max DIIS vectors                                       8
    Frequency of DIIS extrapolation                        1
    --------------------------------------------------------

  ==> Independent Orbital Rotations <==

    ORBITAL SPACES                         A
    ----------------------------------------
             ACTIVE / RESTRICTED_DOCC      6
    RESTRICTED_UOCC /          ACTIVE     10
    RESTRICTED_UOCC / RESTRICTED_DOCC     15
    ----------------------------------------

  DF-MCSCF adopts integrals from DFHelper of Psi4.


  ==> String Lists <==

    --------------------------------------------------------
    number of alpha electrons                              1
    number of beta electrons                               1
    number of alpha strings                                2
    number of beta strings                                 2
    --------------------------------------------------------

  ==> FCI Solver <==

    --------------------------------------------------------
    Spin adapt                                         FALSE
    Number of determinants                                 4
    Symmetry                                               0
    Multiplicity                                           1
    Number of roots                                        1
    Target root                                            0
    --------------------------------------------------------

  ==> Initial Guess <==

  Initial guess determinants:         4

  Classification of the initial guess solutions

  Number   2S+1   Selected
  ------------------------
     3       1       *
     1       3        
  ------------------------

    Spin    Root           Energy        <S^2>    Status
  -------------------------------------------------------
   singlet    0     -176.079440593204  +0.000000  added
  -------------------------------------------------------

  ==> Davidson-Liu Solver <==

    --------------------------------------------------------
    Print level                                      Default
    Energy convergence threshold                   1.000e-12
    Residual convergence threshold                 1.000e-06
    Schmidt orthogonality threshold                1.000e-12
    Schmidt discard threshold                      1.000e-07
    Size of the space                                      4
    Number of roots                                        1
    Maximum number of iterations                         100
    Collapse subspace size                                 2
    Maximum subspace size                                  4
    --------------------------------------------------------

  Davidson-Liu solver: adding 1 guess vectors
  Iteration     Average Energy            max(∆E)            max(Residual)  Vectors
  ---------------------------------------------------------------------------------
       0      -99.901335711119       99.901335711119        0.000000000000      1
       1      -99.901335711119        0.000000000000        0.000000000000      2
  ---------------------------------------------------------------------------------

  ==> Root No. 0 <==

    20      0.95926614
    02     -0.26162797
    ba      0.07536334
    ab      0.07536334

    Total Energy:     -99.901335711119, <S^2>: -0.000000
    Time for FCI:       0.000224250000

  ==> Energy Summary <==

    Multi.(2ms)  Irrep.  No.               Energy      <S^2>
    --------------------------------------------------------
       1  (  0)     A     0      -99.901335711119  -0.000000
    --------------------------------------------------------
  Computing RDMs for dipole moments ... Done

  ==> Summary of Dipole Moments [e a0] (Nuclear + Electronic) <==

       State           DM_X           DM_Y           DM_Z           |DM|
    --------------------------------------------------------------------
          0A     0.00000000    -0.00000000     0.66470075     0.66470075
    --------------------------------------------------------------------
     Nuclear     0.00000000     0.00000000     1.40664889     1.40664889
    --------------------------------------------------------------------

  ==> Natural Orbitals <==

        5A      1.858209      6A      0.141791  


  ==> MCSCF Iterations <==

                      Energy CI                    Energy Orbital
           ------------------------------  ------------------------------
    Iter.        Total Energy       Delta        Total Energy       Delta  Orb. Grad.  Micro
    ----------------------------------------------------------------------------------------
       1     -99.901335711119 -9.9901e+01    -99.922627386129 -9.9923e+01  4.7557e-02    6/N
  Computing RDMs for dipole moments ... Done

  ==> Summary of Dipole Moments [e a0] (Nuclear + Electronic) <==

       State           DM_X           DM_Y           DM_Z           |DM|
    --------------------------------------------------------------------
          0A     0.00000000    -0.00000000     0.61730104     0.61730104
    --------------------------------------------------------------------
     Nuclear     0.00000000     0.00000000     1.40664889     1.40664889
    --------------------------------------------------------------------
       2     -99.923538340810 -2.2203e-02    -99.923660768572 -1.0334e-03  3.5345e-05    6/N
  Computing RDMs for dipole moments ... Done

  ==> Summary of Dipole Moments [e a0] (Nuclear + Electronic) <==

       State           DM_X           DM_Y           DM_Z           |DM|
    --------------------------------------------------------------------
          0A     0.00000000    -0.00000000     0.59994988     0.59994988
    --------------------------------------------------------------------
     Nuclear     0.00000000     0.00000000     1.40664889     1.40664889
    --------------------------------------------------------------------
       3     -99.923686536682 -1.4820e-04    -99.923693212364 -3.2444e-05  2.4768e-06    6/N
  Computing RDMs for dipole moments ... Done

  ==> Summary of Dipole Moments [e a0] (Nuclear + Electronic) <==

       State           DM_X           DM_Y           DM_Z           |DM|
    --------------------------------------------------------------------
          0A     0.00000000    -0.00000000     0.59445268     0.59445268
    --------------------------------------------------------------------
     Nuclear     0.00000000     0.00000000     1.40664889     1.40664889
    --------------------------------------------------------------------
       4     -99.923695200882 -8.6642e-06    -99.923695809113 -2.5967e-06  1.1118e-06    6/N
  Computing RDMs for dipole moments ... Done

  ==> Summary of Dipole Moments [e a0] (Nuclear + Electronic) <==

       State           DM_X           DM_Y           DM_Z           |DM|
    --------------------------------------------------------------------
          0A     0.00000000    -0.00000000     0.59274184     0.59274184
    --------------------------------------------------------------------
     Nuclear     0.00000000     0.00000000     1.40664889     1.40664889
    --------------------------------------------------------------------
       5     -99.923695997438 -7.9656e-07    -99.923696055693 -2.4658e-07  3.5568e-07    6/N
  Computing RDMs for dipole moments ... Done

  ==> Summary of Dipole Moments [e a0] (Nuclear + Electronic) <==

       State           DM_X           DM_Y           DM_Z           |DM|
    --------------------------------------------------------------------
          0A     0.00000000    -0.00000000     0.59221164     0.59221164
    --------------------------------------------------------------------
     Nuclear     0.00000000     0.00000000     1.40664889     1.40664889
    --------------------------------------------------------------------
       6     -99.923696073742 -7.6304e-08    -99.923696079325 -2.3632e-08  1.1054e-07    6/N
  Computing RDMs for dipole moments ... Done

  ==> Summary of Dipole Moments [e a0] (Nuclear + Electronic) <==

       State           DM_X           DM_Y           DM_Z           |DM|
    --------------------------------------------------------------------
          0A     0.00000000    -0.00000000     0.59204752     0.59204752
    --------------------------------------------------------------------
     Nuclear     0.00000000     0.00000000     1.40664889     1.40664889
    --------------------------------------------------------------------
       7     -99.923696081054 -7.3126e-09    -99.923696081589 -2.2636e-09  3.4236e-08    5/Y
  Computing RDMs for dipole moments ... Done

  ==> Summary of Dipole Moments [e a0] (Nuclear + Electronic) <==

       State           DM_X           DM_Y           DM_Z           |DM|
    --------------------------------------------------------------------
          0A     0.00000000    -0.00000000     0.59199674     0.59199674
    --------------------------------------------------------------------
     Nuclear     0.00000000     0.00000000     1.40664889     1.40664889
    --------------------------------------------------------------------
       8     -99.923696081755 -7.0025e-10    -99.923696081806 -2.1672e-10  9.8271e-09    4/Y
  Computing RDMs for dipole moments ... Done

  ==> Summary of Dipole Moments [e a0] (Nuclear + Electronic) <==

       State           DM_X           DM_Y           DM_Z           |DM|
    --------------------------------------------------------------------
          0A     0.00000000    -0.00000000     0.59198104     0.59198104
    --------------------------------------------------------------------
     Nuclear     0.00000000     0.00000000     1.40664889     1.40664889
    --------------------------------------------------------------------
       9     -99.923696081822 -6.6962e-11    -99.923696081827 -2.0719e-11  9.7720e-09    4/Y
  Computing RDMs for dipole moments ... Done

  ==> Summary of Dipole Moments [e a0] (Nuclear + Electronic) <==

       State           DM_X           DM_Y           DM_Z           |DM|
    --------------------------------------------------------------------
          0A     0.00000000    -0.00000000     0.59197617     0.59197617
    --------------------------------------------------------------------
     Nuclear     0.00000000     0.00000000     1.40664889     1.40664889
    --------------------------------------------------------------------
      10     -99.923696081828 -6.4517e-12    -99.923696081829 -1.9895e-12  6.8803e-09    3/Y
  Computing RDMs for dipole moments ... Done

  ==> Summary of Dipole Moments [e a0] (Nuclear + Electronic) <==

       State           DM_X           DM_Y           DM_Z           |DM|
    --------------------------------------------------------------------
          0A     0.00000000    -0.00000000     0.59197468     0.59197468
    --------------------------------------------------------------------
     Nuclear     0.00000000     0.00000000     1.40664889     1.40664889
    --------------------------------------------------------------------
      11     -99.923696081829 -5.9686e-13    -99.923696081829 -2.2737e-13  6.5557e-09    2/Y
    ----------------------------------------------------------------------------------------

  A miracle has come to pass: MCSCF iterations have converged!
  Computing RDMs for dipole moments ... Done

  ==> Summary of Dipole Moments [e a0] (Nuclear + Electronic) <==

       State           DM_X           DM_Y           DM_Z           |DM|
    --------------------------------------------------------------------
          0A     0.00000000    -0.00000000     0.59197421     0.59197421
    --------------------------------------------------------------------
     Nuclear     0.00000000     0.00000000     1.40664889     1.40664889
    --------------------------------------------------------------------
  Canonicalizing final MCSCF orbitals

  ==> Semicanonicalize Orbitals <==

    MIX INACTIVE ORBITALS         FALSE
    MIX GAS ACTIVE ORBITALS       FALSE
    FROZEN_DOCC                   CANONICAL
    FROZEN_UOCC                   CANONICAL
    GAS1                          CANONICAL
    RESTRICTED_DOCC               CANONICAL
    RESTRICTED_UOCC               CANONICAL

    Off-Diag. Elements       Max           2-Norm
    ------------------------------------------------
    FROZEN_DOCC          0.0000000000   0.0000000000
    GAS1                 0.0033803191   0.0047804931
    RESTRICTED_DOCC      0.0000000000   0.0000000000
    RESTRICTED_UOCC      0.0443885080   0.0683583943
    ------------------------------------------------

    Canonicalization test failed

  Timing for orbital canonicalization:                        0.000 s.
  Integrals are about to be updated.  DFHelper Memory: AOs need 0.000 GiB; user supplied 0.419 GiB. 
  SCF_SUBTYPE=INCORE selected. In-core MEM_DF algorithm will be used.
  Using in-core AOs.

  ==> DFHelper <==
    NBF:                              11
    NAux:                            106
    Schwarz Cutoff:                1E-12
    Mask sparsity (%):                 0
    DFH Avail. Memory [GiB]:       0.419
    OpenMP threads:                    1
    Algorithm:                     STORE
    AO Core:                        True
    MO Core:                       False
    Hold Metric:                   False
    Metric Power:                 -0.500
    Fitting Condition:             1E-10
    Q Shell Max:                      10



  Integrals update took     0.007 s.

  The integrals are not consistent with the orbitals. Re-transforming them.

  Computing RDMs for dipole moments ... Done

  ==> Summary of Dipole Moments [e a0] (Nuclear + Electronic) <==

       State           DM_X           DM_Y           DM_Z           |DM|
    --------------------------------------------------------------------
          0A     0.00000000    -0.00000000     0.62412370     0.62412370
    --------------------------------------------------------------------
     Nuclear     0.00000000     0.00000000     1.40664889     1.40664889
    --------------------------------------------------------------------

  Time to prepare integrals:        0.104 seconds
  Time to run job          :        0.105 seconds
  Total                    :        0.209 seconds

    Psi4 stopped on: Thursday, 17 October 2024 09:50AM
    Psi4 wall time for execution: 0:00:00.52

*** Psi4 exiting successfully. Buy a developer a beer!
