
    -----------------------------------------------------------------------
          Psi4: An Open-Source Ab Initio Electronic Structure Package
                               Psi4 undefined 

                         Git: Rev {HEAD} f016cba 


    D. G. A. Smith, L. A. Burns, A. C. Simmonett, R. M. Parrish,
    M. C. Schieber, R. Galvelis, P. Kraus, H. Kruse, R. Di Remigio,
    A. Alenaizan, A. M. James, S. Lehtola, J. P. Misiewicz, M. Scheurer,
    R. A. Shaw, J. B. Schriber, Y. Xie, Z. L. Glick, D. A. Sirianni,
    J. S. O'Brien, J. M. Waldrop, A. Kumar, E. G. Hohenstein,
    B. P. Pritchard, B. R. Brooks, H. F. Schaefer III, A. Yu. Sokolov,
    K. Patkowski, A. E. DePrince III, U. Bozkaya, R. A. King,
    F. A. Evangelista, J. M. Turney, T. D. Crawford, C. D. Sherrill,
    J. Chem. Phys. 152(18) 184108 (2020). https://doi.org/10.1063/5.0006002

                            Additional Code Authors
    E. T. Seidl, C. L. Janssen, E. F. Valeev, M. L. Leininger,
    J. F. Gonthier, R. M. Richard, H. R. McAlexander, M. Saitow, X. Wang,
    P. Verma, M. H. Lechner, and A. Jiang

             Previous Authors, Complete List of Code Contributors,
                       and Citations for Specific Modules
    https://github.com/psi4/psi4/blob/master/codemeta.json
    https://github.com/psi4/psi4/graphs/contributors
    http://psicode.org/psi4manual/master/introduction.html#citing-psifour

    -----------------------------------------------------------------------


    Psi4 started on: Saturday, 15 January 2022 01:51AM

    Process ID: 96919
    Host:       Yorks-Mac.local
    PSIDATADIR: /Users/york/src/psi4new/psi4/share/psi4
    Memory:     500.0 MiB
    Threads:    1
    
  ==> Input File <==

--------------------------------------------------------------------------
import forte

dsrg_dmrg = -76.224071691891353

molecule H2O {
0 1
  O   0.000000000   0.00   0.000000000
  H   0.790689766   0.00   0.612217330
  H  -0.790689766   0.00   0.612217330
units angstrom
}

set basis          cc-pvdz
set reference      rhf
set scf_type       cd
set e_convergence  1e-12
set d_convergence  1e-8
set ints_tolerance 0.0
set cholesky_tolerance 1e-12

set forte{
restricted_docc      [1, 0, 0, 0]
active               [3, 0, 4, 2]
dmrg_sweep_states       [  200,  500, 1000, 1000 ]
dmrg_sweep_energy_conv  [ 1e-8, 1e-8, 1e-8, 1e-8 ]
dmrg_sweep_max_sweeps   [    5,    5,    5,  100 ]
dmrg_sweep_noise_prefac [ 0.03, 0.03, 0.03,  0.0 ]
dmrg_sweep_dvdson_rtol  [ 1e-6, 1e-6, 1e-6, 1e-6 ]
int_type             cholesky
cholesky_tolerance   1e-12
correlation_solver   three-dsrg-mrpt2
active_space_solver  dmrg
dsrg_s               0.5
}

dmrgscf = energy('forte')
compare_values(dsrg_dmrg, dmrgscf, 6,"DMRG CI Energy")
--------------------------------------------------------------------------

Scratch directory: /Users/york/scratch/psi4/

  Forte
  ----------------------------------------------------------------------------
  A suite of quantum chemistry methods for strongly correlated electrons

    git branch: dmrg-york - git commit: efc3d7bd

  Developed by:
    Francesco A. Evangelista, Chenyang Li, Kevin P. Hannon,
    Jeffrey B. Schriber, Tianyuan Zhang, Chenxi Cai,
    Nan He, Nicholas Stair, Shuhe Wang, Renke Huang
  ----------------------------------------------------------------------------

  Size of Determinant class: 128 bits

  Preparing forte objects from a Psi4 Wavefunction object
  No reference wave function provided for Forte. Computing SCF orbitals using Psi4 ...

*** tstart() called on Yorks-Mac.local
*** at Sat Jan 15 01:51:16 2022

   => Loading Basis Set <=

    Name: CC-PVDZ
    Role: ORBITAL
    Keyword: BASIS
    atoms 1   entry O          line   198 file /Users/york/src/psi4new/psi4/share/psi4/basis/cc-pvdz.gbs 
    atoms 2-3 entry H          line    22 file /Users/york/src/psi4new/psi4/share/psi4/basis/cc-pvdz.gbs 


         ---------------------------------------------------------
                                   SCF
               by Justin Turney, Rob Parrish, Andy Simmonett
                          and Daniel G. A. Smith
                              RHF Reference
                        1 Threads,    500 MiB Core
         ---------------------------------------------------------

  ==> Geometry <==

    Molecular point group: c2v
    Full point group: C2v

    Geometry (in Angstrom), charge = 0, multiplicity = 1:

       Center              X                  Y                   Z               Mass       
    ------------   -----------------  -----------------  -----------------  -----------------
         O            0.000000000000     0.000000000000    -0.068516224912    15.994914619570
         H            0.790689766000     0.000000000000     0.543701105088     1.007825032230
         H           -0.790689766000    -0.000000000000     0.543701105088     1.007825032230

  Running in c2v symmetry.

  Rotational constants: A =     25.12555  B =     13.37732  C =      8.72954 [cm^-1]
  Rotational constants: A = 753244.94854  B = 401041.97204  C = 261705.15684 [MHz]
  Nuclear repulsion =    8.801463937118291

  Charge       = 0
  Multiplicity = 1
  Electrons    = 10
  Nalpha       = 5
  Nbeta        = 5

  ==> Algorithm <==

  SCF Algorithm Type is CD.
  DIIS enabled.
  MOM disabled.
  Fractional occupation disabled.
  Guess Type is SAD.
  Energy threshold   = 1.00e-12
  Density threshold  = 1.00e-08
  Integral threshold = 0.00e+00

  ==> Primary Basis <==

  Basis Set: CC-PVDZ
    Blend: CC-PVDZ
    Number of shells: 12
    Number of basis functions: 24
    Number of Cartesian functions: 25
    Spherical Harmonics?: true
    Max angular momentum: 2

  ==> Integral Setup <==

  ==> CDJK: Cholesky-decomposed J/K Matrices <==

    J tasked:                     Yes
    K tasked:                     Yes
    wK tasked:                     No
    OpenMP threads:                 1
    Integrals threads:              1
    Memory [MiB]:                 375
    Algorithm:                   Core
    Integral Cache:              NONE
    Schwarz Cutoff:             0E+00
    Cholesky tolerance:      1.00E-12
    No. Cholesky vectors:         279

  Minimum eigenvalue in the overlap matrix is 3.5782946599E-02.
  Reciprocal condition number of the overlap matrix is 1.1524666283E-02.
    Using symmetric orthogonalization.

  ==> Pre-Iterations <==

  SCF Guess: Superposition of Atomic Densities via on-the-fly atomic UHF (no occupation information).

   -------------------------
    Irrep   Nso     Nmo    
   -------------------------
     A1        11      11 
     A2         2       2 
     B1         7       7 
     B2         4       4 
   -------------------------
    Total      24      24
   -------------------------

  ==> Iterations <==

                        Total Energy        Delta E     RMS |[F,P]|

   @RHF iter SAD:   -75.45138518892335   -7.54514e+01   0.00000e+00 
   @RHF iter   1:   -75.94582282439681   -4.94438e-01   3.03030e-02 DIIS
   @RHF iter   2:   -75.99966521931601   -5.38424e-02   1.81964e-02 DIIS
   @RHF iter   3:   -76.02093762173520   -2.12724e-02   1.66938e-03 DIIS
   @RHF iter   4:   -76.02139035146803   -4.52730e-04   4.20096e-04 DIIS
   @RHF iter   5:   -76.02141718161708   -2.68301e-05   7.52988e-05 DIIS
   @RHF iter   6:   -76.02141837643693   -1.19482e-06   1.16696e-05 DIIS
   @RHF iter   7:   -76.02141840805574   -3.16188e-08   1.86468e-06 DIIS
   @RHF iter   8:   -76.02141840896331   -9.07576e-10   4.57988e-07 DIIS
   @RHF iter   9:   -76.02141840902542   -6.21014e-11   7.23964e-08 DIIS
   @RHF iter  10:   -76.02141840902674   -1.32161e-12   6.27151e-09 DIIS
   @RHF iter  11:   -76.02141840902669    4.26326e-14   1.03436e-09 DIIS
  Energy and wave function converged.


  ==> Post-Iterations <==

    Orbital Energies [Eh]
    ---------------------

    Doubly Occupied:                                                      

       1A1   -20.557846     2A1    -1.316180     1B1    -0.677073  
       3A1    -0.558726     1B2    -0.490383  

    Virtual:                                                              

       4A1     0.178011     2B1     0.249490     3B1     0.760274  
       5A1     0.816118     6A1     1.166182     2B2     1.198611  
       4B1     1.256467     7A1     1.452518     1A2     1.466082  
       3B2     1.667951     8A1     1.877149     5B1     1.889827  
       6B1     2.354901     9A1     2.388286     4B2     3.248785  
       2A2     3.297833    10A1     3.453879    11A1     3.821364  
       7B1     4.099041  

    Final Occupation by Irrep:
             A1    A2    B1    B2 
    DOCC [     3,    0,    1,    1 ]

  @RHF Final Energy:   -76.02141840902669

   => Energetics <=

    Nuclear Repulsion Energy =              8.8014639371182906
    One-Electron Energy =                -122.4453487515116876
    Two-Electron Energy =                  37.6224664053667084
    Total Energy =                        -76.0214184090266940

Computation Completed


Properties will be evaluated at   0.000000,   0.000000,   0.000000 [a0]

Properties computed using the SCF density matrix

  Nuclear Dipole Moment: [e a0]
     X:     0.0000      Y:     0.0000      Z:     1.0191

  Electronic Dipole Moment: [e a0]
     X:     0.0000      Y:     0.0000      Z:    -0.1947

  Dipole Moment: [e a0]
     X:     0.0000      Y:     0.0000      Z:     0.8244     Total:     0.8244

  Dipole Moment: [D]
     X:     0.0000      Y:     0.0000      Z:     2.0955     Total:     2.0955


*** tstop() called on Yorks-Mac.local at Sat Jan 15 01:51:16 2022
Module time:
	user time   =       0.66 seconds =       0.01 minutes
	system time =       0.04 seconds =       0.00 minutes
	total time  =          0 seconds =       0.00 minutes
Total time:
	user time   =       0.66 seconds =       0.01 minutes
	system time =       0.04 seconds =       0.00 minutes
	total time  =          0 seconds =       0.00 minutes

  Read options for space RESTRICTED_DOCC
  Read options for space ACTIVE
  Read options for space RESTRICTED_DOCC

  ==> MO Space Information <==

  -------------------------------------------------
                       A1    A2    B1    B2   Sum
  -------------------------------------------------
    FROZEN_DOCC         0     0     0     0     0
    RESTRICTED_DOCC     1     0     0     0     1
    GAS1                3     0     4     2     9
    GAS2                0     0     0     0     0
    GAS3                0     0     0     0     0
    GAS4                0     0     0     0     0
    GAS5                0     0     0     0     0
    GAS6                0     0     0     0     0
    RESTRICTED_UOCC     7     2     3     2    14
    FROZEN_UOCC         0     0     0     0     0
    Total              11     2     7     4    24
  -------------------------------------------------   => Loading Basis Set <=

    Name: STO-3G
    Role: ORBITAL
    Keyword: MINAO_BASIS
    atoms 1   entry O          line    81 file /Users/york/src/psi4new/psi4/share/psi4/basis/sto-3g.gbs 
    atoms 2-3 entry H          line    19 file /Users/york/src/psi4new/psi4/share/psi4/basis/sto-3g.gbs 


  Forte will use psi4 integrals

  ==> Primary Basis Set Summary <==

  Basis Set: CC-PVDZ
    Blend: CC-PVDZ
    Number of shells: 12
    Number of basis functions: 24
    Number of Cartesian functions: 25
    Spherical Harmonics?: true
    Max angular momentum: 2


  JK created using Cholesky integrals
  ==> CDJK: Cholesky-decomposed J/K Matrices <==

    J tasked:                     Yes
    K tasked:                     Yes
    wK tasked:                     No
    OpenMP threads:                 1
    Integrals threads:              1
    Memory [MiB]:                 400
    Algorithm:                   Core
    Integral Cache:              NONE
    Schwarz Cutoff:             0E+00
    Cholesky tolerance:      1.00E-12
    No. Cholesky vectors:         279



  ==> Integral Transformation <==

  Number of molecular orbitals:                         24
  Number of correlated molecular orbitals:              24
  Number of frozen occupied orbitals:                    0
  Number of frozen unoccupied orbitals:                  0
  Two-electron integral type:              Cholesky decomposition


  Computing the Cholesky Vectors 

  Computing CD Integrals
  Timing for cholesky transformation:                         0.296 s.
  Need 1.29 MB to store CD integrals in core

  Number of Cholesky vectors required for 1.000e-12 tolerance: 279

  Timing for freezing core and virtual orbitals:              0.000 s.
  Timing for computing Cholesky integrals:                    0.343 s.

  ==> Summary of Active Space Solver Input <==

    Irrep.  Multi.(2ms)      N
    --------------------------
       A1      1  (  0)      1
    --------------------------
    N: number of roots
    ms: spin z component
    Total number of roots:   1
    --------------------------


                    ----------------------------------------
                      Density Matrix Renormalization Group
                               Sebastian Wouters
                    ----------------------------------------
MPS files will be dumped to "/Users/york/src/forte/tests/methods/dmrg-dsrg-mrpt2-2/1A1_CAS9"

   CheMPS2: a spin-adapted implementation of DMRG for ab initio quantum chemistry
   Copyright (C) 2013-2021 Sebastian Wouters

   This program is free software; you can redistribute it and/or modify
   it under the terms of the GNU General Public License as published by
   the Free Software Foundation; either version 2 of the License, or
   (at your option) any later version.

   This program is distributed in the hope that it will be useful,
   but WITHOUT ANY WARRANTY; without even the implied warranty of
   MERCHANTABILITY or FITNESS FOR A PARTICULAR PURPOSE.  See the
   GNU General Public License for more details.

   You should have received a copy of the GNU General Public License along
   with this program; if not, write to the Free Software Foundation, Inc.,
   51 Franklin Street, Fifth Floor, Boston, MA 02110-1301 USA.


  ==> Computing Energy for Singlet (Ms = 0) A1 <==

   Stats: nIt(DAVIDSON) = 12
Energy at sites (7, 8) is -71.8158973044827
   Stats: nIt(DAVIDSON) = 15
Energy at sites (6, 7) is -72.9820712345153
   Stats: nIt(DAVIDSON) = 20
Energy at sites (5, 6) is -74.5780027052198
   Stats: nIt(DAVIDSON) = 19
Energy at sites (4, 5) is -76.0784263954157
   Stats: nIt(DAVIDSON) = 1
Energy at sites (3, 4) is -76.0784263954157
   Stats: nIt(DAVIDSON) = 1
Energy at sites (2, 3) is -76.0784263954158
   Stats: nIt(DAVIDSON) = 1
Energy at sites (1, 2) is -76.0784263954158
******************************************************************
***  Information on left sweep 0 of instruction 0:
***     Elapsed wall time        = 0.281894 seconds
***       |--> S.join            = 0.000228 seconds
***       |--> S.solve           = 0.259739 seconds
***       |--> S.split           = 0.000614 seconds
***       |--> Tensor update     = 0.021202 seconds
***              |--> create     = 0.001359 seconds
***              |--> destroy    = 0.00046 seconds
***              |--> disk write = 0.008322 seconds
***              |--> disk read  = 0.007175 seconds
***              |--> calc       = 0.00387 seconds
***     Disk write bandwidth     = 68.001723066026 MB/s
***     Disk read  bandwidth     = 79.2404334304225 MB/s
***     Minimum energy           = -76.0784263954158
***     Maximum discarded weight = 0
******************************************************************
   Stats: nIt(DAVIDSON) = 1
Energy at sites (0, 1) is -76.0784263954158
   Stats: nIt(DAVIDSON) = 1
Energy at sites (1, 2) is -76.0784263954158
   Stats: nIt(DAVIDSON) = 1
Energy at sites (2, 3) is -76.0784263954158
   Stats: nIt(DAVIDSON) = 1
Energy at sites (3, 4) is -76.0784263954158
   Stats: nIt(DAVIDSON) = 1
Energy at sites (4, 5) is -76.0784263954158
   Stats: nIt(DAVIDSON) = 1
Energy at sites (5, 6) is -76.0784263954158
   Stats: nIt(DAVIDSON) = 1
Energy at sites (6, 7) is -76.0784263954157
******************************************************************
***  Information on right sweep 0 of instruction 0:
***     Elapsed wall time        = 0.046907 seconds
***       |--> S.join            = 0.000257 seconds
***       |--> S.solve           = 0.02254 seconds
***       |--> S.split           = 0.00069 seconds
***       |--> Tensor update     = 0.023305 seconds
***              |--> create     = 0.00169 seconds
***              |--> destroy    = 0.000534 seconds
***              |--> disk write = 0.009113 seconds
***              |--> disk read  = 0.008266 seconds
***              |--> calc       = 0.003689 seconds
***     Disk write bandwidth     = 62.3889070408517 MB/s
***     Disk read  bandwidth     = 68.46241705244 MB/s
***     Minimum energy           = -76.0784263954158
***     Maximum discarded weight = 0
***     Energy difference with respect to previous leftright sweep = 76.0784263954157
******************************************************************
   Stats: nIt(DAVIDSON) = 1
Energy at sites (7, 8) is -76.0784263954157
   Stats: nIt(DAVIDSON) = 1
Energy at sites (6, 7) is -76.0784263954157
   Stats: nIt(DAVIDSON) = 1
Energy at sites (5, 6) is -76.0784263954158
   Stats: nIt(DAVIDSON) = 1
Energy at sites (4, 5) is -76.0784263954158
   Stats: nIt(DAVIDSON) = 1
Energy at sites (3, 4) is -76.0784263954158
   Stats: nIt(DAVIDSON) = 1
Energy at sites (2, 3) is -76.0784263954157
   Stats: nIt(DAVIDSON) = 1
Energy at sites (1, 2) is -76.0784263954157
******************************************************************
***  Information on left sweep 1 of instruction 0:
***     Elapsed wall time        = 0.038609 seconds
***       |--> S.join            = 0.000205 seconds
***       |--> S.solve           = 0.019896 seconds
***       |--> S.split           = 0.000576 seconds
***       |--> Tensor update     = 0.017848 seconds
***              |--> create     = 0.001161 seconds
***              |--> destroy    = 0.000388 seconds
***              |--> disk write = 0.007308 seconds
***              |--> disk read  = 0.006042 seconds
***              |--> calc       = 0.002943 seconds
***     Disk write bandwidth     = 77.4371017180444 MB/s
***     Disk read  bandwidth     = 94.0996540654223 MB/s
***     Minimum energy           = -76.0784263954158
***     Maximum discarded weight = 0
******************************************************************
   Stats: nIt(DAVIDSON) = 1
Energy at sites (0, 1) is -76.0784263954157
   Stats: nIt(DAVIDSON) = 1
Energy at sites (1, 2) is -76.0784263954157
   Stats: nIt(DAVIDSON) = 1
Energy at sites (2, 3) is -76.0784263954158
   Stats: nIt(DAVIDSON) = 1
Energy at sites (3, 4) is -76.0784263954157
   Stats: nIt(DAVIDSON) = 1
Energy at sites (4, 5) is -76.0784263954158
   Stats: nIt(DAVIDSON) = 1
Energy at sites (5, 6) is -76.0784263954158
   Stats: nIt(DAVIDSON) = 1
Energy at sites (6, 7) is -76.0784263954158
******************************************************************
***  Information on right sweep 1 of instruction 0:
***     Elapsed wall time        = 0.038694 seconds
***       |--> S.join            = 0.000197 seconds
***       |--> S.solve           = 0.019898 seconds
***       |--> S.split           = 0.000576 seconds
***       |--> Tensor update     = 0.017962 seconds
***              |--> create     = 0.001178 seconds
***              |--> destroy    = 0.000371 seconds
***              |--> disk write = 0.007228 seconds
***              |--> disk read  = 0.005902 seconds
***              |--> calc       = 0.003274 seconds
***     Disk write bandwidth     = 78.6593953878364 MB/s
***     Disk read  bandwidth     = 95.8845034489103 MB/s
***     Minimum energy           = -76.0784263954158
***     Maximum discarded weight = 0
***     Energy difference with respect to previous leftright sweep = 1.4210854715202e-14
******************************************************************
***  Information on completed instruction 0:
***     The reduced virtual dimension DSU(2)               = 200
***     The total number of reduced MPS variables          = 2565
***     Minimum energy encountered during all instructions = -76.0784263954158
***     Minimum energy encountered during the last sweep   = -76.0784263954158
***     Maximum discarded weight during the last sweep     = 0
******************************************************************
   Stats: nIt(DAVIDSON) = 1
Energy at sites (7, 8) is -76.0784263954158
   Stats: nIt(DAVIDSON) = 1
Energy at sites (6, 7) is -76.0784263954158
   Stats: nIt(DAVIDSON) = 1
Energy at sites (5, 6) is -76.0784263954158
   Stats: nIt(DAVIDSON) = 1
Energy at sites (4, 5) is -76.0784263954158
   Stats: nIt(DAVIDSON) = 1
Energy at sites (3, 4) is -76.0784263954158
   Stats: nIt(DAVIDSON) = 1
Energy at sites (2, 3) is -76.0784263954157
   Stats: nIt(DAVIDSON) = 1
Energy at sites (1, 2) is -76.0784263954158
******************************************************************
***  Information on left sweep 0 of instruction 1:
***     Elapsed wall time        = 0.03903 seconds
***       |--> S.join            = 0.000206 seconds
***       |--> S.solve           = 0.020088 seconds
***       |--> S.split           = 0.000643 seconds
***       |--> Tensor update     = 0.01803 seconds
***              |--> create     = 0.001188 seconds
***              |--> destroy    = 0.000386 seconds
***              |--> disk write = 0.00737 seconds
***              |--> disk read  = 0.006032 seconds
***              |--> calc       = 0.003045 seconds
***     Disk write bandwidth     = 76.7856634132251 MB/s
***     Disk read  bandwidth     = 94.2556548181832 MB/s
***     Minimum energy           = -76.0784263954158
***     Maximum discarded weight = 0
******************************************************************
   Stats: nIt(DAVIDSON) = 1
Energy at sites (0, 1) is -76.0784263954158
   Stats: nIt(DAVIDSON) = 1
Energy at sites (1, 2) is -76.0784263954158
   Stats: nIt(DAVIDSON) = 1
Energy at sites (2, 3) is -76.0784263954157
   Stats: nIt(DAVIDSON) = 1
Energy at sites (3, 4) is -76.0784263954157
   Stats: nIt(DAVIDSON) = 1
Energy at sites (4, 5) is -76.0784263954158
   Stats: nIt(DAVIDSON) = 1
Energy at sites (5, 6) is -76.0784263954158
   Stats: nIt(DAVIDSON) = 1
Energy at sites (6, 7) is -76.0784263954158
******************************************************************
***  Information on right sweep 0 of instruction 1:
***     Elapsed wall time        = 0.039992 seconds
***       |--> S.join            = 0.000201 seconds
***       |--> S.solve           = 0.020622 seconds
***       |--> S.split           = 0.000588 seconds
***       |--> Tensor update     = 0.018517 seconds
***              |--> create     = 0.001202 seconds
***              |--> destroy    = 0.000382 seconds
***              |--> disk write = 0.007498 seconds
***              |--> disk read  = 0.006068 seconds
***              |--> calc       = 0.003358 seconds
***     Disk write bandwidth     = 75.8269018222568 MB/s
***     Disk read  bandwidth     = 93.2614270526481 MB/s
***     Minimum energy           = -76.0784263954158
***     Maximum discarded weight = 0
***     Energy difference with respect to previous leftright sweep = 0
******************************************************************
***  Information on completed instruction 1:
***     The reduced virtual dimension DSU(2)               = 500
***     The total number of reduced MPS variables          = 2565
***     Minimum energy encountered during all instructions = -76.0784263954158
***     Minimum energy encountered during the last sweep   = -76.0784263954158
***     Maximum discarded weight during the last sweep     = 0
******************************************************************
   Stats: nIt(DAVIDSON) = 1
Energy at sites (7, 8) is -76.0784263954158
   Stats: nIt(DAVIDSON) = 1
Energy at sites (6, 7) is -76.0784263954158
   Stats: nIt(DAVIDSON) = 1
Energy at sites (5, 6) is -76.0784263954158
   Stats: nIt(DAVIDSON) = 1
Energy at sites (4, 5) is -76.0784263954158
   Stats: nIt(DAVIDSON) = 1
Energy at sites (3, 4) is -76.0784263954157
   Stats: nIt(DAVIDSON) = 1
Energy at sites (2, 3) is -76.0784263954158
   Stats: nIt(DAVIDSON) = 1
Energy at sites (1, 2) is -76.0784263954158
******************************************************************
***  Information on left sweep 0 of instruction 2:
***     Elapsed wall time        = 0.038595 seconds
***       |--> S.join            = 0.000204 seconds
***       |--> S.solve           = 0.020018 seconds
***       |--> S.split           = 0.00059 seconds
***       |--> Tensor update     = 0.017722 seconds
***              |--> create     = 0.001181 seconds
***              |--> destroy    = 0.000375 seconds
***              |--> disk write = 0.007193 seconds
***              |--> disk read  = 0.006027 seconds
***              |--> calc       = 0.00294 seconds
***     Disk write bandwidth     = 78.6751479710091 MB/s
***     Disk read  bandwidth     = 94.3338493219315 MB/s
***     Minimum energy           = -76.0784263954158
***     Maximum discarded weight = 0
******************************************************************
   Stats: nIt(DAVIDSON) = 1
Energy at sites (0, 1) is -76.0784263954157
   Stats: nIt(DAVIDSON) = 1
Energy at sites (1, 2) is -76.0784263954157
   Stats: nIt(DAVIDSON) = 1
Energy at sites (2, 3) is -76.0784263954158
   Stats: nIt(DAVIDSON) = 1
Energy at sites (3, 4) is -76.0784263954157
   Stats: nIt(DAVIDSON) = 1
Energy at sites (4, 5) is -76.0784263954158
   Stats: nIt(DAVIDSON) = 1
Energy at sites (5, 6) is -76.0784263954158
   Stats: nIt(DAVIDSON) = 1
Energy at sites (6, 7) is -76.0784263954158
******************************************************************
***  Information on right sweep 0 of instruction 2:
***     Elapsed wall time        = 0.040394 seconds
***       |--> S.join            = 0.000206 seconds
***       |--> S.solve           = 0.020361 seconds
***       |--> S.split           = 0.000595 seconds
***       |--> Tensor update     = 0.019167 seconds
***              |--> create     = 0.001182 seconds
***              |--> destroy    = 0.00038 seconds
***              |--> disk write = 0.007401 seconds
***              |--> disk read  = 0.006032 seconds
***              |--> calc       = 0.004161 seconds
***     Disk write bandwidth     = 76.8207147498016 MB/s
***     Disk read  bandwidth     = 93.8180270814769 MB/s
***     Minimum energy           = -76.0784263954158
***     Maximum discarded weight = 0
***     Energy difference with respect to previous leftright sweep = 0
******************************************************************
***  Information on completed instruction 2:
***     The reduced virtual dimension DSU(2)               = 1000
***     The total number of reduced MPS variables          = 2565
***     Minimum energy encountered during all instructions = -76.0784263954158
***     Minimum energy encountered during the last sweep   = -76.0784263954158
***     Maximum discarded weight during the last sweep     = 0
******************************************************************
   Stats: nIt(DAVIDSON) = 1
Energy at sites (7, 8) is -76.0784263954158
   Stats: nIt(DAVIDSON) = 1
Energy at sites (6, 7) is -76.0784263954158
   Stats: nIt(DAVIDSON) = 1
Energy at sites (5, 6) is -76.0784263954158
   Stats: nIt(DAVIDSON) = 1
Energy at sites (4, 5) is -76.0784263954157
   Stats: nIt(DAVIDSON) = 1
Energy at sites (3, 4) is -76.0784263954157
   Stats: nIt(DAVIDSON) = 1
Energy at sites (2, 3) is -76.0784263954157
   Stats: nIt(DAVIDSON) = 1
Energy at sites (1, 2) is -76.0784263954157
******************************************************************
***  Information on left sweep 0 of instruction 3:
***     Elapsed wall time        = 0.039571 seconds
***       |--> S.join            = 0.000203 seconds
***       |--> S.solve           = 0.020072 seconds
***       |--> S.split           = 0.000582 seconds
***       |--> Tensor update     = 0.018654 seconds
***              |--> create     = 0.001193 seconds
***              |--> destroy    = 0.000377 seconds
***              |--> disk write = 0.007268 seconds
***              |--> disk read  = 0.006068 seconds
***              |--> calc       = 0.00374 seconds
***     Disk write bandwidth     = 77.8632827951938 MB/s
***     Disk read  bandwidth     = 93.6964584481347 MB/s
***     Minimum energy           = -76.0784263954158
***     Maximum discarded weight = 0
******************************************************************
   Stats: nIt(DAVIDSON) = 1
Energy at sites (0, 1) is -76.0784263954157
   Stats: nIt(DAVIDSON) = 1
Energy at sites (1, 2) is -76.0784263954157
   Stats: nIt(DAVIDSON) = 1
Energy at sites (2, 3) is -76.0784263954158
   Stats: nIt(DAVIDSON) = 1
Energy at sites (3, 4) is -76.0784263954157
   Stats: nIt(DAVIDSON) = 1
Energy at sites (4, 5) is -76.0784263954157
   Stats: nIt(DAVIDSON) = 1
Energy at sites (5, 6) is -76.0784263954157
   Stats: nIt(DAVIDSON) = 1
Energy at sites (6, 7) is -76.0784263954158
******************************************************************
***  Information on right sweep 0 of instruction 3:
***     Elapsed wall time        = 0.040835 seconds
***       |--> S.join            = 0.000198 seconds
***       |--> S.solve           = 0.020086 seconds
***       |--> S.split           = 0.000574 seconds
***       |--> Tensor update     = 0.019919 seconds
***              |--> create     = 0.00118 seconds
***              |--> destroy    = 0.000372 seconds
***              |--> disk write = 0.008172 seconds
***              |--> disk read  = 0.005919 seconds
***              |--> calc       = 0.004264 seconds
***     Disk write bandwidth     = 69.5729454066668 MB/s
***     Disk read  bandwidth     = 95.609112916957 MB/s
***     Minimum energy           = -76.0784263954158
***     Maximum discarded weight = 0
***     Energy difference with respect to previous leftright sweep = 0
******************************************************************
***  Information on completed instruction 3:
***     The reduced virtual dimension DSU(2)               = 1000
***     The total number of reduced MPS variables          = 2565
***     Minimum energy encountered during all instructions = -76.0784263954158
***     Minimum energy encountered during the last sweep   = -76.0784263954158
***     Maximum discarded weight during the last sweep     = 0
******************************************************************


  ==> Energy Summary <==

    Multi.(2ms)  Irrep.  No.               Energy      <S^2>
    --------------------------------------------------------
       1  (  0)    A1     0      -76.078426395416       n/a
    --------------------------------------------------------
   CheMPS2: a spin-adapted implementation of DMRG for ab initio quantum chemistry
   Copyright (C) 2013-2021 Sebastian Wouters

   This program is free software; you can redistribute it and/or modify
   it under the terms of the GNU General Public License as published by
   the Free Software Foundation; either version 2 of the License, or
   (at your option) any later version.

   This program is distributed in the hope that it will be useful,
   but WITHOUT ANY WARRANTY; without even the implied warranty of
   MERCHANTABILITY or FITNESS FOR A PARTICULAR PURPOSE.  See the
   GNU General Public License for more details.

   You should have received a copy of the GNU General Public License along
   with this program; if not, write to the Free Software Foundation, Inc.,
   51 Franklin Street, Fifth Floor, Boston, MA 02110-1301 USA.

Loaded MPS CheMPS2_MPS0.h5 converged y/n? : 0
****************************************************
***  2-RDM, 3-RDM, and Correlations calculation  ***
****************************************************
   N(N-1)                     = 56
   Double trace of DMRG 2-RDM = 56
   Econst + 0.5 * trace(2DM-A * Ham) = -76.0784263954157
   NOON of irrep A1 = [ 1.99776173813909 , 1.99036869552335 , 0.00854407057820942 ].
   NOON of irrep B1 = [ 1.97777532570037 , 0.0226532873954951 , 0.00285667362295961 , 0.000211984917816042 ].
   NOON of irrep B2 = [ 1.98549391846703 , 0.0143343056556777 ].
   Single-orbital entropies (Hamiltonian index order is used!) = [ 0.0295205032698771 , 0.0441893727060976 , 0.0541425547076369 , 0.0992445736330966 , 0.0645890690196744 , 0.044555948268296 , 0.0372876086157835 , 0.0722699348233849 , 0.0717858544259512 ].
   Idistance(0) = 0.499833009572448
   Idistance(1) = 1.14276829622671
   Idistance(2) = 3.9210939245859
   N(N-1)(N-2)                = 336
   Triple trace of DMRG 3-RDM = 336.000000000001
***********************************************************
***  Timing information 2-RDM, 3-RDM, and Correlations  ***
***********************************************************
***     Elapsed wall time        = 0.080205 seconds
***       |--> MPS gauge change  = 0.000462 seconds
***       |--> Diagram calc      = 0.017748 seconds
***       |--> Tensor update     = 0.060014 seconds
***              |--> create     = 0.005336 seconds
***              |--> destroy    = 0.001848 seconds
***              |--> disk write = 0.020853 seconds
***              |--> disk read  = 0.01799 seconds
***              |--> calc       = 0.014226 seconds
***     Disk write bandwidth     = 55.3832650727713 MB/s
***     Disk read  bandwidth     = 64.1971776855197 MB/s
***********************************************************


  ==> Semicanonicalize Orbitals <==

    MIX INACTIVE ORBITALS   ...... FALSE
    MIX GAS ACTIVE ORBITALS ...... FALSE
    FROZEN_DOCC     ...  CANONICAL
    FROZEN_UOCC     ...  CANONICAL
    GAS1            ...  CANONICAL
    RESTRICTED_DOCC ...  CANONICAL
    RESTRICTED_UOCC ...  CANONICAL

    Off-Diag. Elements       Max           2-Norm
    ------------------------------------------------
    GAS1                 0.0053369693   0.0159457524
    RESTRICTED_DOCC      0.0000000000   0.0000000000
    RESTRICTED_UOCC      0.0041645066   0.0136865896
    ------------------------------------------------
  Integrals are about to be updated.
  Computing the Cholesky Vectors 

  Computing CD Integrals
  Timing for cholesky transformation:                         0.306 s.
  Need 1.29 MB to store CD integrals in core

  Number of Cholesky vectors required for 1.000e-12 tolerance: 279

  Timing for freezing core and virtual orbitals:              0.000 s.
  Integrals update took     0.348 s.
  Rotating RDMs using spin unrestricted formalism ...
    Transformed 1 RDMs.
    Transformed 2 RDMs.
    Transformed 3 RDMs.
  Timing for orbital canonicalization:                        1.712 s.

  ==> Multireference Driven Similarity Renormalization Group <==

    Computing Fock matrix and cleaning JK ........... Done
    Reading DSRG options ............................ Done
    Setting ambit MO space .......................... Done
    Preparing tensors for density cumulants ......... Done
    Filling Fock matrix from ForteIntegrals ......... Done

                  --------------------------------------------
                      Density Fitted / Cholesky Decomposed
                    MR-DSRG Second-Order Perturbation Theory
                      Kevin Hannon and Chenyang (York) Li
                                 1 thread (OMP)
                  --------------------------------------------

    References:
      u-DSRG-MRPT2:      J. Chem. Theory Comput. 2015, 11, 2097.
      DF/CD-DSRG-MRPT2:  J. Chem. Phys. 2016, 144, 204111.
      (pr-)DSRG-MRPT2:   J. Chem. Phys. 2017, 146, 124132.


  ==> Calculation Information <==

    Psi4 ref_type                                        RHF
    Integral type                                   CHOLESKY
    Source operator                                 STANDARD
    CCVV algorithm                                 FLY_AMBIT
    CCVV source                                       NORMAL
    Reference relaxation                                NONE
    State type                                STATE-SPECIFIC
    form Hbar3                                         FALSE
    Flow parameter                                 5.000e-01
    Taylor expansion threshold                     1.000e-03
    Cholesky tolerance                             1.000e-12


  ==> Checking Semicanonical Orbitals <==

    Block             Fa Max         Fa Mean           Fb Max         Fb Mean
    -------------------------------------------------------------------------
    CORE        0.0000000000    0.0000000000     0.0000000000    0.0000000000
    VIRTUAL     0.0000000000    0.0000000000     0.0000000000    0.0000000000
    GAS1        0.0000000000    0.0000000000     0.0000000000    0.0000000000
    -------------------------------------------------------------------------
    Orbitals are semi-canonicalized.

  ==> Computing DSRG-MRPT2 Energy <==

  Reference Energy = -76.078426395415789
    Computing T2                             ...... Done. Timing        0.042398 s
    Renormalizing V                          ...... Done. Timing        0.038496 s
    Computing T1                             ...... Done. Timing        0.007251 s
    Renormalizing F                          ...... Done. Timing        0.007681 s
    Computing <[F, T1]>                      ...... Done. Timing        0.001514 s
    Computing <[F, T2]>                      ...... Done. Timing        0.006487 s
    Computing <[V, T1]>                      ...... Done. Timing        0.007252 s
    Computing <[V, T2]> 4HH                  ...... Done. Timing        0.007433 s
    Computing <V, T2]> 4PP                   ...... Done. Timing        0.011320 s
    Computing [V, T2] 4PH                    ...... Done. Timing        0.045085 s
    Computing [V, T2] λ3                     ...... Done. Timing        1.294831 s
    Computing <[V, T2]> (C_2)^4 (no ccvv)    ...... Done. Timing        0.037766 s
    Computing <[V, T2]> (C_2)^4 ccvv         ...... Done. Timing        0.001057 s
  Eccvv: -0.0002112932

  ==> DSRG-MRPT2 (DF/CD) Energy Summary <==

    E0 (reference)                 =    -76.078426395415789
    <[F, T1]>                      =     -0.000028427927079
    <[F, T2]>                      =     -0.000069475851281
    <[V, T1]>                      =     -0.000120704050963
    <[V, T2]> C_4 (C_2)^2 HH       =      0.000029293249630
    <[V, T2]> C_4 (C_2)^2 PP       =      0.007899254896872
    <[V, T2]> C_4 (C_2)^2 PH       =      0.006532688195534
    <[V, T2]> C_6 C_2              =      0.000248027049880
    <[V, T2]> (C_2)^4              =     -0.160135949001289
    <[V, T2]>                      =     -0.145426685609373
    DSRG-MRPT2 correlation energy  =     -0.145645293438697
    DSRG-MRPT2 total energy        =    -76.224071688854480
    max(T1)                        =      0.001772143793625
    ||T1||                         =      0.005343756902736

  ==> Total Timings (s) for Computing Commutators <==

             [H1, T1]    [H1, T2]    [H2, T1]    [H2, T2]
    -----------------------------------------------------
    -> C0       0.002       0.007       0.007       0.103
    -> C1       0.000       0.000       0.000       0.000
    -> C2                   0.000       0.000       0.000
    -----------------------------------------------------


  Time to prepare integrals:        0.660 seconds
  Time to run job          :        4.328 seconds
  Total                    :        4.988 seconds
    DMRG CI Energy........................................................................PASSED

    Psi4 stopped on: Saturday, 15 January 2022 01:51AM
    Psi4 wall time for execution: 0:00:06.84

*** Psi4 exiting successfully. Buy a developer a beer!
