
    -----------------------------------------------------------------------
          Psi4: An Open-Source Ab Initio Electronic Structure Package
                               Psi4 undefined 

                         Git: Rev {mints_oei2} db4949a dirty


    R. M. Parrish, L. A. Burns, D. G. A. Smith, A. C. Simmonett,
    A. E. DePrince III, E. G. Hohenstein, U. Bozkaya, A. Yu. Sokolov,
    R. Di Remigio, R. M. Richard, J. F. Gonthier, A. M. James,
    H. R. McAlexander, A. Kumar, M. Saitow, X. Wang, B. P. Pritchard,
    P. Verma, H. F. Schaefer III, K. Patkowski, R. A. King, E. F. Valeev,
    F. A. Evangelista, J. M. Turney, T. D. Crawford, and C. D. Sherrill,
    J. Chem. Theory Comput. 13(7) pp 3185--3197 (2017).
    (doi: 10.1021/acs.jctc.7b00174)


                         Additional Contributions by
    P. Kraus, H. Kruse, M. H. Lechner, M. C. Schieber, R. A. Shaw,
    A. Alenaizan, R. Galvelis, Z. L. Glick, S. Lehtola, and J. P. Misiewicz

    -----------------------------------------------------------------------


    Psi4 started on: Thursday, 13 February 2020 04:04PM

    Process ID: 5088
    Host:       CHE-FEVANGE-01I (2)
    PSIDATADIR: /Users/fevange/Source/psi4/objdir-Debug/stage/share/psi4
    Memory:     500.0 MiB
    Threads:    1
    
  ==> Input File <==

--------------------------------------------------------------------------
#! Generated using commit GITCOMMIT
# Tests mp2_nos with spin projected system for multiple roots


import forte

refscf = -75.0525898286472284 
refaci = -75.383717530874
refacipt2  = -75.433623094732

molecule N2{
C 
C 1 2.6
units angstrom
}

set {
  basis dz 
  scf_type pk
  freeze_core true
  reference rhf 
  e_convergence 10
  d_convergence 10
  docc [2,0,0,0,0,2,1,1]
  guess gwh
}



set forte {
  active_space_solver aci
  multiplicity 1
  frozen_docc [1,0,0,0,0,1,0,0]
  sci_excited_algorithm average
  sigma 0.05
  nroot 3
  charge 0
  aci_enforce_spin_complete true
  aci_n_average 3
  aci_average_offset 0
  diag_algorithm sparse
  active_ref_type hf
}

energy('scf')
compare_values(refscf, variable("CURRENT ENERGY"),9, "SCF energy") #TEST

energy('forte')
compare_values(refaci, variable("ACI ENERGY"),9, "ACI energy") #TEST
compare_values(refacipt2, variable("ACI+PT2 ENERGY"),7, "ACI+PT2 energy") #TEST

--------------------------------------------------------------------------

Scratch directory: /tmp/

*** tstart() called on CHE-FEVANGE-01I (2)
*** at Thu Feb 13 16:04:01 2020

   => Loading Basis Set <=

    Name: DZ
    Role: ORBITAL
    Keyword: BASIS
    atoms 1-2 entry C          line    63 file /Users/fevange/Source/psi4/objdir-Debug/stage/share/psi4/basis/dz.gbs 


         ---------------------------------------------------------
                                   SCF
               by Justin Turney, Rob Parrish, Andy Simmonett
                          and Daniel G. A. Smith
                              RHF Reference
                        1 Threads,    500 MiB Core
         ---------------------------------------------------------

  ==> Geometry <==

    Molecular point group: d2h
    Full point group: D_inf_h

    Geometry (in Angstrom), charge = 0, multiplicity = 1:

       Center              X                  Y                   Z               Mass       
    ------------   -----------------  -----------------  -----------------  -----------------
         C            0.000000000000     0.000000000000    -1.300000000000    12.000000000000
         C            0.000000000000     0.000000000000     1.300000000000    12.000000000000

  Running in d2h symmetry.

  Rotational constants: A = ************  B =      0.41562  C =      0.41562 [cm^-1]
  Rotational constants: A = ************  B =  12460.03473  C =  12460.03473 [MHz]
  Nuclear repulsion =    7.327069070815384

  Charge       = 0
  Multiplicity = 1
  Electrons    = 12
  Nalpha       = 6
  Nbeta        = 6

  ==> Algorithm <==

  SCF Algorithm Type is PK.
  DIIS enabled.
  MOM disabled.
  Fractional occupation disabled.
  Guess Type is GWH.
  Energy threshold   = 1.00e-10
  Density threshold  = 1.00e-10
  Integral threshold = 0.00e+00

  ==> Primary Basis <==

  Basis Set: DZ
    Blend: DZ
    Number of shells: 12
    Number of basis function: 20
    Number of Cartesian functions: 20
    Spherical Harmonics?: false
    Max angular momentum: 1

  ==> Pre-Iterations <==

   -------------------------------------------------------
    Irrep   Nso     Nmo     Nalpha   Nbeta   Ndocc  Nsocc
   -------------------------------------------------------
     Ag         6       6       2       2       2       0
     B1g        0       0       0       0       0       0
     B2g        2       2       0       0       0       0
     B3g        2       2       0       0       0       0
     Au         0       0       0       0       0       0
     B1u        6       6       2       2       2       0
     B2u        2       2       1       1       1       0
     B3u        2       2       1       1       1       0
   -------------------------------------------------------
    Total      20      20       6       6       6       0
   -------------------------------------------------------

  ==> Integral Setup <==

  Using in-core PK algorithm.
   Calculation information:
      Number of atoms:                   2
      Number of AO shells:              12
      Number of primitives:             28
      Number of atomic orbitals:        20
      Number of basis functions:        20

      Integral cutoff                 1.00e-12
      Number of threads:                 1

  Performing in-core PK
  Using 44310 doubles for integral storage.
  We computed 2802 shell quartets total.
  Whereas there are 3081 unique shell quartets.

  ==> DiskJK: Disk-Based J/K Matrices <==

    J tasked:                  Yes
    K tasked:                  Yes
    wK tasked:                  No
    Memory [MiB]:              375
    Schwarz Cutoff:          1E-12

    OpenMP threads:              1

  Minimum eigenvalue in the overlap matrix is 9.9926173679E-02.
  Reciprocal condition number of the overlap matrix is 3.9040854220E-02.
    Using symmetric orthogonalization.
  SCF Guess: Generalized Wolfsberg-Helmholtz.

  ==> Iterations <==

                        Total Energy        Delta E     RMS |[F,P]|

   @RHF iter   1:   -74.80224379612909   -7.48022e+01   2.02732e-01 DIIS
   @RHF iter   2:   -75.04695491619871   -2.44711e-01   9.65271e-03 DIIS
   @RHF iter   3:   -75.05228353805536   -5.32862e-03   1.56241e-03 DIIS
   @RHF iter   4:   -75.05257448252462   -2.90944e-04   3.69937e-04 DIIS
   @RHF iter   5:   -75.05258968037703   -1.51979e-05   3.50547e-05 DIIS
   @RHF iter   6:   -75.05258982678272   -1.46406e-07   4.71036e-06 DIIS
   @RHF iter   7:   -75.05258982862097   -1.83825e-09   5.29384e-07 DIIS
   @RHF iter   8:   -75.05258982864714   -2.61764e-11   2.55079e-08 DIIS
   @RHF iter   9:   -75.05258982864714    0.00000e+00   1.84991e-09 DIIS
   @RHF iter  10:   -75.05258982864714    0.00000e+00   1.69001e-10 DIIS
   @RHF iter  11:   -75.05258982864716   -1.42109e-14   1.20217e-11 DIIS
  Energy and wave function converged.


  ==> Post-Iterations <==

    Orbital Energies [Eh]
    ---------------------

    Doubly Occupied:                                                      

       1Ag   -11.470404     1B1u  -11.470326     2Ag    -0.810058  
       2B1u   -0.745371     1B3u   -0.300980     1B2u   -0.300980  

    Virtual:                                                              

       1B2g   -0.073394     1B3g   -0.073394     3Ag    -0.047958  
       3B1u    0.077537     2B3u    0.444580     2B2u    0.444580  
       4B1u    0.446484     2B2g    0.507663     2B3g    0.507663  
       4Ag     0.549709     5Ag     0.613210     5B1u    0.857554  
       6Ag    23.510751     6B1u   23.582909  

    Final Occupation by Irrep:
             Ag   B1g   B2g   B3g    Au   B1u   B2u   B3u 
    DOCC [     2,    0,    0,    0,    0,    2,    1,    1 ]

  @RHF Final Energy:   -75.05258982864716

   => Energetics <=

    Nuclear Repulsion Energy =              7.3270690708153845
    One-Electron Energy =                -114.5630794461349069
    Two-Electron Energy =                  32.1834205466723660
    Total Energy =                        -75.0525898286471573

Computation Completed


Properties will be evaluated at   0.000000,   0.000000,   0.000000 [a0]

Properties computed using the SCF density matrix

  Nuclear Dipole Moment: [e a0]
     X:     0.0000      Y:     0.0000      Z:     0.0000

  Electronic Dipole Moment: [e a0]
     X:     0.0000      Y:     0.0000      Z:     0.0000

  Dipole Moment: [e a0]
     X:     0.0000      Y:     0.0000      Z:     0.0000     Total:     0.0000

  Dipole Moment: [D]
     X:     0.0000      Y:     0.0000      Z:     0.0000     Total:     0.0000


*** tstop() called on CHE-FEVANGE-01I (2) at Thu Feb 13 16:04:02 2020
Module time:
	user time   =       0.30 seconds =       0.00 minutes
	system time =       0.03 seconds =       0.00 minutes
	total time  =          1 seconds =       0.02 minutes
Total time:
	user time   =       0.30 seconds =       0.00 minutes
	system time =       0.03 seconds =       0.00 minutes
	total time  =          1 seconds =       0.02 minutes
    SCF energy........................................................PASSED

Scratch directory: /tmp/

*** tstart() called on CHE-FEVANGE-01I (2)
*** at Thu Feb 13 16:04:02 2020

   => Loading Basis Set <=

    Name: DZ
    Role: ORBITAL
    Keyword: BASIS
    atoms 1-2 entry C          line    63 file /Users/fevange/Source/psi4/objdir-Debug/stage/share/psi4/basis/dz.gbs 


         ---------------------------------------------------------
                                   SCF
               by Justin Turney, Rob Parrish, Andy Simmonett
                          and Daniel G. A. Smith
                              RHF Reference
                        1 Threads,    500 MiB Core
         ---------------------------------------------------------

  ==> Geometry <==

    Molecular point group: d2h
    Full point group: D_inf_h

    Geometry (in Angstrom), charge = 0, multiplicity = 1:

       Center              X                  Y                   Z               Mass       
    ------------   -----------------  -----------------  -----------------  -----------------
         C            0.000000000000     0.000000000000    -1.300000000000    12.000000000000
         C            0.000000000000     0.000000000000     1.300000000000    12.000000000000

  Running in d2h symmetry.

  Rotational constants: A = ************  B =      0.41562  C =      0.41562 [cm^-1]
  Rotational constants: A = ************  B =  12460.03473  C =  12460.03473 [MHz]
  Nuclear repulsion =    7.327069070815384

  Charge       = 0
  Multiplicity = 1
  Electrons    = 12
  Nalpha       = 6
  Nbeta        = 6

  ==> Algorithm <==

  SCF Algorithm Type is PK.
  DIIS enabled.
  MOM disabled.
  Fractional occupation disabled.
  Guess Type is GWH.
  Energy threshold   = 1.00e-10
  Density threshold  = 1.00e-10
  Integral threshold = 0.00e+00

  ==> Primary Basis <==

  Basis Set: DZ
    Blend: DZ
    Number of shells: 12
    Number of basis function: 20
    Number of Cartesian functions: 20
    Spherical Harmonics?: false
    Max angular momentum: 1

  ==> Pre-Iterations <==

   -------------------------------------------------------
    Irrep   Nso     Nmo     Nalpha   Nbeta   Ndocc  Nsocc
   -------------------------------------------------------
     Ag         6       6       2       2       2       0
     B1g        0       0       0       0       0       0
     B2g        2       2       0       0       0       0
     B3g        2       2       0       0       0       0
     Au         0       0       0       0       0       0
     B1u        6       6       2       2       2       0
     B2u        2       2       1       1       1       0
     B3u        2       2       1       1       1       0
   -------------------------------------------------------
    Total      20      20       6       6       6       0
   -------------------------------------------------------

  ==> Integral Setup <==

  Using in-core PK algorithm.
   Calculation information:
      Number of atoms:                   2
      Number of AO shells:              12
      Number of primitives:             28
      Number of atomic orbitals:        20
      Number of basis functions:        20

      Integral cutoff                 1.00e-12
      Number of threads:                 1

  Performing in-core PK
  Using 44310 doubles for integral storage.
  We computed 2802 shell quartets total.
  Whereas there are 3081 unique shell quartets.

  ==> DiskJK: Disk-Based J/K Matrices <==

    J tasked:                  Yes
    K tasked:                  Yes
    wK tasked:                  No
    Memory [MiB]:              375
    Schwarz Cutoff:          1E-12

    OpenMP threads:              1

  Minimum eigenvalue in the overlap matrix is 9.9926173679E-02.
  Reciprocal condition number of the overlap matrix is 3.9040854220E-02.
    Using symmetric orthogonalization.
  SCF Guess: Generalized Wolfsberg-Helmholtz.

  ==> Iterations <==

                        Total Energy        Delta E     RMS |[F,P]|

   @RHF iter   1:   -74.80224379612909   -7.48022e+01   2.02732e-01 DIIS
   @RHF iter   2:   -75.04695491619871   -2.44711e-01   9.65271e-03 DIIS
   @RHF iter   3:   -75.05228353805536   -5.32862e-03   1.56241e-03 DIIS
   @RHF iter   4:   -75.05257448252462   -2.90944e-04   3.69937e-04 DIIS
   @RHF iter   5:   -75.05258968037703   -1.51979e-05   3.50547e-05 DIIS
   @RHF iter   6:   -75.05258982678272   -1.46406e-07   4.71036e-06 DIIS
   @RHF iter   7:   -75.05258982862097   -1.83825e-09   5.29384e-07 DIIS
   @RHF iter   8:   -75.05258982864714   -2.61764e-11   2.55079e-08 DIIS
   @RHF iter   9:   -75.05258982864714    0.00000e+00   1.84991e-09 DIIS
   @RHF iter  10:   -75.05258982864714    0.00000e+00   1.69001e-10 DIIS
   @RHF iter  11:   -75.05258982864716   -1.42109e-14   1.20217e-11 DIIS
  Energy and wave function converged.


  ==> Post-Iterations <==

    Orbital Energies [Eh]
    ---------------------

    Doubly Occupied:                                                      

       1Ag   -11.470404     1B1u  -11.470326     2Ag    -0.810058  
       2B1u   -0.745371     1B3u   -0.300980     1B2u   -0.300980  

    Virtual:                                                              

       1B2g   -0.073394     1B3g   -0.073394     3Ag    -0.047958  
       3B1u    0.077537     2B3u    0.444580     2B2u    0.444580  
       4B1u    0.446484     2B2g    0.507663     2B3g    0.507663  
       4Ag     0.549709     5Ag     0.613210     5B1u    0.857554  
       6Ag    23.510751     6B1u   23.582909  

    Final Occupation by Irrep:
             Ag   B1g   B2g   B3g    Au   B1u   B2u   B3u 
    DOCC [     2,    0,    0,    0,    0,    2,    1,    1 ]

  @RHF Final Energy:   -75.05258982864716

   => Energetics <=

    Nuclear Repulsion Energy =              7.3270690708153845
    One-Electron Energy =                -114.5630794461349069
    Two-Electron Energy =                  32.1834205466723660
    Total Energy =                        -75.0525898286471573

Computation Completed


Properties will be evaluated at   0.000000,   0.000000,   0.000000 [a0]

Properties computed using the SCF density matrix

  Nuclear Dipole Moment: [e a0]
     X:     0.0000      Y:     0.0000      Z:     0.0000

  Electronic Dipole Moment: [e a0]
     X:     0.0000      Y:     0.0000      Z:     0.0000

  Dipole Moment: [e a0]
     X:     0.0000      Y:     0.0000      Z:     0.0000     Total:     0.0000

  Dipole Moment: [D]
     X:     0.0000      Y:     0.0000      Z:     0.0000     Total:     0.0000


*** tstop() called on CHE-FEVANGE-01I (2) at Thu Feb 13 16:04:02 2020
Module time:
	user time   =       0.18 seconds =       0.00 minutes
	system time =       0.00 seconds =       0.00 minutes
	total time  =          0 seconds =       0.00 minutes
Total time:
	user time   =       0.50 seconds =       0.01 minutes
	system time =       0.03 seconds =       0.00 minutes
	total time  =          1 seconds =       0.02 minutes
   => Loading Basis Set <=

    Name: STO-3G
    Role: ORBITAL
    Keyword: MINAO_BASIS
    atoms 1-2 entry C          line    61 file /Users/fevange/Source/psi4/objdir-Debug/stage/share/psi4/basis/sto-3g.gbs 


  Forte
  ----------------------------------------------------------------------------
  A suite of quantum chemistry methods for strongly correlated electrons

    git branch: master - git commit: 4df19a57

  Developed by:
    Francesco A. Evangelista, Chenyang Li, Kevin P. Hannon,
    Jeffrey B. Schriber, Tianyuan Zhang, Chenxi Cai,
    Nan He, Nicholas Stair, Shuhe Wang, Renke Huang
  ----------------------------------------------------------------------------

  Size of Determinant class: 256 bits
  Read options for space FROZEN_DOCC

  ==> MO Space Information <==

  -------------------------------------------------------------------------
                       Ag   B1g   B2g   B3g    Au   B1u   B2u   B3u   Sum
  -------------------------------------------------------------------------
    FROZEN_DOCC         1     0     0     0     0     1     0     0     2
    RESTRICTED_DOCC     0     0     0     0     0     0     0     0     0
    ACTIVE              5     0     2     2     0     5     2     2    18
    RESTRICTED_UOCC     0     0     0     0     0     0     0     0     0
    FROZEN_UOCC         0     0     0     0     0     0     0     0     0
    Total               6     0     2     2     0     6     2     2    20
  -------------------------------------------------------------------------

  ==> Integral Transformation <==

  Number of molecular orbitals:                    20
  Number of correlated molecular orbitals:         18
  Number of frozen occupied orbitals:               2
  Number of frozen unoccupied orbitals:             0
  Two-electron integral type:              Conventional


  Overall Conventional Integrals timings

	Presorting SO-basis two-electron integrals.
	Sorting File: SO Ints (nn|nn) nbuckets = 1
	Transforming the one-electron integrals and constructing Fock matrices
	Starting first half-transformation.
	Sorting half-transformed integrals.
	First half integral transformation complete.
	Starting second half-transformation.
	Two-electron integral transformation complete.

  Integral transformation done. 0.02581289 s
  Reading the two-electron integrals from disk
  Size of two-electron integrals:   0.003576 GB  Using in-core PK algorithm.
   Calculation information:
      Number of atoms:                   2
      Number of AO shells:              12
      Number of primitives:             28
      Number of atomic orbitals:        20
      Number of basis functions:        20

      Integral cutoff                 1.00e-12
      Number of threads:                 1

  Performing in-core PK
  Using 44310 doubles for integral storage.
  We computed 2802 shell quartets total.
  Whereas there are 3081 unique shell quartets.


  Frozen-core energy            -68.788158074678 a.u.
  Timing for frozen one-body operator:                        0.072 s.
  Resorting integrals after freezing core.
  Timing for freezing core and virtual orbitals:              0.077 s.
  Conventional integrals take 0.16296271 s

  ==> Summary of Active Space Solver Input <==

    Irrep.  Multi.  Nstates
    -------------------------
      Ag       1        3
    -------------------------
    Total number of states: 3
    -------------------------


-------------------------------------------------------------------------------
               Selected Configuration Interaction Excited States
  written by Jeffrey B. Schriber, Tianyuan Zhang and Francesco A. Evangelista
-------------------------------------------------------------------------------

  ==> Reference Information <==

  ==> Calculation Information <==

  -----------------------------------------------------------------
    Multiplicity                             1    
    Symmetry                                 0    
    Number of roots                          3    
    Ms                                       0
    Excited Algorithm                        AVERAGE
  -----------------------------------------------------------------

        ---------------------------------------------------------------
                      Adaptive Configuration Interaction
          written by Jeffrey B. Schriber and Francesco A. Evangelista
        ---------------------------------------------------------------

  ==> Reference Information <==

  There are 2 frozen orbitals.
  There are 18 active orbitals.

  ==> Calculation Information <==

  -----------------------------------------------------------------
    Multiplicity                             1    
    Symmetry                                 0    
    Number of roots                          3    
    Root used for properties                 0    
    Sigma (Eh)                               5.00e-02
    Gamma (Eh^(-1))                          1.00e+00
    Convergence threshold                    1.00e-09
    Ms                                       0
    Diagonalization algorithm                SPARSE
    Excited Algorithm                        AVERAGE
    Project out spin contaminants            True
    Enforce spin completeness of basis       True
    Enforce complete aimed selection         True
  -----------------------------------------------------------------
  Number of active alpha electrons: 4
  Number of active beta electrons: 4
  Maximum reference space size: 1000
  |200000000200002020>

  ==> Cycle 0 <==

  Initial P space dimension: 1
  Spin-complete dimension of the P space: 1 determinants

  ==> Computing Coupling Lists <==
  --------------------------------
        α          0.000025 s
        β          0.000009 s
        αα         0.000026 s
        ββ         0.000017 s
        αβ         0.000030 s
  --------------------------------
  Time spent diagonalizing H:   0.001075 s

    P-space  CI Energy Root   0        = -75.052589828647 Eh =   0.0000 eV

  Using AVERAGE screening algorithm
  Using 1 threads.
  Time spent building sorting list: 0.008646
  Size of F space: 612
  Time spent building the model space: 0.010695
  Spin-complete dimension of the PQ space: 613

  ==> Diagonalize the Hamiltonian in the P + Q space <==

  ==> Computing Coupling Lists <==
  --------------------------------
        α          0.001169 s
        β          0.001159 s
        αα         0.001450 s
        ββ         0.001436 s
        αβ         0.003812 s
  --------------------------------
  Number of reference roots: 3

  Davidson-liu sparse algorithm
  Time spent building H:   0.003203 s
  H contains 45411 nonzero elements (0.693 MB)
  Initial guess space is incomplete!
  Trying to add 27 determinant(s).  27 determinant(s) added.
  Initial guess found 138 solutions with 2S+1 = 1 *
  Initial guess found 148 solutions with 2S+1 = 3  
  Initial guess found 41 solutions with 2S+1 = 5  
  Adding guess 0 (multiplicity = 1.000000)
  Adding guess 1 (multiplicity = 1.000000)
  Adding guess 2 (multiplicity = 1.000000)
  Adding guess 3 (multiplicity = 1.000000)
  Adding guess 4 (multiplicity = 1.000000)
  Adding guess 5 (multiplicity = 1.000000)

  ==> Diagonalizing Hamiltonian <==

  -----------------------------------------------------
    Iter.      Avg. Energy       Delta_E     Res. Norm
  -----------------------------------------------------
      1      -82.597347179283  -8.260e+01  +9.029e-02
      2      -82.601997130318  -4.650e-03  +1.266e-02
      3      -82.602113061153  -1.159e-04  +3.196e-03
      4      -82.602120981641  -7.920e-06  +8.759e-04
      5      -82.602121594518  -6.129e-07  +3.337e-04
      6      -82.602121721515  -1.270e-07  +1.095e-04
      7      -82.602121734985  -1.347e-08  +4.334e-05
      8      -82.602121736274  -1.290e-09  +1.516e-05
      9      -82.602121736480  -2.056e-10  +8.300e-06
     10      -82.602121736565  -8.495e-11  +4.046e-06
     11      -82.602121736576  -1.123e-11  +1.281e-06
     12      -82.602121736578  -1.933e-12  +5.561e-07
     13      -82.602121736578  -2.558e-13  +2.143e-07
  -----------------------------------------------------
  The Davidson-Liu algorithm converged in 14 iterations.
  Davidson-Liu procedure took  0.068154 s
  Total time spent diagonalizing H:   0.072521 s

    PQ-space CI Energy Root   0        = -75.332209650164 Eh =   0.0000 eV
    PQ-space CI Energy + EPT2 Root   0 = -75.332209650164 Eh =   0.0000 eV
    PQ-space CI Energy Root   1        = -75.253132832480 Eh =   2.1518 eV
    PQ-space CI Energy + EPT2 Root   1 = -75.253132832480 Eh =   2.1518 eV
    PQ-space CI Energy Root   2        = -75.239815514645 Eh =   2.5142 eV
    PQ-space CI Energy + EPT2 Root   2 = -75.239815514645 Eh =   2.5142 eV

  Added 1 missing determinants in aimed selection.

  Most important contributions to root   0:
    0  -0.659304 0.434681592           0 |200000000200002020>
    1   0.367850 0.135313683         612 |200002000200002000>
    2   0.367850 0.135313650         611 |200000020200000020>
    3  -0.288202 0.083060630         388 |20000+0-020000-0+0>
    4  -0.288202 0.083060630         389 |20000-0+020000+0-0>
    5   0.174891 0.030586965         607 |20000-0-020000+0+0>
    6   0.174891 0.030586965         608 |20000+0+020000-0-0>
    7  -0.113311 0.012839409         610 |20000-0+020000-0+0>
    8  -0.113311 0.012839409         609 |20000+0-020000+0-0>
    9   0.044976 0.002022858         599 |2000000+-200000020>

  Spin state for root 0: S^2 = 0.000000, S = 0.000, singlet

  Most important contributions to root   1:
    0  -0.597572 0.357091977           0 |200000000200002020>
    1  -0.347180 0.120533725         607 |20000-0-020000+0+0>
    2  -0.347180 0.120533725         608 |20000+0+020000-0-0>
    3   0.342115 0.117042625         389 |20000-0+020000+0-0>
    4   0.342115 0.117042625         388 |20000+0-020000-0+0>
    5   0.231072 0.053394220         390 |200000020200002000>
    6   0.231072 0.053394219         387 |200002000200000020>
    7  -0.105978 0.011231400         611 |200000020200000020>
    8  -0.105978 0.011231393         612 |200002000200002000>
    9  -0.037018 0.001370335         578 |20000+00+20000-0-0>

  Spin state for root 1: S^2 = 0.000000, S = 0.000, singlet

  Most important contributions to root   2:
    0   0.350481 0.122836791         387 |200002000200000020>
    1   0.350481 0.122836791         390 |200000020200002000>
    2  -0.350481 0.122836791         611 |200000020200000020>
    3  -0.350481 0.122836791         612 |200002000200002000>
    4  -0.350481 0.122836791         609 |20000+0-020000+0-0>
    5  -0.350481 0.122836791         610 |20000-0+020000-0+0>
    6  -0.350481 0.122836791         389 |20000-0+020000+0-0>
    7  -0.350481 0.122836791         388 |20000+0-020000-0+0>
    8  -0.029933 0.000896003         600 |2000000-+200000020>
    9  -0.029933 0.000896003         599 |2000000+-200000020>

  Spin state for root 2: S^2 = 0.000000, S = 0.000, singlet
  Cycle 0 took: 0.096387 s

  ==> Cycle 1 <==

  Initial P space dimension: 11
  Spin-complete dimension of the P space: 11 determinants

  ==> Computing Coupling Lists <==
  --------------------------------
        α          0.000026 s
        β          0.000024 s
        αα         0.000035 s
        ββ         0.000035 s
        αβ         0.000085 s
  --------------------------------
  Time spent diagonalizing H:   0.000076 s

    P-space  CI Energy Root   0        = -75.330448929086 Eh =   0.0000 eV
    P-space  CI Energy Root   1        = -75.295130819864 Eh =   0.9611 eV
    P-space  CI Energy Root   2        = -75.278469215573 Eh =   1.4144 eV

  Using AVERAGE screening algorithm
  Using 1 threads.
  Time spent building sorting list: 0.041827
  Size of F space: 5211
  Added 3 missing determinants in aimed selection.
  Time spent building the model space: 0.046305
  Spin-complete dimension of the PQ space: 441

  ==> Diagonalize the Hamiltonian in the P + Q space <==

  ==> Computing Coupling Lists <==
  --------------------------------
        α          0.000802 s
        β          0.000798 s
        αα         0.001151 s
        ββ         0.001146 s
        αβ         0.002653 s
  --------------------------------
  Number of reference roots: 3

  Davidson-liu sparse algorithm
  Time spent building H:   0.000997 s
  H contains 12051 nonzero elements (0.184 MB)
  Initial guess space is incomplete!
  Trying to add 49 determinant(s).  49 determinant(s) added.
  Initial guess found 101 solutions with 2S+1 = 1 *
  Initial guess found 155 solutions with 2S+1 = 3  
  Initial guess found 77 solutions with 2S+1 = 5  
  Initial guess found 15 solutions with 2S+1 = 7  
  Initial guess found 1 solutions with 2S+1 = 9  
  Adding guess 0 (multiplicity = 1.000000)
  Adding guess 1 (multiplicity = 1.000000)
  Adding guess 2 (multiplicity = 1.000000)
  Adding guess 3 (multiplicity = 1.000000)
  Adding guess 4 (multiplicity = 1.000000)
  Adding guess 5 (multiplicity = 1.000000)

  ==> Diagonalizing Hamiltonian <==

  -----------------------------------------------------
    Iter.      Avg. Energy       Delta_E     Res. Norm
  -----------------------------------------------------
      1      -82.626185817351  -8.263e+01  +6.263e-02
      2      -82.628004954034  -1.819e-03  +4.252e-03
      3      -82.628013909636  -8.956e-06  +1.232e-03
      4      -82.628015070028  -1.160e-06  +2.204e-04
      5      -82.628015110613  -4.058e-08  +7.025e-05
      6      -82.628015115040  -4.428e-09  +2.984e-05
      7      -82.628015116386  -1.345e-09  +1.399e-05
      8      -82.628015116598  -2.121e-10  +4.908e-06
      9      -82.628015116637  -3.887e-11  +3.130e-06
     10      -82.628015116654  -1.783e-11  +1.131e-06
     11      -82.628015116657  -2.132e-12  +3.826e-07
  -----------------------------------------------------
  The Davidson-Liu algorithm converged in 12 iterations.
  Davidson-Liu procedure took  0.050886 s
  Total time spent diagonalizing H:   0.052256 s

    PQ-space CI Energy Root   0        = -75.373842671220 Eh =   0.0000 eV
    PQ-space CI Energy + EPT2 Root   0 = -75.423732754205 Eh =   0.0000 eV
    PQ-space CI Energy Root   1        = -75.284180072737 Eh =   2.4398 eV
    PQ-space CI Energy + EPT2 Root   1 = -75.334070155722 Eh =   2.4398 eV
    PQ-space CI Energy Root   2        = -75.244815393566 Eh =   3.5110 eV
    PQ-space CI Energy + EPT2 Root   2 = -75.294705476551 Eh =   3.5110 eV


  Most important contributions to root   0:
    0   0.488127 0.238267700           9 |200000000200002020>
    1  -0.372378 0.138665119           5 |200000020200000020>
    2  -0.372378 0.138665119           6 |200002000200002000>
    3   0.344873 0.118937271           8 |20000-0+020000+0-0>
    4   0.344873 0.118937271           7 |20000+0-020000-0+0>
    5   0.292752 0.085703890         119 |200002020200000000>
    6   0.181564 0.032965662           0 |20000-0+020000-0+0>
    7   0.181564 0.032965662          10 |20000+0-020000+0-0>
    8  -0.163308 0.026669617           2 |20000-0-020000+0+0>
    9  -0.163308 0.026669617           1 |20000+0+020000-0-0>

  Spin state for root 0: S^2 = 0.000000, S = 0.000, singlet

  Most important contributions to root   1:
    0  -0.438524 0.192303576           8 |20000-0+020000+0-0>
    1  -0.438524 0.192303576           7 |20000+0-020000-0+0>
    2   0.435241 0.189434385           9 |200000000200002020>
    3  -0.256896 0.065995331           6 |200002000200002000>
    4  -0.256896 0.065995331           5 |200000020200000020>
    5   0.253555 0.064290367           2 |20000-0-020000+0+0>
    6   0.253555 0.064290367           1 |20000+0+020000-0-0>
    7   0.218334 0.047669786         119 |200002020200000000>
    8  -0.184969 0.034213481           0 |20000-0+020000-0+0>
    9  -0.184969 0.034213481          10 |20000+0-020000+0-0>

  Spin state for root 1: S^2 = 0.000000, S = 0.000, singlet

  Most important contributions to root   2:
    0  -0.410714 0.168686367           3 |200000020200002000>
    1  -0.410714 0.168686367           4 |200002000200000020>
    2   0.328762 0.108084226           6 |200002000200002000>
    3   0.328762 0.108084226           5 |200000020200000020>
    4   0.298120 0.088875820          10 |20000+0-020000+0-0>
    5   0.298120 0.088875820           0 |20000-0+020000-0+0>
    6   0.295042 0.087050003           9 |200000000200002020>
    7   0.261495 0.068379395           2 |20000-0-020000+0+0>
    8   0.261495 0.068379395           1 |20000+0+020000-0-0>
    9   0.160693 0.025822150         119 |200002020200000000>

  Spin state for root 2: S^2 = 0.000000, S = 0.000, singlet
  Cycle 1 took: 0.107291 s

  ==> Cycle 2 <==

  Initial P space dimension: 12
  Spin-complete dimension of the P space: 12 determinants

  ==> Computing Coupling Lists <==
  --------------------------------
        α          0.000027 s
        β          0.000026 s
        αα         0.000037 s
        ββ         0.000036 s
        αβ         0.000091 s
  --------------------------------
  Time spent diagonalizing H:   0.000079 s

    P-space  CI Energy Root   0        = -75.335753035160 Eh =   0.0000 eV
    P-space  CI Energy Root   1        = -75.330448929086 Eh =   0.1443 eV
    P-space  CI Energy Root   2        = -75.278469215573 Eh =   1.5588 eV

  Using AVERAGE screening algorithm
  Using 1 threads.
  Time spent building sorting list: 0.045212
  Size of F space: 5618
  Time spent building the model space: 0.050002
  Spin-complete dimension of the PQ space: 377

  ==> Diagonalize the Hamiltonian in the P + Q space <==

  ==> Computing Coupling Lists <==
  --------------------------------
        α          0.000681 s
        β          0.000675 s
        αα         0.000964 s
        ββ         0.000972 s
        αβ         0.002429 s
  --------------------------------
  Number of reference roots: 3

  Davidson-liu sparse algorithm
  Time spent building H:   0.001034 s
  H contains 10163 nonzero elements (0.155 MB)
  Initial guess space is incomplete!
  Trying to add 65 determinant(s).  65 determinant(s) added.
  Initial guess found 109 solutions with 2S+1 = 1 *
  Initial guess found 162 solutions with 2S+1 = 3  
  Initial guess found 78 solutions with 2S+1 = 5  
  Initial guess found 15 solutions with 2S+1 = 7  
  Initial guess found 1 solutions with 2S+1 = 9  
  Adding guess 0 (multiplicity = 1.000000)
  Adding guess 1 (multiplicity = 1.000000)
  Adding guess 2 (multiplicity = 1.000000)
  Adding guess 3 (multiplicity = 1.000000)
  Adding guess 4 (multiplicity = 1.000000)
  Adding guess 5 (multiplicity = 1.000000)

  ==> Diagonalizing Hamiltonian <==

  -----------------------------------------------------
    Iter.      Avg. Energy       Delta_E     Res. Norm
  -----------------------------------------------------
      1      -82.633372629696  -8.263e+01  +3.069e-02
      2      -82.633753293701  -3.807e-04  +1.942e-03
      3      -82.633755373448  -2.080e-06  +4.426e-04
      4      -82.633755502487  -1.290e-07  +1.010e-04
      5      -82.633755509624  -7.137e-09  +2.969e-05
      6      -82.633755510495  -8.708e-10  +1.585e-05
      7      -82.633755511061  -5.660e-10  +6.563e-06
      8      -82.633755511126  -6.487e-11  +2.290e-06
      9      -82.633755511135  -9.805e-12  +1.453e-06
     10      -82.633755511140  -4.405e-12  +5.565e-07
     11      -82.633755511140  -3.979e-13  +2.066e-07
  -----------------------------------------------------
  The Davidson-Liu algorithm converged in 12 iterations.
  Davidson-Liu procedure took  0.057742 s
  Total time spent diagonalizing H:   0.059913 s

    PQ-space CI Energy Root   0        = -75.383717530874 Eh =   0.0000 eV
    PQ-space CI Energy + EPT2 Root   0 = -75.433623094732 Eh =   0.0000 eV
    PQ-space CI Energy Root   1        = -75.285980215933 Eh =   2.6596 eV
    PQ-space CI Energy + EPT2 Root   1 = -75.335885779791 Eh =   2.6596 eV
    PQ-space CI Energy Root   2        = -75.250361574167 Eh =   3.6288 eV
    PQ-space CI Energy + EPT2 Root   2 = -75.300267138025 Eh =   3.6288 eV


  Most important contributions to root   0:
    0  -0.517924 0.268245355          11 |200000000200002020>
    1   0.382486 0.146295418          10 |200002000200002000>
    2   0.382486 0.146295418           9 |200000020200000020>
    3  -0.318756 0.101605491           4 |200002020200000000>
    4  -0.306562 0.093980277           8 |20000-0+020000+0-0>
    5  -0.306562 0.093980277           7 |20000+0-020000-0+0>
    6  -0.169396 0.028694954           2 |20000-0+020000-0+0>
    7  -0.169396 0.028694954           3 |20000+0-020000+0-0>
    8   0.137166 0.018814561           6 |20000-0-020000+0+0>
    9   0.137166 0.018814561           5 |20000+0+020000-0-0>

  Spin state for root 0: S^2 = 0.000000, S = 0.000, singlet

  Most important contributions to root   1:
    0   0.462099 0.213535910           8 |20000-0+020000+0-0>
    1   0.462099 0.213535910           7 |20000+0-020000-0+0>
    2  -0.418341 0.175009010          11 |200000000200002020>
    3  -0.288232 0.083077605           6 |20000-0-020000+0+0>
    4  -0.288232 0.083077605           5 |20000+0+020000-0-0>
    5  -0.199797 0.039918801           4 |200002020200000000>
    6   0.192294 0.036977065           9 |200000020200000020>
    7   0.192294 0.036977065          10 |200002000200002000>
    8   0.173868 0.030229942           2 |20000-0+020000-0+0>
    9   0.173868 0.030229942           3 |20000+0-020000+0-0>

  Spin state for root 1: S^2 = 0.000000, S = 0.000, singlet

  Most important contributions to root   2:
    0   0.386011 0.149004790           1 |200000020200002000>
    1   0.386011 0.149004790           0 |200002000200000020>
    2  -0.357912 0.128100932          10 |200002000200002000>
    3  -0.357912 0.128100932           9 |200000020200000020>
    4  -0.315263 0.099390522           3 |20000+0-020000+0-0>
    5  -0.315263 0.099390522           2 |20000-0+020000-0+0>
    6  -0.281137 0.079037799          11 |200000000200002020>
    7  -0.244109 0.059589182           6 |20000-0-020000+0+0>
    8  -0.244109 0.059589182           5 |20000+0+020000-0-0>
    9  -0.109626 0.012017814           4 |200002020200000000>

  Spin state for root 2: S^2 = 0.000000, S = 0.000, singlet
  Cycle 2 took: 0.117534 s

  ==> Cycle 3 <==

  Initial P space dimension: 12
  Spin-complete dimension of the P space: 12 determinants

  ==> Computing Coupling Lists <==
  --------------------------------
        α          0.000026 s
        β          0.000024 s
        αα         0.000036 s
        ββ         0.000035 s
        αβ         0.000091 s
  --------------------------------
  Time spent diagonalizing H:   0.000071 s

    P-space  CI Energy Root   0        = -75.335753035160 Eh =   0.0000 eV
    P-space  CI Energy Root   1        = -75.330448929086 Eh =   0.1443 eV
    P-space  CI Energy Root   2        = -75.278469215573 Eh =   1.5588 eV

  Using AVERAGE screening algorithm
  Using 1 threads.
  Time spent building sorting list: 0.045510
  Size of F space: 5618
  Time spent building the model space: 0.050621
  Spin-complete dimension of the PQ space: 377

  ==> Diagonalize the Hamiltonian in the P + Q space <==

  ==> Computing Coupling Lists <==
  --------------------------------
        α          0.000684 s
        β          0.000686 s
        αα         0.000997 s
        ββ         0.000994 s
        αβ         0.002368 s
  --------------------------------
  Number of reference roots: 3

  Davidson-liu sparse algorithm
  Time spent building H:   0.000870 s
  H contains 10163 nonzero elements (0.155 MB)
  Initial guess space is incomplete!
  Trying to add 65 determinant(s).  65 determinant(s) added.
  Initial guess found 109 solutions with 2S+1 = 1 *
  Initial guess found 162 solutions with 2S+1 = 3  
  Initial guess found 78 solutions with 2S+1 = 5  
  Initial guess found 15 solutions with 2S+1 = 7  
  Initial guess found 1 solutions with 2S+1 = 9  
  Adding guess 0 (multiplicity = 1.000000)
  Adding guess 1 (multiplicity = 1.000000)
  Adding guess 2 (multiplicity = 1.000000)
  Adding guess 3 (multiplicity = 1.000000)
  Adding guess 4 (multiplicity = 1.000000)
  Adding guess 5 (multiplicity = 1.000000)

  ==> Diagonalizing Hamiltonian <==

  -----------------------------------------------------
    Iter.      Avg. Energy       Delta_E     Res. Norm
  -----------------------------------------------------
      1      -82.633372629695  -8.263e+01  +3.069e-02
      2      -82.633753293701  -3.807e-04  +1.942e-03
      3      -82.633755373448  -2.080e-06  +4.426e-04
      4      -82.633755502487  -1.290e-07  +1.010e-04
      5      -82.633755509624  -7.137e-09  +2.969e-05
      6      -82.633755510495  -8.707e-10  +1.585e-05
      7      -82.633755511061  -5.661e-10  +6.563e-06
      8      -82.633755511126  -6.487e-11  +2.290e-06
      9      -82.633755511135  -9.791e-12  +1.453e-06
     10      -82.633755511140  -4.491e-12  +5.565e-07
     11      -82.633755511140  -3.979e-13  +2.066e-07
  -----------------------------------------------------
  The Davidson-Liu algorithm converged in 12 iterations.
  Davidson-Liu procedure took  0.053737 s
  Total time spent diagonalizing H:   0.054918 s

    PQ-space CI Energy Root   0        = -75.383717530874 Eh =   0.0000 eV
    PQ-space CI Energy + EPT2 Root   0 = -75.433623094732 Eh =   0.0000 eV
    PQ-space CI Energy Root   1        = -75.285980215933 Eh =   2.6596 eV
    PQ-space CI Energy + EPT2 Root   1 = -75.335885779791 Eh =   2.6596 eV
    PQ-space CI Energy Root   2        = -75.250361574167 Eh =   3.6288 eV
    PQ-space CI Energy + EPT2 Root   2 = -75.300267138025 Eh =   3.6288 eV

  ***** Calculation Converged *****

  ==> ACI Natural Orbitals <==

        1B1u    1.986881      1Ag     1.986137      1B3u    1.173249  
        1B2u    1.173249      1B3g    0.820602      1B2g    0.820602  
        2Ag     0.016153      2B1u    0.009459      2B2u    0.003574  
        2B3u    0.003574      2B3g    0.002574      2B2g    0.002574  
        3Ag     0.001371      5B1u    0.000000      4B1u    0.000000  
        3B1u    0.000000      5Ag     0.000000      4Ag     0.000000  

  ==> Excited state solver summary <==

  Iterations required:                         3
  Dimension of optimized determinant space:    377

  * Selected-CI Energy Root   0        = -75.383717530874 Eh =   0.0000 eV
  * Selected-CI Energy Root   0 + EPT2 = -75.433623094732 Eh =   0.0000 eV
  * Selected-CI Energy Root   1        = -75.285980215933 Eh =   2.6596 eV
  * Selected-CI Energy Root   1 + EPT2 = -75.335885779791 Eh =   2.6596 eV
  * Selected-CI Energy Root   2        = -75.250361574167 Eh =   3.6288 eV
  * Selected-CI Energy Root   2 + EPT2 = -75.300267138025 Eh =   3.6288 eV

  ==> Wavefunction Information <==

  Most important contributions to root   0:
    0   0.517924 0.268245355          11 |200000000200002020>
    1  -0.382486 0.146295418           9 |200000020200000020>
    2  -0.382486 0.146295418          10 |200002000200002000>
    3   0.318756 0.101605491           2 |200002020200000000>
    4   0.306562 0.093980277           8 |20000-0+020000+0-0>
    5   0.306562 0.093980277           7 |20000+0-020000-0+0>
    6   0.169396 0.028694954           4 |20000-0+020000-0+0>
    7   0.169396 0.028694954           3 |20000+0-020000+0-0>
    8  -0.137166 0.018814561           6 |20000-0-020000+0+0>
    9  -0.137166 0.018814561           5 |20000+0+020000-0-0>

  Spin state for root 0: S^2 = 0.000000, S = 0.000, singlet

  Most important contributions to root   1:
    0   0.462099 0.213535910           8 |20000-0+020000+0-0>
    1   0.462099 0.213535910           7 |20000+0-020000-0+0>
    2  -0.418341 0.175009010          11 |200000000200002020>
    3  -0.288232 0.083077605           6 |20000-0-020000+0+0>
    4  -0.288232 0.083077605           5 |20000+0+020000-0-0>
    5  -0.199797 0.039918801           2 |200002020200000000>
    6   0.192294 0.036977065          10 |200002000200002000>
    7   0.192294 0.036977065           9 |200000020200000020>
    8   0.173868 0.030229942           4 |20000-0+020000-0+0>
    9   0.173868 0.030229942           3 |20000+0-020000+0-0>

  Spin state for root 1: S^2 = 0.000000, S = 0.000, singlet

  Most important contributions to root   2:
    0  -0.386011 0.149004790           0 |200000020200002000>
    1  -0.386011 0.149004790           1 |200002000200000020>
    2   0.357912 0.128100932          10 |200002000200002000>
    3   0.357912 0.128100932           9 |200000020200000020>
    4   0.315263 0.099390522           3 |20000+0-020000+0-0>
    5   0.315263 0.099390522           4 |20000-0+020000-0+0>
    6   0.281137 0.079037799          11 |200000000200002020>
    7   0.244109 0.059589182           6 |20000-0-020000+0+0>
    8   0.244109 0.059589182           5 |20000+0+020000-0-0>
    9   0.109626 0.012017814           2 |200002020200000000>

  Spin state for root 2: S^2 = 0.000000, S = 0.000, singlet

  Saving information for root: 0

  ==> Energy Summary <==

    Multi.  Irrep.  No.               Energy
    -----------------------------------------
       1      Ag     0       -75.383717530874
       1      Ag     1       -75.285980215933
       1      Ag     2       -75.250361574167
    -----------------------------------------

  Time to prepare integrals: 0.17186403274536133 seconds
  Time to run job          : 0.48584508895874023 seconds
  Total                    : 0.48584508895874023 seconds    ACI energy........................................................PASSED
    ACI+PT2 energy....................................................PASSED

    Psi4 stopped on: Thursday, 13 February 2020 04:04PM
    Psi4 wall time for execution: 0:00:01.66

*** Psi4 exiting successfully. Buy a developer a beer!
