
    -----------------------------------------------------------------------
          Psi4: An Open-Source Ab Initio Electronic Structure Package
                               Psi4 1.2a1.dev704 

                         Git: Rev {master} a7fc050 


    R. M. Parrish, L. A. Burns, D. G. A. Smith, A. C. Simmonett,
    A. E. DePrince III, E. G. Hohenstein, U. Bozkaya, A. Yu. Sokolov,
    R. Di Remigio, R. M. Richard, J. F. Gonthier, A. M. James,
    H. R. McAlexander, A. Kumar, M. Saitow, X. Wang, B. P. Pritchard,
    P. Verma, H. F. Schaefer III, K. Patkowski, R. A. King, E. F. Valeev,
    F. A. Evangelista, J. M. Turney, T. D. Crawford, and C. D. Sherrill,
    J. Chem. Theory Comput. 13(7) pp 3185--3197 (2017).
    (doi: 10.1021/acs.jctc.7b00174)

    -----------------------------------------------------------------------


    Psi4 started on: Monday, 04 December 2017 02:44PM

    Process ID:  37795
    PSIDATADIR: /Users/york/src/psi4new/psi4/share/psi4
    Memory:     500.0 MiB
    Threads:    1
    
  ==> Input File <==

--------------------------------------------------------------------------
#! Generated using commit GITCOMMIT
#! Perform a computation of HF without storing DISKDF

import forte

refmcscf     = -99.939316381644 #cc-pvdz
refdsrgpt2    = -100.100881710221159
refdsrgpt2_jk_rd = -100.10235967134

memory 500 mb

molecule HF{
  0 1
  F
  H  1 R
  R = 1.50
}

set globals{
   basis                   cc-pvdz
   df_basis_mp2            cc-pvdz-ri
   df_basis_scf            cc-pvdz-jkfit
   reference               twocon
   scf_type                DF
   d_convergence           12
   e_convergence           15
}

set mcscf{
   docc                   [2,0,1,1]
   socc                   [2,0,0,0]
   maxiter                 1000
   level_shift             2.0
}

set forte {
   frozen_docc            [1,0,0,0]
   restricted_docc        [1,0,1,1]
   active                 [2,0,0,0]
   root_sym                0
   nroot                   1
   dsrg_s                  1.0
   int_type                df
   job_type                three-dsrg-mrpt2
   cas_type                FCI
}

Escf, wfn = energy('mcscf', return_wfn=True)
energy('forte', ref_wfn=wfn)

compare_values(refmcscf,Escf,10,"MCSCF energy")
compare_values(refdsrgpt2_jk_rd,get_variable("CURRENT ENERGY"),10,"DF-DSRG-MRPT2 energy")
--------------------------------------------------------------------------

  Memory set to 476.837 MiB by Python driver.
   => Loading Basis Set <=

    Name: CC-PVDZ
    Role: ORBITAL
    Keyword: BASIS
    atoms 1 entry F          line   228 file /Users/york/src/psi4new/psi4/share/psi4/basis/cc-pvdz.gbs 
    atoms 2 entry H          line    22 file /Users/york/src/psi4new/psi4/share/psi4/basis/cc-pvdz.gbs 


*** tstart() called on yorks-mac.wireless.emory.edu
*** at Mon Dec  4 14:44:06 2017


         ------------------------------------------
           MCSCF: a self-consistent field program
            written by Francesco A. Evangelista
         ------------------------------------------

  MOs per irrep:                                      A1  A2  B1  B2 Total
  ----------------------------------------------------------------------------
  Total                                               10    1    4    4    19
  Doubly Occupied                                      2    0    1    1     4
  Active/Singly Occupied                               2    0    0    0     2
  ----------------------------------------------------------------------------

  Running an SCF calculation
  TWOCON MOs = [2 (A1),3 (A1)]

  Generated 190 pairs
  Distributed as [76 A1][26 A2][44 B1][44 B2]
  batch   0 pq = [       0,      76] index = [               0,            2926]

  Allocated the PK matrix (2926 elements) 
  Allocated the  K matrix (2926 elements) 
  Reading the two-electron integrals to form PK and K ... 
  batch   0 ... done.


  =========================================================================================
         Cycle          Energy               D(Energy)            D(Density)            DIIS
  ===========================================================================================
  Setting level shift to 2.000 S
  @SCF    0      -93.745779875389     -93.745779875389       0.147704440309
    ci      = [ 0.00000000, 0.00000000]
    ci_grad = [ 0.00000000, 0.00000000]
  Setting level shift to 2.000 S
  @SCF    1      -98.407782353312      -4.662002477922       0.112176394879
    ci      = [ 0.00000000, 0.00000000]
    ci_grad = [ 0.00000000, 0.00000000]
  Setting level shift to 2.000 S
  @SCF    2      -99.045950761065      -0.638168407753       0.012062093505
    ci      = [ 0.00000000, 0.00000000]
    ci_grad = [ 0.00000000, 0.00000000]
  Setting level shift to 2.000 S
  @SCF    3      -99.190856096022      -0.144905334957       0.006982186304
    ci      = [ 0.00000000, 0.00000000]
    ci_grad = [ 0.00000000, 0.00000000]
  Setting level shift to 2.000 S
  @SCF    4      -99.311765380425      -0.120909284404       0.003873591296
    ci      = [ 0.00000000, 0.00000000]
    ci_grad = [ 0.00000000, 0.00000000]
  Setting level shift to 2.000 S
  @SCF    5      -99.308291611212       0.003473769213       0.003339676118
    ci      = [ 0.00000000, 0.00000000]
    ci_grad = [ 0.00000000, 0.00000000]
  Setting level shift to 2.000 S
  @SCF    6      -99.350335008314      -0.042043397102       0.002567518207
    ci      = [ 0.00000000, 0.00000000]
    ci_grad = [ 0.00000000, 0.00000000]
  Setting level shift to 2.000 S/E
  @SCF    7      -99.331068888924       0.019266119390       0.002394972992
    ci      = [ 0.00000000, 0.00000000]
    ci_grad = [ 0.00000000, 0.00000000]
  Setting level shift to 2.000 S/E
  @SCF    8      -99.347485500542      -0.016416611618       0.001068005394
    ci      = [ 0.00000000, 0.00000000]
    ci_grad = [ 0.00000000, 0.00000000]
  Setting level shift to 2.000 S/E
  @SCF    9      -99.347734749230      -0.000249248688       0.000035713055
    ci      = [ 0.00000000, 0.00000000]
    ci_grad = [ 0.00000000, 0.00000000]
  Setting level shift to 2.000 S/E
  @SCF   10      -99.347678217796       0.000056531434       0.000006556322
    ci      = [ 0.00000000, 0.00000000]
    ci_grad = [ 0.00000000, 0.00000000]
  Setting level shift to 2.000 S/E
  @SCF   11      -99.347685078069      -0.000006860273       0.000001943966
    ci      = [-0.98717288, 0.15965494]
    ci_grad = [ 0.00000000, 0.00000000]
  Setting level shift to 2.000 S/E
  @SCF   12      -99.347677521694       0.000007556375       0.000001656043
    ci      = [-0.98717320, 0.15965296]
    ci_grad = [-0.00000713, 0.00000322]
  Setting level shift to 2.000 S/E
  @SCF   13      -99.347667993945       0.000009527749       0.000000292686
    ci      = [-0.98717313, 0.15965342]
    ci_grad = [-0.00000948, 0.00000105]
  Setting level shift to 2.000 S/E
  @SCF   14      -99.347681304297      -0.000013310352       0.000000496247
    ci      = [-0.98717313, 0.15965342]
    ci_grad = [ 0.00001329,-0.00000120]
  Setting level shift to 2.000 S/E
  @SCF   15      -99.347684897894      -0.000003593597       0.000000407232
    ci      = [-0.98717325, 0.15965269]
    ci_grad = [ 0.00000367, 0.00000017]
  Setting level shift to 2.000 S/E
  @SCF   16      -99.347674638387       0.000010259507       0.000000525894
    ci      = [-0.98717325, 0.15965269]
    ci_grad = [-0.00001026, 0.00000080]
  Setting level shift to 2.000 S/E
  @SCF   17      -99.347691665367      -0.000017026980       0.000001810944
    ci      = [-0.98717325, 0.15965269]
    ci_grad = [ 0.00001605,-0.00000740]
  Setting level shift to 2.000 S/E
  @SCF   18      -99.347693570013      -0.000001904645       0.000001051176
    ci      = [-0.98717288, 0.15965498]
    ci_grad = [ 0.00000150,-0.00000263]
  Setting level shift to 2.000 S/E
  @SCF   19      -99.858732346003      -0.511038775990       0.030751760240
    ci      = [-0.98717288, 0.15965498]
    ci_grad = [ 0.50750908,-0.06076922]
  Setting level shift to 2.000 S/E
  @SCF   20      -99.890299284733      -0.031566938730       0.008960660647
    ci      = [-0.98717288, 0.15965498]
    ci_grad = [ 0.03620715, 0.03303270]
  Setting level shift to 2.000 S/E
  @SCF   21      -99.899086627547      -0.008787342814       0.004542321383
    ci      = [-0.98717288, 0.15965498]
    ci_grad = [ 0.01087955, 0.01329293]
  Setting level shift to 2.000 S/E
  @SCF   22      -99.903117134796      -0.004030507249       0.002483242289
    ci      = [-0.98717288, 0.15965498]
    ci_grad = [ 0.00450178, 0.00264506]
  Setting level shift to 2.000 S/E
  @SCF   23      -99.908511089383      -0.005393954587       0.004037182567
    ci      = [-0.98717288, 0.15965498]
    ci_grad = [ 0.00222989,-0.01835614]
  Setting level shift to 2.000 S/E
  @SCF   24      -99.914108555926      -0.005597466543       0.004741695015
    ci      = [-0.98717288, 0.15965498]
    ci_grad = [-0.00182681,-0.03840465]
  Setting level shift to 2.000 S/E
  @SCF   25      -99.916509453217      -0.002400897290       0.002209893675
    ci      = [-0.98717288, 0.15965498]
    ci_grad = [-0.00663785,-0.04472627]
  Setting level shift to 2.000 S/E
  @SCF   26      -99.922892948098      -0.006383494881       0.006732270661
    ci      = [-0.98717288, 0.15965498]
    ci_grad = [-0.00767201,-0.06361670]
  Setting level shift to 2.000 S/E
  @SCF   27      -99.924999014992      -0.002106066894       0.002526829556
    ci      = [-0.98717288, 0.15965498]
    ci_grad = [-0.01355563,-0.06837955]
  Setting level shift to 2.000 S/E
  @SCF   28      -99.928237003097      -0.003237988105       0.005483210749
    ci      = [-0.98717288, 0.15965498]
    ci_grad = [-0.01491851,-0.07626570]
  Setting level shift to 2.000 S/E
  @SCF   29      -99.929846565088      -0.001609561991       0.003321644209
    ci      = [-0.98717288, 0.15965498]
    ci_grad = [-0.01790069,-0.08001681]
  Setting level shift to 2.000 S/E
  @SCF   30      -99.932122881819      -0.002276316732       0.003304456341
    ci      = [-0.98717288, 0.15965498]
    ci_grad = [-0.01937312,-0.08586576]
  Setting level shift to 2.000 S/E
  @SCF   31      -99.932416670157      -0.000293788338       0.001459267872
    ci      = [-0.98717288, 0.15965498]
    ci_grad = [-0.02162098,-0.08637239]
  Setting level shift to 2.000 S/E
  @SCF   32      -99.934205577043      -0.001788906886       0.003106631661
    ci      = [-0.98717288, 0.15965498]
    ci_grad = [-0.02186793,-0.09090161]
  Setting level shift to 2.000 S/E
  @SCF   33      -99.934716276331      -0.000510699288       0.001497143515
    ci      = [-0.98717288, 0.15965498]
    ci_grad = [-0.02367116,-0.09202592]
  Setting level shift to 2.000 S/E
  @SCF   34      -99.935065177612      -0.000348901281       0.000763399115
    ci      = [-0.98717288, 0.15965498]
    ci_grad = [-0.02422705,-0.09289349]
  Setting level shift to 2.000 S/E
  @SCF   35      -99.935110218685      -0.000045041073       0.000602240789
    ci      = [-0.98717288, 0.15965498]
    ci_grad = [-0.02457460,-0.09297686]
  Setting level shift to 2.000 S/E
  @SCF   36      -99.935211483928      -0.000101265243       0.000299095693
    ci      = [-0.98717288, 0.15965498]
    ci_grad = [-0.02463615,-0.09323088]
  Setting level shift to 2.000 S/E
  @SCF   37      -99.935264597840      -0.000053113912       0.000107728892
    ci      = [-0.98717288, 0.15965498]
    ci_grad = [-0.02475424,-0.09337974]
  Setting level shift to 2.000 S/E
  @SCF   38      -99.935351682939      -0.000087085099       0.000290443420
    ci      = [-0.98717288, 0.15965498]
    ci_grad = [-0.02482753,-0.09361476]
  Setting level shift to 2.000 S/E
  @SCF   39      -99.935468718572      -0.000117035633       0.000309414361
    ci      = [-0.98717288, 0.15965498]
    ci_grad = [-0.02495082,-0.09394291]
  Setting level shift to 2.000 S/E
  @SCF   40      -99.935562811131      -0.000094092559       0.000266729146
    ci      = [-0.98717288, 0.15965498]
    ci_grad = [-0.02509965,-0.09420723]
  Setting level shift to 2.000 S/E
  @SCF   41      -99.935642924068      -0.000080112937       0.000278488039
    ci      = [-0.98717288, 0.15965498]
    ci_grad = [-0.02522009,-0.09442527]
  Setting level shift to 2.000 S/E
  @SCF   42      -99.935675375747      -0.000032451678       0.000144063431
    ci      = [-0.98717288, 0.15965498]
    ci_grad = [-0.02531062,-0.09450969]
  Setting level shift to 2.000 S/E
  @SCF   43      -99.935676728445      -0.000001352698       0.000127286440
    ci      = [-0.96587655, 0.25900288]
    ci_grad = [-0.02534023,-0.09450427]
  Setting level shift to 2.000 S/E
  @SCF   44      -99.935700726882      -0.000023998437       0.000248967954
    ci      = [-0.96587655, 0.25900288]
    ci_grad = [-0.00000707,-0.00011896]
  Setting level shift to 2.000 S/E
  @SCF   45      -99.935682667034       0.000018059848       0.000056744667
    ci      = [-0.96587655, 0.25900288]
    ci_grad = [-0.00002177,-0.00001146]
  Setting level shift to 2.000 S/E
  @SCF   46      -99.935673310472       0.000009356562       0.000065192821
    ci      = [-0.96588999, 0.25895275]
    ci_grad = [ 0.00000392, 0.00005077]
  Setting level shift to 2.000 S/E
  @SCF   47      -99.935785813136      -0.000112502664       0.000371932318
    ci      = [-0.96588999, 0.25895275]
    ci_grad = [-0.00005364,-0.00063296]
  Setting level shift to 2.000 S/E
  @SCF   48      -99.935786525369      -0.000000712233       0.000044849281
    ci      = [-0.96572119, 0.25958156]
    ci_grad = [-0.00016198,-0.00060535]
  Setting level shift to 2.000 S/E
  @SCF   49      -99.935772117385       0.000014407984       0.000054590466
    ci      = [-0.96572119, 0.25958156]
    ci_grad = [ 0.00000780, 0.00008453]
  Setting level shift to 2.000 S/E
  @SCF   50      -99.935777502787      -0.000005385402       0.000019843369
    ci      = [-0.96573476, 0.25953105]
    ci_grad = [ 0.00001827, 0.00004722]
  Setting level shift to 2.000 S/E
  @SCF   51      -99.937160625387      -0.001383122600       0.003208709491
    ci      = [-0.96573476, 0.25953105]
    ci_grad = [-0.00152743,-0.01055037]
  Setting level shift to 2.000 S/E
  @SCF   52      -99.937342144501      -0.000181519114       0.001312691354
    ci      = [-0.96573476, 0.25953105]
    ci_grad = [-0.00264840,-0.01010266]
  Setting level shift to 2.000 S/E
  @SCF   53      -99.937404621419      -0.000062476918       0.000101803670
    ci      = [-0.96573476, 0.25953105]
    ci_grad = [-0.00289728,-0.01052723]
  Setting level shift to 2.000 S/E
  @SCF   54      -99.937990191486      -0.000585570067       0.001397948177
    ci      = [-0.96573476, 0.25953105]
    ci_grad = [-0.00382996,-0.01543945]
  Setting level shift to 2.000 S/E
  @SCF   55      -99.938579858487      -0.000589667001       0.001459168089
    ci      = [-0.96573476, 0.25953105]
    ci_grad = [-0.00533099,-0.02021880]
  Setting level shift to 2.000 S/E
  @SCF   56      -99.938820863311      -0.000241004824       0.001005284275
    ci      = [-0.96573476, 0.25953105]
    ci_grad = [-0.00629594,-0.02205158]
  Setting level shift to 2.000 S/E
  @SCF   57      -99.938919195323      -0.000098332012       0.000377942409
    ci      = [-0.96573476, 0.25953105]
    ci_grad = [-0.00679020,-0.02309267]
  Setting level shift to 2.000 S/E
  @SCF   58      -99.939015835929      -0.000096640606       0.000757258274
    ci      = [-0.96573476, 0.25953105]
    ci_grad = [-0.00710715,-0.02402779]
  Setting level shift to 2.000 S/E
  @SCF   59      -99.939044202346      -0.000028366417       0.000290981339
    ci      = [-0.96573476, 0.25953105]
    ci_grad = [-0.00728541,-0.02433974]
  Setting level shift to 2.000 S/E
  @SCF   60      -99.939067328921      -0.000023126575       0.000121127494
    ci      = [-0.96573476, 0.25953105]
    ci_grad = [-0.00739026,-0.02463456]
  Setting level shift to 2.000 S/E
  @SCF   61      -99.939073833917      -0.000006504996       0.000138445794
    ci      = [-0.95754535, 0.28828268]
    ci_grad = [-0.00742406,-0.02468194]
  Setting level shift to 2.000 S/E
  @SCF   62      -99.939093307660      -0.000019473743       0.000273277247
    ci      = [-0.95754535, 0.28828268]
    ci_grad = [-0.00006533,-0.00028421]
  Setting level shift to 2.000 S/E
  @SCF   63      -99.939089245916       0.000004061744       0.000071772098
    ci      = [-0.95747000, 0.28853284]
    ci_grad = [-0.00006881,-0.00021427]
  Setting level shift to 2.000 S/E
  @SCF   64      -99.939098426073      -0.000009180158       0.000068593088
    ci      = [-0.95741736, 0.28870748]
    ci_grad = [-0.00003653,-0.00015293]
  Setting level shift to 2.000 S/E
  @SCF   65      -99.939102040593      -0.000003614519       0.000023602987
    ci      = [-0.95739555, 0.28877977]
    ci_grad = [-0.00001530,-0.00006324]
  Setting level shift to 2.000 S/E
  @SCF   66      -99.939091952161       0.000010088432       0.000045143264
    ci      = [-0.95739555, 0.28877977]
    ci_grad = [ 0.00004306, 0.00017782]
  Setting level shift to 2.000 S/E
  @SCF   67      -99.939055049455       0.000036902705       0.000158277451
    ci      = [-0.95739555, 0.28877977]
    ci_grad = [ 0.00019771, 0.00078590]
  Setting level shift to 2.000 S/E
  @SCF   68      -99.939072821762      -0.000017772306       0.000082463801
    ci      = [-0.95739555, 0.28877977]
    ci_grad = [ 0.00016571, 0.00048890]
  Setting level shift to 2.000 S/E
  @SCF   69      -99.939303862727      -0.000231040965       0.001747713863
    ci      = [-0.95739555, 0.28877977]
    ci_grad = [-0.00164394,-0.00608638]
  Setting level shift to 2.000 S/E
  @SCF   70      -99.939297808644       0.000006054083       0.000260008780
    ci      = [-0.95558847, 0.29470440]
    ci_grad = [-0.00154449,-0.00498752]
  Setting level shift to 2.000 S/E
  @SCF   71      -99.939303925516      -0.000006116873       0.000133202027
    ci      = [-0.95547391, 0.29507559]
    ci_grad = [-0.00009067,-0.00031432]
  Setting level shift to 2.000 S/E
  @SCF   72      -99.939312307842      -0.000008382326       0.000198404838
    ci      = [-0.95519762, 0.29596877]
    ci_grad = [-0.00022428,-0.00075217]
  Setting level shift to 2.000 S/E
  @SCF   73      -99.939315128113      -0.000002820271       0.000116505157
    ci      = [-0.95504824, 0.29645045]
    ci_grad = [-0.00012261,-0.00040452]
  Setting level shift to 2.000 S/E
  @SCF   74      -99.939316002722      -0.000000874609       0.000178862034
    ci      = [-0.95482973, 0.29715348]
    ci_grad = [-0.00018208,-0.00058803]
  Setting level shift to 2.000 S/E
  @SCF   75      -99.939316189518      -0.000000186796       0.000073736014
    ci      = [-0.95494328, 0.29678838]
    ci_grad = [ 0.00009517, 0.00030558]
  Setting level shift to 2.000 S/E
  @SCF   76      -99.939316146943       0.000000042575       0.000079467906
    ci      = [-0.95484272, 0.29711172]
    ci_grad = [-0.00008417,-0.00027035]
  Setting level shift to 2.000 S/E
  @SCF   77      -99.939316280343      -0.000000133400       0.000058127189
    ci      = [-0.95493909, 0.29680186]
    ci_grad = [ 0.00008074, 0.00025931]
  Setting level shift to 2.000 S/E
  @SCF   78      -99.939316351908      -0.000000071565       0.000047864839
    ci      = [-0.95488952, 0.29696128]
    ci_grad = [-0.00004140,-0.00013336]
  Setting level shift to 2.000 S/E
  @SCF   79      -99.939316365059      -0.000000013152       0.000009672330
    ci      = [-0.95490369, 0.29691573]
    ci_grad = [ 0.00001186, 0.00003810]
  Setting level shift to 2.000 S/E
  @SCF   80      -99.939316370585      -0.000000005526       0.000016361634
    ci      = [-0.95488853, 0.29696447]
    ci_grad = [-0.00001267,-0.00004077]
  Setting level shift to 2.000 S/E
  @SCF   81      -99.939316379522      -0.000000008937       0.000010054603
    ci      = [-0.95489702, 0.29693718]
    ci_grad = [ 0.00000711, 0.00002283]
  Setting level shift to 2.000 S/E
  @SCF   82      -99.939316380443      -0.000000000921       0.000003286654
    ci      = [-0.95489739, 0.29693598]
    ci_grad = [ 0.00000031, 0.00000100]
  Setting level shift to 2.000 S/E
  @SCF   83      -99.939316381342      -0.000000000899       0.000004449465
    ci      = [-0.95490296, 0.29691805]
    ci_grad = [ 0.00000466, 0.00001500]
  Setting level shift to 2.000 S/E
  @SCF   84      -99.939316381441      -0.000000000099       0.000000806628
    ci      = [-0.95490296, 0.29691805]
    ci_grad = [ 0.00000000, 0.00000000]
  Setting level shift to 2.000 S/E
  @SCF   85      -99.939316381490      -0.000000000049       0.000000533646
    ci      = [-0.95490307, 0.29691773]
    ci_grad = [ 0.00000009, 0.00000027]
  Setting level shift to 2.000 S/E
  @SCF   86      -99.939316381525      -0.000000000035       0.000000729377
    ci      = [-0.95490330, 0.29691697]
    ci_grad = [ 0.00000020, 0.00000063]
  Setting level shift to 2.000 S/E
  @SCF   87      -99.939316381616      -0.000000000090       0.000001271656
    ci      = [-0.95490201, 0.29692112]
    ci_grad = [-0.00000108,-0.00000347]
  Setting level shift to 2.000 S/E
  @SCF   88      -99.939316381612       0.000000000004       0.000000413682
    ci      = [-0.95490246, 0.29691967]
    ci_grad = [ 0.00000038, 0.00000121]
  Setting level shift to 2.000 S/E
  @SCF   89      -99.939316381632      -0.000000000020       0.000000454210
    ci      = [-0.95490186, 0.29692160]
    ci_grad = [-0.00000050,-0.00000161]
  Setting level shift to 2.000 S/E
  @SCF   90      -99.939316381639      -0.000000000007       0.000000189895
    ci      = [-0.95490180, 0.29692179]
    ci_grad = [-0.00000005,-0.00000016]
  Setting level shift to 2.000 S/E
  @SCF   91      -99.939316381640      -0.000000000002       0.000000118422
    ci      = [-0.95490184, 0.29692167]
    ci_grad = [ 0.00000003, 0.00000010]
  Setting level shift to 2.000 S/E
  @SCF   92      -99.939316381642      -0.000000000001       0.000000083952
    ci      = [-0.95490185, 0.29692162]
    ci_grad = [ 0.00000001, 0.00000004]
  Setting level shift to 2.000 S/E
  @SCF   93      -99.939316381643      -0.000000000001       0.000000106302
    ci      = [-0.95490179, 0.29692182]
    ci_grad = [-0.00000005,-0.00000017]
  Setting level shift to 2.000 S/E
  @SCF   94      -99.939316381643      -0.000000000000       0.000000060996
    ci      = [-0.95490178, 0.29692187]
    ci_grad = [-0.00000001,-0.00000004]
  Setting level shift to 2.000 S/E
  @SCF   95      -99.939316381643      -0.000000000000       0.000000066497
    ci      = [-0.95490173, 0.29692203]
    ci_grad = [-0.00000004,-0.00000013]
  Setting level shift to 2.000 S/E
  @SCF   96      -99.939316381643       0.000000000000       0.000000012245
    ci      = [-0.95490172, 0.29692205]
    ci_grad = [-0.00000000,-0.00000002]
  Setting level shift to 2.000 S/E
  @SCF   97      -99.939316381643      -0.000000000000       0.000000020976
    ci      = [-0.95490171, 0.29692209]
    ci_grad = [-0.00000001,-0.00000004]
  Setting level shift to 2.000 S/E
  @SCF   98      -99.939316381644      -0.000000000000       0.000000009248
    ci      = [-0.95490172, 0.29692206]
    ci_grad = [ 0.00000001, 0.00000002]
  Setting level shift to 2.000 S/E
  @SCF   99      -99.939316381644      -0.000000000000       0.000000010046
    ci      = [-0.95490171, 0.29692208]
    ci_grad = [-0.00000000,-0.00000001]
  Setting level shift to 2.000 S/E
  @SCF  100      -99.939316381644       0.000000000000       0.000000005413
    ci      = [-0.95490172, 0.29692207]
    ci_grad = [ 0.00000000, 0.00000001]
  Setting level shift to 2.000 S/E
  @SCF  101      -99.939316381643       0.000000000000       0.000000005087
    ci      = [-0.95490171, 0.29692207]
    ci_grad = [-0.00000000,-0.00000001]
  Setting level shift to 2.000 S/E
  @SCF  102      -99.939316381643       0.000000000000       0.000000004562
    ci      = [-0.95490171, 0.29692208]
    ci_grad = [-0.00000000,-0.00000001]
  Setting level shift to 2.000 S/E
  @SCF  103      -99.939316381643      -0.000000000000       0.000000001959
    ci      = [-0.95490171, 0.29692208]
    ci_grad = [-0.00000000,-0.00000000]
  Setting level shift to 2.000 S/E
  @SCF  104      -99.939316381643       0.000000000000       0.000000001519
    ci      = [-0.95490171, 0.29692208]
    ci_grad = [ 0.00000000, 0.00000000]
  Setting level shift to 2.000 S/E
  @SCF  105      -99.939316381644      -0.000000000000       0.000000001134
    ci      = [-0.95490171, 0.29692208]
    ci_grad = [ 0.00000000, 0.00000000]
  Setting level shift to 2.000 S/E
  @SCF  106      -99.939316381644       0.000000000000       0.000000001572
    ci      = [-0.95490171, 0.29692208]
    ci_grad = [ 0.00000000, 0.00000000]
  Setting level shift to 2.000 S/E
  @SCF  107      -99.939316381644      -0.000000000000       0.000000000102
    ci      = [-0.95490171, 0.29692208]
    ci_grad = [-0.00000000,-0.00000000]
  Setting level shift to 2.000 S/E
  @SCF  108      -99.939316381644       0.000000000000       0.000000000296
    ci      = [-0.95490171, 0.29692208]
    ci_grad = [ 0.00000000, 0.00000000]
  Setting level shift to 2.000 S/E
  @SCF  109      -99.939316381644       0.000000000000       0.000000000161
    ci      = [-0.95490171, 0.29692208]
    ci_grad = [-0.00000000,-0.00000000]
  Setting level shift to 2.000 S/E
  @SCF  110      -99.939316381644      -0.000000000000       0.000000000162
    ci      = [-0.95490171, 0.29692208]
    ci_grad = [ 0.00000000, 0.00000000]
  Setting level shift to 2.000 S/E
  @SCF  111      -99.939316381643       0.000000000000       0.000000000150
    ci      = [-0.95490171, 0.29692208]
    ci_grad = [ 0.00000000, 0.00000000]
  Setting level shift to 2.000 S/E
  @SCF  112      -99.939316381644      -0.000000000000       0.000000000095
    ci      = [-0.95490171, 0.29692208]
    ci_grad = [ 0.00000000, 0.00000000]
  Setting level shift to 2.000 S/E
  @SCF  113      -99.939316381644       0.000000000000       0.000000000047
    ci      = [-0.95490171, 0.29692208]
    ci_grad = [-0.00000000,-0.00000000]
  Setting level shift to 2.000 S/E
  @SCF  114      -99.939316381644       0.000000000000       0.000000000021
    ci      = [-0.95490171, 0.29692208]
    ci_grad = [-0.00000000,-0.00000000]
  Setting level shift to 2.000 S/E
  @SCF  115      -99.939316381644       0.000000000000       0.000000000031
    ci      = [-0.95490171, 0.29692208]
    ci_grad = [-0.00000000,-0.00000000]
  Setting level shift to 2.000 S/E
  @SCF  116      -99.939316381644      -0.000000000000       0.000000000012
    ci      = [-0.95490171, 0.29692208]
    ci_grad = [-0.00000000,-0.00000000]
  Setting level shift to 2.000 S/E
  @SCF  117      -99.939316381644      -0.000000000000       0.000000000008
    ci      = [-0.95490171, 0.29692208]
    ci_grad = [-0.00000000,-0.00000000]
  Setting level shift to 2.000 S/E
  @SCF  118      -99.939316381644       0.000000000000       0.000000000012
    ci      = [-0.95490171, 0.29692208]
    ci_grad = [-0.00000000,-0.00000000]
  Setting level shift to 2.000 S/E
  @SCF  119      -99.939316381644       0.000000000000       0.000000000005
    ci      = [-0.95490171, 0.29692208]
    ci_grad = [ 0.00000000, 0.00000000]
  Setting level shift to 2.000 S/E
  @SCF  120      -99.939316381644      -0.000000000000       0.000000000004
    ci      = [-0.95490171, 0.29692208]
    ci_grad = [-0.00000000,-0.00000000]
  Setting level shift to 2.000 S/E
  @SCF  121      -99.939316381644       0.000000000000       0.000000000005
    ci      = [-0.95490171, 0.29692208]
    ci_grad = [ 0.00000000, 0.00000000]
  Setting level shift to 2.000 S/E
  @SCF  122      -99.939316381644       0.000000000000       0.000000000001
    ci      = [-0.95490171, 0.29692208]
    ci_grad = [-0.00000000,-0.00000000]
  Setting level shift to 2.000 S/E
  @SCF  123      -99.939316381643       0.000000000000       0.000000000001
    ci      = [-0.95490171, 0.29692208]
    ci_grad = [-0.00000000,-0.00000000]
  Setting level shift to 2.000 S/E
  @SCF  124      -99.939316381643       0.000000000000       0.000000000000
    ci      = [-0.95490171, 0.29692208]
    ci_grad = [-0.00000000,-0.00000000]
  Setting level shift to 2.000 S/E
  @SCF  125      -99.939316381644      -0.000000000000       0.000000000001
    ci      = [-0.95490171, 0.29692208]
    ci_grad = [ 0.00000000,-0.00000000]
  Setting level shift to 2.000 S/E
  @SCF  126      -99.939316381644      -0.000000000000       0.000000000000
    ci      = [-0.95490171, 0.29692208]
    ci_grad = [ 0.00000000, 0.00000000]
  Setting level shift to 2.000 S/E
  @SCF  127      -99.939316381643       0.000000000000       0.000000000000
    ci      = [-0.95490171, 0.29692208]
    ci_grad = [-0.00000000,-0.00000000]
  Setting level shift to 2.000 S/E
  @SCF  128      -99.939316381643      -0.000000000000       0.000000000000
    ci      = [-0.95490171, 0.29692208]
    ci_grad = [ 0.00000000, 0.00000000]
  Setting level shift to 2.000 S/E
  @SCF  129      -99.939316381643       0.000000000000       0.000000000000
    ci      = [-0.95490171, 0.29692208]
    ci_grad = [-0.00000000, 0.00000000]
  Setting level shift to 2.000 S/E
  @SCF  130      -99.939316381643      -0.000000000000       0.000000000000
    ci      = [-0.95490171, 0.29692208]
    ci_grad = [ 0.00000000, 0.00000000]
  Setting level shift to 2.000 S/E
  @SCF  131      -99.939316381643       0.000000000000       0.000000000000
    ci      = [-0.95490171, 0.29692208]
    ci_grad = [-0.00000000, 0.00000000]
  Setting level shift to 2.000 S/E
  @SCF  132      -99.939316381643       0.000000000000       0.000000000000
    ci      = [-0.95490171, 0.29692208]
    ci_grad = [ 0.00000000,-0.00000000]
  =========================================================================================

      * SCF total energy   =     -99.939316381643


      CI coefficients  = [-0.954901712, 0.296922078]

  End of SCF
  MOs orthonormality check passed.

  Orbitals are canonicalized as:
  inactive (docc + uocc) : Fock(core)
  active   (actv)        : Fock(core)

  =========================================================================
  Eigenvalues (Eh)
  -------------------------------------------------------------------------
  Doubly occupied orbitals
      1    -26.322903  A1      2     -1.519005  A1      3     -0.638631  B1
      4     -0.638631  B2
  Active orbitals
      5     -0.537968  A1      6      0.087068  A1
  Unoccupied orbitals
      7      2.558369  A1      8      3.324242  B2      9      3.324242  B1
     10      3.444927  A1     11      3.586079  A1     12      3.602014  B2
     13      3.602014  B1     14      4.287527  A1     15      5.991409  B1
     16      5.991409  B2     17      5.995163  A1     18      5.995163  A2
     19      6.177516  A1
  =========================================================================


  MCSCF Execution Completed.


*** tstop() called on yorks-mac.wireless.emory.edu at Mon Dec  4 14:44:06 2017
Module time:
	user time   =       0.12 seconds =       0.00 minutes
	system time =       0.04 seconds =       0.00 minutes
	total time  =          0 seconds =       0.00 minutes
Total time:
	user time   =       0.12 seconds =       0.00 minutes
	system time =       0.04 seconds =       0.00 minutes
	total time  =          0 seconds =       0.00 minutes
   => Loading Basis Set <=

    Name: CC-PVDZ-RI
    Role: RIFIT
    Keyword: DF_BASIS_MP2
    atoms 1 entry F          line   273 file /Users/york/src/psi4new/psi4/share/psi4/basis/cc-pvdz-ri.gbs 
    atoms 2 entry H          line    19 file /Users/york/src/psi4new/psi4/share/psi4/basis/cc-pvdz-ri.gbs 

   => Loading Basis Set <=

    Name: STO-3G
    Role: ORBITAL
    Keyword: MINAO_BASIS
    atoms 1 entry F          line    91 file /Users/york/src/psi4new/psi4/share/psi4/basis/sto-3g.gbs 
    atoms 2 entry H          line    19 file /Users/york/src/psi4new/psi4/share/psi4/basis/sto-3g.gbs 


Reading options from the FORTE block
Calling plugin forte.so.



  Forte
  ----------------------------------------------------------------------------
  A suite of quantum chemistry methods for strongly correlated electrons

    git branch: master - git commit: 1c92254a

  Developed by:
    Francesco A. Evangelista, Chenyang Li, Kevin P. Hannon,
    Jeffrey B. Schriber, Tianyuan Zhang, Chenxi Cai
  ----------------------------------------------------------------------------

  Size of Determinant class: 32

  ==> MO Space Information <==

  Read options for space FROZEN_DOCC
  Read options for space RESTRICTED_DOCC
  Read options for space ACTIVE
 Removing orbital 0
  -------------------------------------------------
                       A1    A2    B1    B2   Sum
  -------------------------------------------------
    FROZEN_DOCC         1     0     0     0     1
    RESTRICTED_DOCC     1     0     1     1     3
    ACTIVE              2     0     0     0     2
    RESTRICTED_UOCC     6     1     3     3    13
    FROZEN_UOCC         0     0     0     0     0
    Total              10     1     4     4    19
  -------------------------------------------------

  ==> Integral Transformation <==

  Number of molecular orbitals:               19
  Number of correlated molecular orbitals:    18
  Number of frozen occupied orbitals:          1
  Number of frozen unoccupied orbitals:        0

    Molecular point group: c2v
    Full point group: C_inf_v

    Geometry (in Angstrom), charge = 0, multiplicity = 1:

       Center              X                  Y                   Z               Mass       
    ------------   -----------------  -----------------  -----------------  -----------------
           F          0.000000000000     0.000000000000    -0.075563346012    18.998403224000
           H          0.000000000000     0.000000000000     1.424436653988     1.007825032070

  -AO BASIS SET INFORMATION:
    Name                   = CC-PVDZ
    Blend                  = CC-PVDZ
    Total number of shells = 9
    Number of primitives   = 27
    Number of AO           = 20
    Number of SO           = 19
    Maximum AM             = 2
    Spherical Harmonics    = TRUE

  -Contraction Scheme:
    Atom   Type   All Primitives // Shells:
   ------ ------ --------------------------
       1     F     17s 4p 1d // 3s 2p 1d 
       2     H     4s 1p // 2s 1p 

  ==> AO Basis Functions <==

    [ CC-PVDZ ]
    spherical
    ****
    F   1
    S   8 1.00
                     14710.00000000           0.00072100
                      2207.00000000           0.00555300
                       502.80000000           0.02826700
                       142.60000000           0.10644400
                        46.47000000           0.28681400
                        16.70000000           0.44864100
                         6.35600000           0.26476100
                         1.31600000           0.01533300
    S   8 1.00
                     14710.00000000          -0.00016500
                      2207.00000000          -0.00130800
                       502.80000000          -0.00649500
                       142.60000000          -0.02669100
                        46.47000000          -0.07369000
                        16.70000000          -0.17077600
                         6.35600000          -0.11232700
                         1.31600000           0.56281400
    S   1 1.00
                         0.38970000           1.00000000
    P   3 1.00
                        22.67000000           0.04487800
                         4.97700000           0.23571800
                         1.34700000           0.50852100
    P   1 1.00
                         0.34710000           1.00000000
    D   1 1.00
                         1.64000000           1.00000000
    ****
    H   2
    S   3 1.00
                        13.01000000           0.01968500
                         1.96200000           0.13797700
                         0.44460000           0.47814800
    S   1 1.00
                         0.12200000           1.00000000
    P   1 1.00
                         0.72700000           1.00000000
    ****


  DFIntegrals overall time
 Computing Density fitted integrals 

 Number of auxiliary basis functions:  70
 Need 0.000188 GB to store DF integrals

  Computing DF Integrals               ......Done. Timing        0.021847 s
  Frozen-core energy            -76.184657170046 a.u.

  FrozenOneBody Operator takes  0.07618800 s
  Resorting integrals after freezing core.
 Done with resorting
 Resorting integrals takes   0.00053000s
  DFIntegrals take      0.17643200 s

                -----------------------------------------------
                  String-based Full Configuration Interaction
                          by Francesco A. Evangelista
                -----------------------------------------------

  Number of electrons: 10
  Charge: 0
  Multiplicity: 1
  Davidson subspace max dim: 8
  Davidson subspace min dim: 2
  M_s: 0

  ==> String Lists <==

  Number of alpha electrons     = 1
  Number of beta electrons      = 1
  Number of alpha strings       = 2
  Number of beta strings        = 2
  Timing for strings        =      0.000 s
  Timing for NN strings     =      0.000 s
  Timing for VO strings     =      0.000 s
  Timing for OO strings     =      0.000 s
  Timing for VVOO strings   =      0.000 s
  Timing for VOVO strings   =      0.000 s
  Timing for 1-hole strings =      0.000 s
  Timing for 2-hole strings =      0.000 s
  Timing for 3-hole strings =      0.000 s
  Total timing              =      0.000 s

  ==> FCI Solver <==

    Number of determinants                           4
    Symmetry                                         0
    Multiplicity                                     1
    Number of roots                                  1
    Target root                                      0
    Trial vectors per root                          10

  Allocating memory for the Hamiltonian algorithm. Size: 2 x 2 x 2.   Memory: 0.000000 GB

  ==> FCI Initial Guess <==

  ---------------------------------------------
    Root            Energy     <S^2>   Spin
  ---------------------------------------------
      0      -99.940819361640  0.000  singlet
      1      -99.782527754579  2.000  triplet
      2      -99.381210130909  0.000  singlet
      3      -99.031426093926  0.000  singlet
  ---------------------------------------------
  Timing for initial guess  =      0.001 s

  Projecting out root 1
  ==> Diagonalizing Hamiltonian <==

  ----------------------------------------
    Iter.      Avg. Energy       Delta_E
  ----------------------------------------
      1      -99.940819361640  -9.994e+01
      2      -99.940819361640  +0.000e+00
  ----------------------------------------
  The Davidson-Liu algorithm converged in 3 iterations.

  ==> Root No. 0 <==

    20     -0.95491428
    02      0.29688164

    Total Energy:       -99.940819361639541

  ==> Computing RDMs for Root No. 0 <==

    Timing for 1-RDM: 0.000 s
    Timing for 2-RDM: 0.000 s
    Timing for 3-RDM: 0.000 s

  ==> NATURAL ORBITALS <==

        1A1     1.823723      2A1     0.176277  


       -----------------------------------------------------------------
                            Semi-Canonical Orbitals
         Chenyang Li, Jeffrey B. Schriber and Francesco A. Evangelista
       -----------------------------------------------------------------

  Took 0.007861 s to build Fock matrix

  ==> Checking Fock Matrix Diagonal Blocks <==

    Off-Diag. Elements       Max           2-Norm
    ------------------------------------------------
    Fa actv              0.0356440033   0.0504082328
    Fb actv              0.0356440033   0.0504082328
    ------------------------------------------------
    Fa core              0.0000000000   0.0000000000
    Fb core              0.0000000000   0.0000000000
    ------------------------------------------------
    Fa virt              0.0003912870   0.0008459534
    Fb virt              0.0003912870   0.0008459534
    ------------------------------------------------

  ==> Integral Transformation to Semicanonical Basis <==
    Molecular point group: c2v
    Full point group: C_inf_v

    Geometry (in Angstrom), charge = 0, multiplicity = 1:

       Center              X                  Y                   Z               Mass       
    ------------   -----------------  -----------------  -----------------  -----------------
           F          0.000000000000     0.000000000000    -0.075563346012    18.998403224000
           H          0.000000000000     0.000000000000     1.424436653988     1.007825032070

  -AO BASIS SET INFORMATION:
    Name                   = CC-PVDZ
    Blend                  = CC-PVDZ
    Total number of shells = 9
    Number of primitives   = 27
    Number of AO           = 20
    Number of SO           = 19
    Maximum AM             = 2
    Spherical Harmonics    = TRUE

  -Contraction Scheme:
    Atom   Type   All Primitives // Shells:
   ------ ------ --------------------------
       1     F     17s 4p 1d // 3s 2p 1d 
       2     H     4s 1p // 2s 1p 

  ==> AO Basis Functions <==

    [ CC-PVDZ ]
    spherical
    ****
    F   1
    S   8 1.00
                     14710.00000000           0.00072100
                      2207.00000000           0.00555300
                       502.80000000           0.02826700
                       142.60000000           0.10644400
                        46.47000000           0.28681400
                        16.70000000           0.44864100
                         6.35600000           0.26476100
                         1.31600000           0.01533300
    S   8 1.00
                     14710.00000000          -0.00016500
                      2207.00000000          -0.00130800
                       502.80000000          -0.00649500
                       142.60000000          -0.02669100
                        46.47000000          -0.07369000
                        16.70000000          -0.17077600
                         6.35600000          -0.11232700
                         1.31600000           0.56281400
    S   1 1.00
                         0.38970000           1.00000000
    P   3 1.00
                        22.67000000           0.04487800
                         4.97700000           0.23571800
                         1.34700000           0.50852100
    P   1 1.00
                         0.34710000           1.00000000
    D   1 1.00
                         1.64000000           1.00000000
    ****
    H   2
    S   3 1.00
                        13.01000000           0.01968500
                         1.96200000           0.13797700
                         0.44460000           0.47814800
    S   1 1.00
                         0.12200000           1.00000000
    P   1 1.00
                         0.72700000           1.00000000
    ****


 Integrals are about to be computed.
 Computing Density fitted integrals 

 Number of auxiliary basis functions:  70
 Need 0.000188 GB to store DF integrals

  Computing DF Integrals               ......Done. Timing        0.020651 s
 Integrals are about to be updated.
  Frozen-core energy            -76.184657170046 a.u.

  FrozenOneBody Operator takes  0.07552700 s
  Resorting integrals after freezing core.
 Done with resorting
 Resorting integrals takes   0.00118500s
  Frozen Orbitals takes     0.077 s.

  ==> Reference Transformation to Semicanonical Basis <==

    Transformed 1 cumulants.
    Transformed 2 cumulants and RDMs.
    Transformed 3 cumulants.
  SemiCanonicalize takes 2.061809 s.

  ==> Multireference Driven Similarity Renormalization Group <==

    Reading DSRG options ............................ Done
    Setting ambit MO space .......................... Done
    Preparing tensors for density cumulants ......... Done
    Building Fock matrix ............................ Done

                  --------------------------------------------
                      Density Fitted / Cholesky Decomposed
                    MR-DSRG Second-Order Perturbation Theory
                      Kevin Hannon and Chenyang (York) Li
                                    1 thread
                  --------------------------------------------

    References:
      u-DSRG-MRPT2:      J. Chem. Theory Comput. 2015, 11, 2097.
      DF/CD-DSRG-MRPT2:  J. Chem. Phys. 2016, 144, 204111.
      (pr-)DSRG-MRPT2:   J. Chem. Phys. 2017, 146, 124132.


  ==> Calculation Information <==

    Flow parameter                                 1.000e+00
    Taylor expansion threshold                     1.000e-03
    Cholesky tolerance                             1.000e-06
    Psi4 ref_type                                     TWOCON
    Integral type                                         DF
    Source operator                                 STANDARD
    CCVV algorithm                                 FLY_AMBIT
    CCVV source                                       NORMAL
    Reference relaxation                                NONE
    State type                                STATE-SPECIFIC

  ==> Checking Semicanonical Orbitals <==

    Abs. max of Fock core, active, virtual blocks (Fij, i != j)
                  core          active         virtual
    --------------------------------------------------
    Fα    0.0000000000    0.0000000000    0.0000000000
    Fβ    0.0000000000    0.0000000000    0.0000000000
    --------------------------------------------------

    1-Norm of Fock core, active, virtual blocks (Fij, i != j)
                  core          active         virtual
    --------------------------------------------------
    Fα    0.0000000000    0.0000000000    0.0000000000
    Fβ    0.0000000000    0.0000000000    0.0000000000
    --------------------------------------------------

    Orbitals are semi-canonicalized.

  ==> Computing DSRG-MRPT2 Energy <==

  Reference Energy = -99.940819361639541
    Computing T2                             ...... Done. Timing        0.004323 s
    Renormalizing V                          ...... Done. Timing        0.002754 s
    Computing T1                             ...... Done. Timing        0.004722 s
    Renormalizing F                          ...... Done. Timing        0.006120 s
    Computing <[F, T1]>                      ...... Done. Timing        0.001941 s
    Computing <[F, T2]>                      ...... Done. Timing        0.003760 s
    Computing <[V, T1]>                      ...... Done. Timing        0.003606 s
    Computing <[V, T2]> 4HH                  ...... Done. Timing        0.005278 s
    Computing <V, T2]> 4PP                   ...... Done. Timing        0.005467 s
    Computing [V, T2] 4PH                    ...... Done. Timing        0.023013 s
    Computing [V, T2] λ3                     ...... Done. Timing        0.013717 s
    Computing <[V, T2]> (C_2)^4 (no ccvv)    ...... Done. Timing        0.022689 s
    Computing <[V, T2]> (C_2)^4 ccvv         ...... Done. Timing        0.004826 s
  Eccvv: -0.0922275151

  ==> DSRG-MRPT2 (DF/CD) Energy Summary <==

    E0 (reference)                 =    -99.940819361639541
    <[F, T1]>                      =     -0.013708905968610
    <[F, T2]>                      =      0.012627442721758
    <[V, T1]>                      =      0.012634814098897
    <[V, T2]> C_4 (C_2)^2 HH       =      0.002958840486222
    <[V, T2]> C_4 (C_2)^2 PP       =      0.013761617302544
    <[V, T2]> C_4 (C_2)^2 PH       =      0.027751978751348
    <[V, T2]> C_6 C_2              =     -0.003203363652412
    <[V, T2]> (C_2)^4              =     -0.214362733439215
    <[V, T2]>                      =     -0.173093660551513
    DSRG-MRPT2 correlation energy  =     -0.161540309699467
    DSRG-MRPT2 total energy        =   -100.102359671339002
    max(T1)                        =      0.136580732315109
    ||T1||                         =      0.244681445899975

  ==> Total Timings (s) for Computing Commutators <==

             [H1, T1]    [H1, T2]    [H2, T1]    [H2, T2]
    -----------------------------------------------------
    -> C0       0.002       0.004       0.004       0.061
    -> C1       0.000       0.000       0.000       0.000
    -> C2                   0.000       0.000       0.000
    -----------------------------------------------------

 CD/DF DSRG-MRPT2 took  2.20771 s.	MCSCF energy......................................................PASSED
	DF-DSRG-MRPT2 energy..............................................PASSED

*** Psi4 exiting successfully. Buy a developer a beer!
