    -----------------------------------------------------------------------
          Psi4: An Open-Source Ab Initio Electronic Structure Package
                              Psi4 0.1.233 Driver

                          Git: Rev {detached?} ced593a dirty

    J. M. Turney, A. C. Simmonett, R. M. Parrish, E. G. Hohenstein,
    F. A. Evangelista, J. T. Fermann, B. J. Mintz, L. A. Burns, J. J. Wilke,
    M. L. Abrams, N. J. Russ, M. L. Leininger, C. L. Janssen, E. T. Seidl,
    W. D. Allen, H. F. Schaefer, R. A. King, E. F. Valeev, C. D. Sherrill,
    and T. D. Crawford, WIREs Comput. Mol. Sci. 2, 556-565 (2012)
    (doi: 10.1002/wcms.93)

                         Additional Contributions by
    A. E. DePrince, M. Saitow, U. Bozkaya, A. Yu. Sokolov
    -----------------------------------------------------------------------


    Psi4 started on: 12-05-2015  03:16:56 PM EST

    Process ID:  98888
    PSI4DATADIR: /Users/kevinhannon/Programs/psi4cmake/psi4/lib
    Memory level set to 256.000 MB

  ==> Input File <==

--------------------------------------------------------------------------
#! Generated using commit GITCOMMIT
#! Perform a computation of HF without storing DISKDF

import forte

refmcscf     = -99.939316381644 #cc-pvdz
refdsrgpt2    = -100.100881710221159
refdsrgpt2_jk_rd = -100.10068472277

memory 500 mb

molecule HF{
  0 1
  F
  H  1 R
  R = 1.50
}

set globals{
   basis                   cc-pvdz
   df_basis_mp2            cc-pvdz-ri
   df_basis_scf            cc-pvdz-jkfit
   reference               twocon
   scf_type                DF
   d_convergence           12
   e_convergence           15
}

set mcscf{
   docc                   [2,0,1,1]
   socc                   [2,0,0,0]
   maxiter                 1000
   level_shift             2.0
}

set forte {
   frozen_docc            [1,0,0,0]
   restricted_docc        [1,0,1,1]
   active                 [2,0,0,0]
   root_sym                0
   nroot                   1
   dsrg_s                  1.0
   int_type                df
   job_type                three-dsrg-mrpt2
   cas_type                FCI
}

ref = energy('mcscf')
energy('forte')

compare_values(refmcscf, ref,10,"SCF energy")
compare_values(refdsrgpt2_jk_rd, get_variable("CURRENT ENERGY"),10,"DF-DSRG-MRPT2 energy")
--------------------------------------------------------------------------
/Users/kevinhannon/Programs/forte/forte.so loaded.

  Memory set to 500.000 MiB by Python script.

         ------------------------------------------
           MCSCF: a self-consistent field program
            written by Francesco A. Evangelista
         ------------------------------------------ MINTS: Wrapper to libmints.
   by Justin Turney

   Calculation information:
      Number of atoms:                   2
      Number of AO shells:               9
      Number of SO shells:               9
      Number of primitives:             27
      Number of atomic orbitals:        20
      Number of basis functions:        19

      Number of irreps:                  4
      Integral cutoff                 1.00e-12
      Number of functions per irrep: [  10    1    4    4 ]

 OEINTS: Overlap, kinetic, potential, dipole, and quadrupole integrals
         stored in file 35.

      Computing two-electron integrals...done
      Computed 4125 non-zero two-electron integrals.
        Stored in file 33.



  MOs per irrep:                                      A1  A2  B1  B2 Total
  ----------------------------------------------------------------------------
  Total                                               10    1    4    4    19
  Doubly Occupied                                      2    0    1    1     4
  Active/Singly Occupied                               2    0    0    0     2
  ----------------------------------------------------------------------------

  Running an SCF calculation
  TWOCON MOs = [2 (A1),3 (A1)]

  Generated 190 pairs
  Distributed as [76 A1][26 A2][44 B1][44 B2]
  batch   0 pq = [       0,      76] index = [               0,            2926]

  Allocated the PK matrix (2926 elements) 
  Allocated the  K matrix (2926 elements) 
  Reading the two-electron integrals to form PK and K ... 
  batch   0 ... done.


  =========================================================================================
         Cycle          Energy               D(Energy)            D(Density)            DIIS
  ===========================================================================================
  Setting level shift to 2.000 S
  @SCF    0      -93.745779875389     -93.745779875389       0.147704440309
    ci      = [ 0.00000000, 0.00000000]
    ci_grad = [ 0.00000000, 0.00000000]
  Setting level shift to 2.000 S
  @SCF    1      -98.407782353312      -4.662002477922       0.112176394879
    ci      = [ 0.00000000, 0.00000000]
    ci_grad = [ 0.00000000, 0.00000000]
  Setting level shift to 2.000 S
  @SCF    2      -99.045950761065      -0.638168407753       0.012062093505
    ci      = [ 0.00000000, 0.00000000]
    ci_grad = [ 0.00000000, 0.00000000]
  Setting level shift to 2.000 S
  @SCF    3      -99.190856096022      -0.144905334957       0.006982186304
    ci      = [ 0.00000000, 0.00000000]
    ci_grad = [ 0.00000000, 0.00000000]
  Setting level shift to 2.000 S
  @SCF    4      -99.311765380425      -0.120909284404       0.003873591296
    ci      = [ 0.00000000, 0.00000000]
    ci_grad = [ 0.00000000, 0.00000000]
  Setting level shift to 2.000 S
  @SCF    5      -99.308291611212       0.003473769214       0.003339676118
    ci      = [ 0.00000000, 0.00000000]
    ci_grad = [ 0.00000000, 0.00000000]
  Setting level shift to 2.000 S
  @SCF    6      -99.350335008314      -0.042043397102       0.002567518207
    ci      = [ 0.00000000, 0.00000000]
    ci_grad = [ 0.00000000, 0.00000000]
  Setting level shift to 2.000 S/E
  @SCF    7      -99.331068888924       0.019266119390       0.002394972992
    ci      = [ 0.00000000, 0.00000000]
    ci_grad = [ 0.00000000, 0.00000000]
  Setting level shift to 2.000 S/E
  @SCF    8      -99.347485500542      -0.016416611618       0.001068005394
    ci      = [ 0.00000000, 0.00000000]
    ci_grad = [ 0.00000000, 0.00000000]
  Setting level shift to 2.000 S/E
  @SCF    9      -99.347734749230      -0.000249248688       0.000035713055
    ci      = [ 0.00000000, 0.00000000]
    ci_grad = [ 0.00000000, 0.00000000]
  Setting level shift to 2.000 S/E
  @SCF   10      -99.347678217796       0.000056531434       0.000006556322
    ci      = [ 0.00000000, 0.00000000]
    ci_grad = [ 0.00000000, 0.00000000]
  Setting level shift to 2.000 S/E
  @SCF   11      -99.347685078069      -0.000006860273       0.000001943966
    ci      = [-0.98717288, 0.15965494]
    ci_grad = [ 0.00000000, 0.00000000]
  Setting level shift to 2.000 S/E
  @SCF   12      -99.347677521694       0.000007556375       0.000001656043
    ci      = [-0.98717320, 0.15965296]
    ci_grad = [-0.00000713, 0.00000322]
  Setting level shift to 2.000 S/E
  @SCF   13      -99.347667993945       0.000009527750       0.000000292686
    ci      = [-0.98717313, 0.15965342]
    ci_grad = [-0.00000948, 0.00000105]
  Setting level shift to 2.000 S/E
  @SCF   14      -99.347681304957      -0.000013311012       0.000000496273
    ci      = [-0.98717313, 0.15965342]
    ci_grad = [ 0.00001329,-0.00000120]
  Setting level shift to 2.000 S/E
  @SCF   15      -99.347684899252      -0.000003594296       0.000000407235
    ci      = [-0.98717325, 0.15965269]
    ci_grad = [ 0.00000367, 0.00000017]
  Setting level shift to 2.000 S/E
  @SCF   16      -99.347674639656       0.000010259596       0.000000525882
    ci      = [-0.98717325, 0.15965269]
    ci_grad = [-0.00001026, 0.00000080]
  Setting level shift to 2.000 S/E
  @SCF   17      -99.347691665805      -0.000017026148       0.000001810945
    ci      = [-0.98717325, 0.15965269]
    ci_grad = [ 0.00001605,-0.00000740]
  Setting level shift to 2.000 S/E
  @SCF   18      -99.347693577021      -0.000001911216       0.000001051406
    ci      = [-0.98717288, 0.15965498]
    ci_grad = [ 0.00000151,-0.00000263]
  Setting level shift to 2.000 S/E
  @SCF   19      -99.858737166361      -0.511043589341       0.030751415538
    ci      = [-0.98717288, 0.15965498]
    ci_grad = [ 0.50751441,-0.06076553]
  Setting level shift to 2.000 S/E
  @SCF   20      -99.890299298075      -0.031562131713       0.008959585526
    ci      = [-0.98717288, 0.15965498]
    ci_grad = [ 0.03620256, 0.03303492]
  Setting level shift to 2.000 S/E
  @SCF   21      -99.899085968709      -0.008786670634       0.004542272193
    ci      = [-0.98717288, 0.15965498]
    ci_grad = [ 0.01087901, 0.01329393]
  Setting level shift to 2.000 S/E
  @SCF   22      -99.903116980416      -0.004031011707       0.002483413291
    ci      = [-0.98717288, 0.15965498]
    ci_grad = [ 0.00450234, 0.00264534]
  Setting level shift to 2.000 S/E
  @SCF   23      -99.908511280606      -0.005394300191       0.004037411896
    ci      = [-0.98717288, 0.15965498]
    ci_grad = [ 0.00223009,-0.01835694]
  Setting level shift to 2.000 S/E
  @SCF   24      -99.914108348143      -0.005597067537       0.004741377970
    ci      = [-0.98717288, 0.15965498]
    ci_grad = [-0.00182703,-0.03840385]
  Setting level shift to 2.000 S/E
  @SCF   25      -99.916509717262      -0.002401369118       0.002210276429
    ci      = [-0.98717288, 0.15965498]
    ci_grad = [-0.00663760,-0.04472717]
  Setting level shift to 2.000 S/E
  @SCF   26      -99.922893844912      -0.006384127650       0.006733156062
    ci      = [-0.98717288, 0.15965498]
    ci_grad = [-0.00767206,-0.06361907]
  Setting level shift to 2.000 S/E
  @SCF   27      -99.924998874051      -0.002105029139       0.002525521682
    ci      = [-0.98717288, 0.15965498]
    ci_grad = [-0.01355652,-0.06837894]
  Setting level shift to 2.000 S/E
  @SCF   28      -99.928237368365      -0.003238494314       0.005484656002
    ci      = [-0.98717288, 0.15965498]
    ci_grad = [-0.01491828,-0.07626665]
  Setting level shift to 2.000 S/E
  @SCF   29      -99.929846376938      -0.001609008572       0.003319662558
    ci      = [-0.98717288, 0.15965498]
    ci_grad = [-0.01790104,-0.08001611]
  Setting level shift to 2.000 S/E
  @SCF   30      -99.932120918299      -0.002274541361       0.003306537702
    ci      = [-0.98717288, 0.15965498]
    ci_grad = [-0.01937305,-0.08586117]
  Setting level shift to 2.000 S/E
  @SCF   31      -99.932422541781      -0.000301623482       0.001468579844
    ci      = [-0.98717288, 0.15965498]
    ci_grad = [-0.02161891,-0.08638854]
  Setting level shift to 2.000 S/E
  @SCF   32      -99.934206937199      -0.001784395417       0.003097861907
    ci      = [-0.98717288, 0.15965498]
    ci_grad = [-0.02187381,-0.09090451]
  Setting level shift to 2.000 S/E
  @SCF   33      -99.934717268963      -0.000510331764       0.001494842716
    ci      = [-0.98717288, 0.15965498]
    ci_grad = [-0.02367253,-0.09202822]
  Setting level shift to 2.000 S/E
  @SCF   34      -99.935065351755      -0.000348082793       0.000761948817
    ci      = [-0.98717288, 0.15965498]
    ci_grad = [-0.02422804,-0.09289380]
  Setting level shift to 2.000 S/E
  @SCF   35      -99.935110280800      -0.000044929044       0.000601843661
    ci      = [-0.98717288, 0.15965498]
    ci_grad = [-0.02457475,-0.09297694]
  Setting level shift to 2.000 S/E
  @SCF   36      -99.935211416247      -0.000101135448       0.000298784296
    ci      = [-0.98717288, 0.15965498]
    ci_grad = [-0.02463616,-0.09323063]
  Setting level shift to 2.000 S/E
  @SCF   37      -99.935264498733      -0.000053082485       0.000107400285
    ci      = [-0.98717288, 0.15965498]
    ci_grad = [-0.02475413,-0.09337943]
  Setting level shift to 2.000 S/E
  @SCF   38      -99.935351510269      -0.000087011537       0.000290047755
    ci      = [-0.98717288, 0.15965498]
    ci_grad = [-0.02482738,-0.09361425]
  Setting level shift to 2.000 S/E
  @SCF   39      -99.935468851043      -0.000117340774       0.000310323451
    ci      = [-0.98717288, 0.15965498]
    ci_grad = [-0.02495068,-0.09394326]
  Setting level shift to 2.000 S/E
  @SCF   40      -99.935563028765      -0.000094177721       0.000267102078
    ci      = [-0.98717288, 0.15965498]
    ci_grad = [-0.02509985,-0.09420785]
  Setting level shift to 2.000 S/E
  @SCF   41      -99.935643142435      -0.000080113671       0.000278640547
    ci      = [-0.98717288, 0.15965498]
    ci_grad = [-0.02522038,-0.09442589]
  Setting level shift to 2.000 S/E
  @SCF   42      -99.935675552605      -0.000032410170       0.000143947012
    ci      = [-0.98717288, 0.15965498]
    ci_grad = [-0.02531090,-0.09451020]
  Setting level shift to 2.000 S/E
  @SCF   43      -99.935676899718      -0.000001347112       0.000127499942
    ci      = [-0.96587632, 0.25900373]
    ci_grad = [-0.02534045,-0.09450476]
  Setting level shift to 2.000 S/E
  @SCF   44      -99.935700855023      -0.000023955305       0.000249242422
    ci      = [-0.96587632, 0.25900373]
    ci_grad = [-0.00000704,-0.00011869]
  Setting level shift to 2.000 S/E
  @SCF   45      -99.935683126823       0.000017728200       0.000055289636
    ci      = [-0.96587632, 0.25900373]
    ci_grad = [-0.00002186,-0.00001308]
  Setting level shift to 2.000 S/E
  @SCF   46      -99.935673517126       0.000009609697       0.000063439732
    ci      = [-0.96588962, 0.25895415]
    ci_grad = [ 0.00000354, 0.00005031]
  Setting level shift to 2.000 S/E
  @SCF   47      -99.935786433381      -0.000112916255       0.000370954480
    ci      = [-0.96588962, 0.25895415]
    ci_grad = [-0.00005386,-0.00063535]
  Setting level shift to 2.000 S/E
  @SCF   48      -99.935787294800      -0.000000861420       0.000044130650
    ci      = [-0.96571995, 0.25958616]
    ci_grad = [-0.00016267,-0.00060847]
  Setting level shift to 2.000 S/E
  @SCF   49      -99.935772642974       0.000014651826       0.000056027646
    ci      = [-0.96571995, 0.25958616]
    ci_grad = [ 0.00000797, 0.00008613]
  Setting level shift to 2.000 S/E
  @SCF   50      -99.935777237580      -0.000004594606       0.000021671148
    ci      = [-0.96573515, 0.25952963]
    ci_grad = [ 0.00001906, 0.00005323]
  Setting level shift to 2.000 S/E
  @SCF   51      -99.937158562966      -0.001381325386       0.003386226644
    ci      = [-0.96573515, 0.25952963]
    ci_grad = [-0.00164689,-0.01095055]
  Setting level shift to 2.000 S/E
  @SCF   52      -99.937341515295      -0.000182952329       0.001440873679
    ci      = [-0.96573515, 0.25952963]
    ci_grad = [-0.00265084,-0.01011619]
  Setting level shift to 2.000 S/E
  @SCF   53      -99.937454370449      -0.000112855154       0.000200778696
    ci      = [-0.96573515, 0.25952963]
    ci_grad = [-0.00296432,-0.01093253]
  Setting level shift to 2.000 S/E
  @SCF   54      -99.938102675518      -0.000648305069       0.001517484096
    ci      = [-0.96573515, 0.25952963]
    ci_grad = [-0.00407672,-0.01645037]
  Setting level shift to 2.000 S/E
  @SCF   55      -99.938608048026      -0.000505372508       0.001331926395
    ci      = [-0.96573515, 0.25952963]
    ci_grad = [-0.00549515,-0.02045260]
  Setting level shift to 2.000 S/E
  @SCF   56      -99.938814222844      -0.000206174818       0.000755490974
    ci      = [-0.96573515, 0.25952963]
    ci_grad = [-0.00637070,-0.02217008]
  Setting level shift to 2.000 S/E
  @SCF   57      -99.938972349797      -0.000158126953       0.000757312445
    ci      = [-0.96573515, 0.25952963]
    ci_grad = [-0.00692334,-0.02367926]
  Setting level shift to 2.000 S/E
  @SCF   58      -99.939032409236      -0.000060059439       0.000647471020
    ci      = [-0.96573515, 0.25952963]
    ci_grad = [-0.00721295,-0.02422676]
  Setting level shift to 2.000 S/E
  @SCF   59      -99.939045416421      -0.000013007185       0.000180642390
    ci      = [-0.96573515, 0.25952963]
    ci_grad = [-0.00731061,-0.02436682]
  Setting level shift to 2.000 S/E
  @SCF   60      -99.939060598976      -0.000015182555       0.000079645161
    ci      = [-0.96573515, 0.25952963]
    ci_grad = [-0.00737369,-0.02456127]
  Setting level shift to 2.000 S/E
  @SCF   61      -99.939067838327      -0.000007239351       0.000130332643
    ci      = [-0.95757318, 0.28819021]
    ci_grad = [-0.00740094,-0.02461631]
  Setting level shift to 2.000 S/E
  @SCF   62      -99.939092902865      -0.000025064539       0.000320183650
    ci      = [-0.95757318, 0.28819021]
    ci_grad = [-0.00008275,-0.00036138]
  Setting level shift to 2.000 S/E
  @SCF   63      -99.939087259340       0.000005643525       0.000066623737
    ci      = [-0.95748079, 0.28849703]
    ci_grad = [-0.00008503,-0.00026264]
  Setting level shift to 2.000 S/E
  @SCF   64      -99.939103266843      -0.000016007503       0.000097830904
    ci      = [-0.95748079, 0.28849703]
    ci_grad = [-0.00006549,-0.00027251]
  Setting level shift to 2.000 S/E
  @SCF   65      -99.939106615880      -0.000003349037       0.000018741456
    ci      = [-0.95736681, 0.28887506]
    ci_grad = [-0.00009489,-0.00032606]
  Setting level shift to 2.000 S/E
  @SCF   66      -99.939104437824       0.000002178056       0.000010020307
    ci      = [-0.95738006, 0.28883112]
    ci_grad = [ 0.00000932, 0.00003842]
  Setting level shift to 2.000 S/E
  @SCF   67      -99.939109195075      -0.000004757251       0.000088584180
    ci      = [-0.95734555, 0.28894549]
    ci_grad = [-0.00002512,-0.00009969]
  Setting level shift to 2.000 S/E
  @SCF   68      -99.939102762776       0.000006432299       0.000066723495
    ci      = [-0.95738755, 0.28880631]
    ci_grad = [ 0.00002997, 0.00012161]
  Setting level shift to 2.000 S/E
  @SCF   69      -99.939192728471      -0.000089965695       0.000458627278
    ci      = [-0.95738755, 0.28880631]
    ci_grad = [-0.00044367,-0.00176880]
  Setting level shift to 2.000 S/E
  @SCF   70      -99.939155074343       0.000037654127       0.000208617173
    ci      = [-0.95738755, 0.28880631]
    ci_grad = [-0.00032661,-0.00094827]
  Setting level shift to 2.000 S/E
  @SCF   71      -99.939192626860      -0.000037552516       0.000247799604
    ci      = [-0.95738755, 0.28880631]
    ci_grad = [-0.00049107,-0.00174462]
  Setting level shift to 2.000 S/E
  @SCF   72      -99.939248047002      -0.000055420142       0.000400982652
    ci      = [-0.95738755, 0.28880631]
    ci_grad = [-0.00089946,-0.00313035]
  Setting level shift to 2.000 S/E
  @SCF   73      -99.939307618397      -0.000059571395       0.000757727904
    ci      = [-0.95738755, 0.28880631]
    ci_grad = [-0.00165367,-0.00555001]
  Setting level shift to 2.000 S/E
  @SCF   74      -99.939306222251       0.000001396146       0.000050869969
    ci      = [-0.95542729, 0.29522651]
    ci_grad = [-0.00166867,-0.00539549]
  Setting level shift to 2.000 S/E
  @SCF   75      -99.939306445597      -0.000000223346       0.000023617871
    ci      = [-0.95542635, 0.29522954]
    ci_grad = [-0.00000058,-0.00000262]
  Setting level shift to 2.000 S/E
  @SCF   76      -99.939310190748      -0.000003745151       0.000085547414
    ci      = [-0.95531170, 0.29560032]
    ci_grad = [-0.00009282,-0.00031266]
  Setting level shift to 2.000 S/E
  @SCF   77      -99.939312774447      -0.000002583700       0.000075545463
    ci      = [-0.95521157, 0.29592374]
    ci_grad = [-0.00008164,-0.00027226]
  Setting level shift to 2.000 S/E
  @SCF   78      -99.939314203073      -0.000001428626       0.000046975492
    ci      = [-0.95514058, 0.29615278]
    ci_grad = [-0.00005821,-0.00019257]
  Setting level shift to 2.000 S/E
  @SCF   79      -99.939316164919      -0.000001961846       0.000147736958
    ci      = [-0.95493984, 0.29679944]
    ci_grad = [-0.00016636,-0.00054187]
  Setting level shift to 2.000 S/E
  @SCF   80      -99.939316197787      -0.000000032867       0.000009077370
    ci      = [-0.95494058, 0.29679704]
    ci_grad = [ 0.00000065, 0.00000200]
  Setting level shift to 2.000 S/E
  @SCF   81      -99.939316252198      -0.000000054411       0.000063055642
    ci      = [-0.95486635, 0.29703577]
    ci_grad = [-0.00006206,-0.00019967]
  Setting level shift to 2.000 S/E
  @SCF   82      -99.939316220862       0.000000031336       0.000041628373
    ci      = [-0.95484002, 0.29712040]
    ci_grad = [-0.00002204,-0.00007073]
  Setting level shift to 2.000 S/E
  @SCF   83      -99.939316348637      -0.000000127775       0.000026633526
    ci      = [-0.95487994, 0.29699209]
    ci_grad = [ 0.00003350, 0.00010727]
  Setting level shift to 2.000 S/E
  @SCF   84      -99.939316366300      -0.000000017663       0.000012854159
    ci      = [-0.95488269, 0.29698323]
    ci_grad = [ 0.00000232, 0.00000740]
  Setting level shift to 2.000 S/E
  @SCF   85      -99.939316380474      -0.000000014174       0.000012899320
    ci      = [-0.95490004, 0.29692744]
    ci_grad = [ 0.00001452, 0.00004666]
  Setting level shift to 2.000 S/E
  @SCF   86      -99.939316380501      -0.000000000027       0.000002142570
    ci      = [-0.95489788, 0.29693440]
    ci_grad = [-0.00000181,-0.00000582]
  Setting level shift to 2.000 S/E
  @SCF   87      -99.939316381174      -0.000000000673       0.000005453814
    ci      = [-0.95490454, 0.29691298]
    ci_grad = [ 0.00000557, 0.00001791]
  Setting level shift to 2.000 S/E
  @SCF   88      -99.939316381382      -0.000000000208       0.000000709645
    ci      = [-0.95490389, 0.29691508]
    ci_grad = [-0.00000055,-0.00000176]
  Setting level shift to 2.000 S/E
  @SCF   89      -99.939316381478      -0.000000000096       0.000000653750
    ci      = [-0.95490353, 0.29691624]
    ci_grad = [-0.00000030,-0.00000097]
  Setting level shift to 2.000 S/E
  @SCF   90      -99.939316381615      -0.000000000137       0.000001484515
    ci      = [-0.95490152, 0.29692271]
    ci_grad = [-0.00000168,-0.00000541]
  Setting level shift to 2.000 S/E
  @SCF   91      -99.939316381630      -0.000000000015       0.000000375993
    ci      = [-0.95490204, 0.29692101]
    ci_grad = [ 0.00000044, 0.00000142]
  Setting level shift to 2.000 S/E
  @SCF   92      -99.939316381637      -0.000000000007       0.000000513639
    ci      = [-0.95490151, 0.29692272]
    ci_grad = [-0.00000045,-0.00000143]
  Setting level shift to 2.000 S/E
  @SCF   93      -99.939316381641      -0.000000000004       0.000000120900
    ci      = [-0.95490173, 0.29692202]
    ci_grad = [ 0.00000018, 0.00000059]
  Setting level shift to 2.000 S/E
  @SCF   94      -99.939316381640       0.000000000001       0.000000145378
    ci      = [-0.95490195, 0.29692130]
    ci_grad = [ 0.00000019, 0.00000060]
  Setting level shift to 2.000 S/E
  @SCF   95      -99.939316381642      -0.000000000002       0.000000095316
    ci      = [-0.95490182, 0.29692173]
    ci_grad = [-0.00000011,-0.00000035]
  Setting level shift to 2.000 S/E
  @SCF   96      -99.939316381643      -0.000000000001       0.000000094918
    ci      = [-0.95490181, 0.29692178]
    ci_grad = [-0.00000001,-0.00000004]
  Setting level shift to 2.000 S/E
  @SCF   97      -99.939316381643      -0.000000000000       0.000000116284
    ci      = [-0.95490171, 0.29692210]
    ci_grad = [-0.00000008,-0.00000027]
  Setting level shift to 2.000 S/E
  @SCF   98      -99.939316381644      -0.000000000000       0.000000047115
    ci      = [-0.95490169, 0.29692215]
    ci_grad = [-0.00000001,-0.00000004]
  Setting level shift to 2.000 S/E
  @SCF   99      -99.939316381644      -0.000000000000       0.000000009493
    ci      = [-0.95490170, 0.29692211]
    ci_grad = [ 0.00000001, 0.00000003]
  Setting level shift to 2.000 S/E
  @SCF  100      -99.939316381643       0.000000000000       0.000000018679
    ci      = [-0.95490172, 0.29692205]
    ci_grad = [ 0.00000002, 0.00000005]
  Setting level shift to 2.000 S/E
  @SCF  101      -99.939316381644      -0.000000000000       0.000000009271
    ci      = [-0.95490172, 0.29692206]
    ci_grad = [-0.00000000,-0.00000000]
  Setting level shift to 2.000 S/E
  @SCF  102      -99.939316381644       0.000000000000       0.000000008459
    ci      = [-0.95490172, 0.29692204]
    ci_grad = [ 0.00000000, 0.00000001]
  Setting level shift to 2.000 S/E
  @SCF  103      -99.939316381644      -0.000000000000       0.000000007953
    ci      = [-0.95490172, 0.29692207]
    ci_grad = [-0.00000001,-0.00000002]
  Setting level shift to 2.000 S/E
  @SCF  104      -99.939316381644       0.000000000000       0.000000000850
    ci      = [-0.95490172, 0.29692207]
    ci_grad = [-0.00000000,-0.00000000]
  Setting level shift to 2.000 S/E
  @SCF  105      -99.939316381644      -0.000000000000       0.000000001205
    ci      = [-0.95490171, 0.29692207]
    ci_grad = [-0.00000000,-0.00000000]
  Setting level shift to 2.000 S/E
  @SCF  106      -99.939316381644       0.000000000000       0.000000000696
    ci      = [-0.95490171, 0.29692207]
    ci_grad = [-0.00000000,-0.00000000]
  Setting level shift to 2.000 S/E
  @SCF  107      -99.939316381644      -0.000000000000       0.000000001466
    ci      = [-0.95490171, 0.29692207]
    ci_grad = [-0.00000000,-0.00000000]
  Setting level shift to 2.000 S/E
  @SCF  108      -99.939316381644      -0.000000000000       0.000000001034
    ci      = [-0.95490171, 0.29692208]
    ci_grad = [-0.00000000,-0.00000000]
  Setting level shift to 2.000 S/E
  @SCF  109      -99.939316381644       0.000000000000       0.000000000355
    ci      = [-0.95490171, 0.29692208]
    ci_grad = [-0.00000000,-0.00000000]
  Setting level shift to 2.000 S/E
  @SCF  110      -99.939316381644      -0.000000000000       0.000000000170
    ci      = [-0.95490171, 0.29692208]
    ci_grad = [-0.00000000,-0.00000000]
  Setting level shift to 2.000 S/E
  @SCF  111      -99.939316381644      -0.000000000000       0.000000000277
    ci      = [-0.95490171, 0.29692208]
    ci_grad = [-0.00000000,-0.00000000]
  Setting level shift to 2.000 S/E
  @SCF  112      -99.939316381643       0.000000000000       0.000000000144
    ci      = [-0.95490171, 0.29692208]
    ci_grad = [-0.00000000,-0.00000000]
  Setting level shift to 2.000 S/E
  @SCF  113      -99.939316381643       0.000000000000       0.000000000328
    ci      = [-0.95490171, 0.29692208]
    ci_grad = [-0.00000000,-0.00000000]
  Setting level shift to 2.000 S/E
  @SCF  114      -99.939316381644      -0.000000000000       0.000000000178
    ci      = [-0.95490171, 0.29692208]
    ci_grad = [ 0.00000000, 0.00000000]
  Setting level shift to 2.000 S/E
  @SCF  115      -99.939316381643       0.000000000000       0.000000000151
    ci      = [-0.95490171, 0.29692208]
    ci_grad = [-0.00000000,-0.00000000]
  Setting level shift to 2.000 S/E
  @SCF  116      -99.939316381644      -0.000000000000       0.000000000048
    ci      = [-0.95490171, 0.29692208]
    ci_grad = [ 0.00000000, 0.00000000]
  Setting level shift to 2.000 S/E
  @SCF  117      -99.939316381644       0.000000000000       0.000000000016
    ci      = [-0.95490171, 0.29692208]
    ci_grad = [ 0.00000000, 0.00000000]
  Setting level shift to 2.000 S/E
  @SCF  118      -99.939316381644      -0.000000000000       0.000000000017
    ci      = [-0.95490171, 0.29692208]
    ci_grad = [ 0.00000000, 0.00000000]
  Setting level shift to 2.000 S/E
  @SCF  119      -99.939316381643       0.000000000000       0.000000000010
    ci      = [-0.95490171, 0.29692208]
    ci_grad = [ 0.00000000, 0.00000000]
  Setting level shift to 2.000 S/E
  @SCF  120      -99.939316381644      -0.000000000000       0.000000000004
    ci      = [-0.95490171, 0.29692208]
    ci_grad = [ 0.00000000, 0.00000000]
  Setting level shift to 2.000 S/E
  @SCF  121      -99.939316381643       0.000000000000       0.000000000002
    ci      = [-0.95490171, 0.29692208]
    ci_grad = [ 0.00000000, 0.00000000]
  Setting level shift to 2.000 S/E
  @SCF  122      -99.939316381643      -0.000000000000       0.000000000003
    ci      = [-0.95490171, 0.29692208]
    ci_grad = [ 0.00000000, 0.00000000]
  Setting level shift to 2.000 S/E
  @SCF  123      -99.939316381644      -0.000000000000       0.000000000003
    ci      = [-0.95490171, 0.29692208]
    ci_grad = [ 0.00000000, 0.00000000]
  Setting level shift to 2.000 S/E
  @SCF  124      -99.939316381644      -0.000000000000       0.000000000003
    ci      = [-0.95490171, 0.29692208]
    ci_grad = [ 0.00000000, 0.00000000]
  Setting level shift to 2.000 S/E
  @SCF  125      -99.939316381644       0.000000000000       0.000000000000
    ci      = [-0.95490171, 0.29692208]
    ci_grad = [-0.00000000,-0.00000000]
  Setting level shift to 2.000 S/E
  @SCF  126      -99.939316381643       0.000000000000       0.000000000000
    ci      = [-0.95490171, 0.29692208]
    ci_grad = [ 0.00000000, 0.00000000]
  Setting level shift to 2.000 S/E
  @SCF  127      -99.939316381643       0.000000000000       0.000000000000
    ci      = [-0.95490171, 0.29692208]
    ci_grad = [-0.00000000,-0.00000000]
  Setting level shift to 2.000 S/E
  @SCF  128      -99.939316381643      -0.000000000000       0.000000000000
    ci      = [-0.95490171, 0.29692208]
    ci_grad = [ 0.00000000, 0.00000000]
  Setting level shift to 2.000 S/E
  @SCF  129      -99.939316381644      -0.000000000000       0.000000000000
    ci      = [-0.95490171, 0.29692208]
    ci_grad = [-0.00000000,-0.00000000]
  Setting level shift to 2.000 S/E
  @SCF  130      -99.939316381644      -0.000000000000       0.000000000000
    ci      = [-0.95490171, 0.29692208]
    ci_grad = [ 0.00000000,-0.00000000]
  Setting level shift to 2.000 S/E
  @SCF  131      -99.939316381643       0.000000000000       0.000000000000
    ci      = [-0.95490171, 0.29692208]
    ci_grad = [-0.00000000, 0.00000000]
  Setting level shift to 2.000 S/E
  @SCF  132      -99.939316381644      -0.000000000000       0.000000000000
    ci      = [-0.95490171, 0.29692208]
    ci_grad = [ 0.00000000, 0.00000000]
  Setting level shift to 2.000 S/E
  @SCF  133      -99.939316381643       0.000000000000       0.000000000000
    ci      = [-0.95490171, 0.29692208]
    ci_grad = [-0.00000000, 0.00000000]
  Setting level shift to 2.000 S/E
  @SCF  134      -99.939316381644      -0.000000000000       0.000000000000
    ci      = [-0.95490171, 0.29692208]
    ci_grad = [ 0.00000000, 0.00000000]
  Setting level shift to 2.000 S/E
  @SCF  135      -99.939316381643       0.000000000000       0.000000000000
    ci      = [-0.95490171, 0.29692208]
    ci_grad = [-0.00000000, 0.00000000]
  Setting level shift to 2.000 S/E
  @SCF  136      -99.939316381643       0.000000000000       0.000000000000
    ci      = [-0.95490171, 0.29692208]
    ci_grad = [-0.00000000, 0.00000000]
  Setting level shift to 2.000 S/E
  @SCF  137      -99.939316381644      -0.000000000000       0.000000000000
    ci      = [-0.95490171, 0.29692208]
    ci_grad = [ 0.00000000,-0.00000000]
  Setting level shift to 2.000 S/E
  @SCF  138      -99.939316381643       0.000000000000       0.000000000000
    ci      = [-0.95490171, 0.29692208]
    ci_grad = [-0.00000000,-0.00000000]
  Setting level shift to 2.000 S/E
  @SCF  139      -99.939316381644      -0.000000000000       0.000000000000
    ci      = [-0.95490171, 0.29692208]
    ci_grad = [ 0.00000000, 0.00000000]
  Setting level shift to 2.000 S/E
  @SCF  140      -99.939316381643       0.000000000000       0.000000000000
    ci      = [-0.95490171, 0.29692208]
    ci_grad = [-0.00000000,-0.00000000]
  Setting level shift to 2.000 S/E
  @SCF  141      -99.939316381643       0.000000000000       0.000000000000
    ci      = [-0.95490171, 0.29692208]
    ci_grad = [-0.00000000, 0.00000000]
  Setting level shift to 2.000 S/E
  @SCF  142      -99.939316381643      -0.000000000000       0.000000000000
    ci      = [-0.95490171, 0.29692208]
    ci_grad = [ 0.00000000,-0.00000000]
  Setting level shift to 2.000 S/E
  @SCF  143      -99.939316381643       0.000000000000       0.000000000000
    ci      = [-0.95490171, 0.29692208]
    ci_grad = [ 0.00000000, 0.00000000]
  =========================================================================================

      * SCF total energy   =     -99.939316381643


      CI coefficients  = [-0.954901712, 0.296922078]

  End of SCF
  MOs orthonormality check passed.

  Orbitals are canonicalized as:
  inactive (docc + uocc) : Fock(core)
  active   (actv)        : Fock(core)

  =========================================================================
  Eigenvalues (Eh)
  -------------------------------------------------------------------------
  Doubly occupied orbitals
      1    -26.322903  A1      2     -1.519005  A1      3     -0.638631  B2
      4     -0.638631  B1
  Active orbitals
      5     -0.537968  A1      6      0.087068  A1
  Unoccupied orbitals
      7      2.558369  A1      8      3.324242  B2      9      3.324242  B1
     10      3.444927  A1     11      3.586079  A1     12      3.602014  B1
     13      3.602014  B2     14      4.287527  A1     15      5.991409  B1
     16      5.991409  B2     17      5.995163  A1     18      5.995163  A2
     19      6.177516  A1
  =========================================================================


  MCSCF Execution Completed.


*** tstop() called on Kevins-MacBook-Pro-2.local at Sat Dec  5 15:16:57 2015
Module time:
	user time   =       1.17 seconds =       0.02 minutes
	system time =       0.20 seconds =       0.00 minutes
	total time  = 1449346617 seconds = 24155776.95 minutes
Total time:
	user time   =       1.17 seconds =       0.02 minutes
	system time =       0.20 seconds =       0.00 minutes
	total time  = 1449346617 seconds = 24155776.95 minutes
Reading options from the FORTE block
Calling plugin /Users/kevinhannon/Programs/forte/forte.so.


  ==> MO Space Information <==

  Read options for space FROZEN_DOCC
  Read options for space RESTRICTED_DOCC
  Read options for space ACTIVE
 Removing orbital 0
  -------------------------------------------------
                       A1    A2    B1    B2   Sum
  -------------------------------------------------
    FROZEN_DOCC         1     0     0     0     1
    RESTRICTED_DOCC     1     0     1     1     3
    ACTIVE              2     0     0     0     2
    RESTRICTED_UOCC     6     1     3     3    13
    FROZEN_UOCC         0     0     0     0     0
    Total              10     1     4     4    19
  -------------------------------------------------

  ==> Integral Transformation <==

  Number of molecular orbitals:               19
  Number of correlated molecular orbitals:    18
  Number of frozen occupied orbitals:          1
  Number of frozen unoccupied orbitals:        0


  DFIntegrals overall time
 Computing Density fitted integrals 

 Number of auxiliary basis functions:  70
 Need 0.000188 GB to store DF integrals

    Computing DF Integrals               ......Done. Timing        0.360612 s
    Seeking DF Integrals                 ......Done. Timing        0.360828 s
   Reading DF Integrals                 . . ....Done. Timing        0.360960 s
  Frozen-core energy            -76.183128002175 a.u.

 FrozenOneBody Operator takes  0.47452900 s
  Resorting integrals after freezing core.
 Done with resorting
 Resorting integrals takes   0.00239900s
  DFIntegrals take      0.92125500 s
 Not using JK builder

                -----------------------------------------------
                  String-based Full Configuration Interaction
                          by Francesco A. Evangelista
                -----------------------------------------------

  Number of electrons: 10
  Charge: 0
  Multiplicity: 1
  Davidson subspace max dim: 8
  Davidson subspace min dim: 2
  M_s: 0

  ==> String Lists <==

  Number of alpha electrons     = 1
  Number of beta electrons      = 1
  Number of alpha strings       = 2
  Number of beta strings        = 2
  Timing for strings        =      0.000 s
  Timing for NN strings     =      0.000 s
  Timing for VO strings     =      0.000 s
  Timing for OO strings     =      0.000 s
  Timing for Knowles-Handy  =      0.000 s
  Timing for VVOO strings   =      0.000 s
  Timing for VOVO strings   =      0.000 s
  Timing for 1-hole strings =      0.000 s
  Timing for 2-hole strings =      0.000 s
  Timing for 3-hole strings =      0.000 s
  Total timing              =      0.000 s

  ==> FCI Solver <==

    Number of determinants                           4
    Symmetry                                         0
    Multiplicity                                     1
    Number of roots                                  1
    Target root                                      0
    Trial vectors per root                          10

 Not using JK builder
  Allocating memory for the Hamiltonian algorithm. Size: 2 x 2 x 2.   Memory: 0.000000 GB

  Determinant space is spin complete.

  ==> FCI Initial Guess <==

  ---------------------------------------------
    Root            Energy     <S^2>   Spin
  ---------------------------------------------
      0      -99.939143388398  0.000  singlet
      1      -99.780850948332  2.000  triplet
      2      -99.379536570898  0.000  singlet
      3      -99.029745208436  0.000  singlet
  ---------------------------------------------
  Timing for initial guess  =      0.001 s

  Projecting out root 1
  ==> Diagonalizing Hamiltonian <==

  ----------------------------------------
    Iter.      Avg. Energy       Delta_E
  ----------------------------------------
      1      -99.939143388398  -9.994e+01
      2      -99.939143388398  -4.263e-14
      3      -99.939143388398  +0.000e+00
  ----------------------------------------
  The Davidson-Liu algorithm converged in 4 iterations.

  ==> Root No. 0 <==

    20     -0.95491468
    02      0.29688037

    Total Energy:       -99.939143388397937

  ==> RDMs for Root No. 0 <==

                          ----------------------------
                            Semi-Canonical Orbitals
                            Francesco A. Evangelista
                          ----------------------------


  ==> Integral transformation <==

 Computing Density fitted integrals 

 Number of auxiliary basis functions:  70
 Need 0.000188 GB to store DF integrals

    Computing DF Integrals               ......Done. Timing        0.357331 s
    Seeking DF Integrals                 ......Done. Timing        0.357521 s
   Reading DF Integrals                 . . ....Done. Timing        0.357650 s
  Frozen-core energy            -76.183128002175 a.u.

 FrozenOneBody Operator takes  0.46971400 s
  Resorting integrals after freezing core.
 Done with resorting
 Resorting integrals takes   0.00241500s
 Frozen Orbitals takes 0.47267900 s

                -----------------------------------------------
                  String-based Full Configuration Interaction
                          by Francesco A. Evangelista
                -----------------------------------------------

  Number of electrons: 10
  Charge: 0
  Multiplicity: 1
  Davidson subspace max dim: 8
  Davidson subspace min dim: 2
  M_s: 0

  ==> String Lists <==

  Number of alpha electrons     = 1
  Number of beta electrons      = 1
  Number of alpha strings       = 2
  Number of beta strings        = 2
  Timing for strings        =      0.000 s
  Timing for NN strings     =      0.000 s
  Timing for VO strings     =      0.000 s
  Timing for OO strings     =      0.000 s
  Timing for Knowles-Handy  =      0.000 s
  Timing for VVOO strings   =      0.000 s
  Timing for VOVO strings   =      0.000 s
  Timing for 1-hole strings =      0.000 s
  Timing for 2-hole strings =      0.000 s
  Timing for 3-hole strings =      0.000 s
  Total timing              =      0.000 s

  ==> FCI Solver <==

    Number of determinants                           4
    Symmetry                                         0
    Multiplicity                                     1
    Number of roots                                  1
    Target root                                      0
    Trial vectors per root                          10

 Not using JK builder
  Allocating memory for the Hamiltonian algorithm. Size: 2 x 2 x 2.   Memory: 0.000000 GB

  Determinant space is spin complete.

  ==> FCI Initial Guess <==

  ---------------------------------------------
    Root            Energy     <S^2>   Spin
  ---------------------------------------------
      0      -99.939143388398  0.000  singlet
      1      -99.780850948332  2.000  triplet
      2      -99.379536570898  0.000  singlet
      3      -99.029745208436  0.000  singlet
  ---------------------------------------------
  Timing for initial guess  =      0.001 s

  Projecting out root 1
  ==> Diagonalizing Hamiltonian <==

  ----------------------------------------
    Iter.      Avg. Energy       Delta_E
  ----------------------------------------
      1      -99.937037563898  -9.994e+01
      2      -99.939143388398  -2.106e-03
      3      -99.939143388398  +0.000e+00
  ----------------------------------------
  The Davidson-Liu algorithm converged in 4 iterations.

  ==> Root No. 0 <==

    20      0.95088082
    02     -0.29284652

    Total Energy:       -99.939143388397937

  ==> RDMs for Root No. 0 <==

	  ---------------------------------------------------------
	      DF/CD - Driven Similarity Renormalization Group MBPT2
	                   Kevin Hannon and Chenyang (York) Li
	                       1 thread(s) 
	  ---------------------------------------------------------
 Reference = TWOCON
  Reference Energy = -99.939143388397937

  ==> Calculation Information <==

    Flow parameter                           1.000e+00
    Cholesky Tolerance                       1.000e-06
    Taylor expansion threshold               1.000e-03
    int_type                                        DF
    ccvv_algorithm                           FLY_AMBIT
    ccvv_source                                 NORMAL
    Computing T2                         ......Done. Timing        0.011657 s
    Renormalizing V                      ......Done. Timing        0.007524 s
    Computing T1                         ......Done. Timing        0.005579 s
    Renormalizing F                      ......Done. Timing        0.007055 s
    Computing <[F, T1]>                  ......Done. Timing        0.010064 s
    Computing <[F, T2]>                  ......Done. Timing        0.005473 s
    Computing <[V, T1]>                  ......Done. Timing        0.005139 s
    Computing <[V, T2]> (C_2)^4 (no ccvv) ......Done. Timing        0.034731 s
    Computing <[V, T2]> (C_2)^4 ccvv     ......Done. Timing        0.013416 s
    Computing <[V, T2]> 4HH              ......Done. Timing        0.024394 s
    Computing <V, T2]> 4PP               ...  Done. Timing        0.025869 s
    Computing [V, T2] 4PH                ...  Done. Timing        0.090259 s
    Computing [V, T2] λ3                ......Done. Timing        0.022726 s

  ==> DSRG-MRPT2 Energy Summary <==

    E0 (reference)                 =    -99.939143388397937
    <[F, T1]>                      =     -0.013708827530859
    <[F, T2]>                      =      0.012627403867359
    <[V, T1]>                      =      0.012634897808815
    <[V, T2]> (C_2)^4              =     -0.214363925472059
    <[V, T2]> C_4 (C_2)^2 HH       =      0.002958976729790
    <[V, T2]> C_4 (C_2)^2 PP       =      0.013761559358374
    <[V, T2]> C_4 (C_2)^2 PH       =      0.027751945443686
    <[V, T2]> C_6 C_2              =     -0.003203364576346
    <[V, T2]>                      =     -0.173094808516556
    DSRG-MRPT2 correlation energy  =     -0.161541334371241
    DSRG-MRPT2 total energy        =   -100.100684722769174
    max(T1)                        =      0.136582784419039
    ||T1||                         =      0.244680975632897


    CD/DF-DSRG-MRPT2 took   0.26516200 s.

  Your calculation took 2.47108500 seconds

*** PSI4 exiting successfully. Buy a developer a beer!
