    -----------------------------------------------------------------------
          Psi4: An Open-Source Ab Initio Electronic Structure Package
                              Psi4 0.1.233 Driver

                          Git: Rev {detached?} ced593a dirty

    J. M. Turney, A. C. Simmonett, R. M. Parrish, E. G. Hohenstein,
    F. A. Evangelista, J. T. Fermann, B. J. Mintz, L. A. Burns, J. J. Wilke,
    M. L. Abrams, N. J. Russ, M. L. Leininger, C. L. Janssen, E. T. Seidl,
    W. D. Allen, H. F. Schaefer, R. A. King, E. F. Valeev, C. D. Sherrill,
    and T. D. Crawford, WIREs Comput. Mol. Sci. 2, 556-565 (2012)
    (doi: 10.1002/wcms.93)

                         Additional Contributions by
    A. E. DePrince, M. Saitow, U. Bozkaya, A. Yu. Sokolov
    -----------------------------------------------------------------------


    Psi4 started on: 11-25-2015  07:36:51 PM EST

    Process ID:  86812
    PSI4DATADIR: /Users/kevinhannon/Programs/psi4cmake/psi4/lib
    Memory level set to 256.000 MB

  ==> Input File <==

--------------------------------------------------------------------------
import forte


memory 500 mb

refmcscf   =   -226.280722918556
refdsrgpt2 =  -226.575016871111

molecule mbenzyne{
  0 1
   C   0.0000000000  -2.5451795941   0.0000000000
   C   0.0000000000   2.5451795941   0.0000000000
   C  -2.2828001669  -1.3508352528   0.0000000000
   C   2.2828001669  -1.3508352528   0.0000000000
   C   2.2828001669   1.3508352528   0.0000000000
   C  -2.2828001669   1.3508352528   0.0000000000
   H  -4.0782187459  -2.3208602146   0.0000000000
   H   4.0782187459  -2.3208602146   0.0000000000
   H   4.0782187459   2.3208602146   0.0000000000
   H  -4.0782187459   2.3208602146   0.0000000000

  units bohr
}

set globals{
   basis                   sto-3g
   df_basis_mp2            cc-pvdz-ri
   df_basis_scf            cc-pvdz-jkfit
   scf_type                out_of_core
   d_convergence           10
   e_convergence           12
   frozen_docc            [2, 1, 0, 0, 0, 0, 2, 1]
   restricted_docc        [3, 2, 1, 1, 0, 1, 2, 3]
   active                 [1, 0, 0, 0, 0, 0, 1, 0]
   maxiter                 500
   reference               RHF
}

set scf_type  direct
set forte {
   job_type               CASSCF
   CASSCF_DEBUG_PRINTING   true
   frozen_docc            [2, 1, 0, 0, 0, 0, 2, 1]
   restricted_docc        [3, 2, 1, 1, 0, 1, 2, 3]
   active                 [1, 0, 0, 0, 0, 0, 1, 0]
   root_sym                0
   nroot                   1
   multiplicity            1
   int_type                conventional
   cas_type                FCI
   casscf_reference        true
   CASSCF_ITERATIONS       20
   job_type                 FCI
   CASSCF_FREEZE_CORE       true
}

#scf = energy('casscf')

scf = energy('mcscf')
compare_values(refmcscf, scf,10,"SCF Energy")
energy('forte')
compare_values(refdsrgpt2, get_variable("CURRENT ENERGY"),6,"CASSCF energy")
--------------------------------------------------------------------------
/Users/kevinhannon/Programs/forte/forte.so loaded.

  Memory set to 500.000 MiB by Python script.

         ------------------------------------------
           MCSCF: a self-consistent field program
            written by Francesco A. Evangelista
         ------------------------------------------ MINTS: Wrapper to libmints.
   by Justin Turney

   Calculation information:
      Number of atoms:                  10
      Number of AO shells:              22
      Number of SO shells:               7
      Number of primitives:             66
      Number of atomic orbitals:        34
      Number of basis functions:        34

      Number of irreps:                  8
      Integral cutoff                 1.00e-12
      Number of functions per irrep: [   8    6    1    2    1    2    8    6 ]

 OEINTS: Overlap, kinetic, potential, dipole, and quadrupole integrals
         stored in file 35.

      Computing two-electron integrals...done
      Computed 26788 non-zero two-electron integrals.
        Stored in file 33.



  MOs per irrep:                  Ag  B1g  B2g  B3g  Au  B1u  B2u  B3u Total
  ----------------------------------------------------------------------------
  Total                            8    6    1    2    1    2    8    6    34
  ----------------------------------------------------------------------------

  Guessing orbital occupation

  Running an SCF calculation

  Generated 595 pairs
  Distributed as [122 Ag][100 B1g][40 B2g][44 B3g][40 Au][44 B1u][105 B2u][100 B3u]
  batch   0 pq = [       0,     122] index = [               0,            7503]

  Allocated the PK matrix (7503 elements) 
  Reading the two-electron integrals to form PK ... 
  batch   0 ... done.


  Occupation changed
  docc = ( 5 4 1 0 0 1 5 4 )
  actv = ( 0 0 0 0 0 0 0 0 )


  =========================================================================================
         Cycle          Energy               D(Energy)            D(Density)            DIIS
  ===========================================================================================
  Setting level shift to 0.000 S
  @SCF    0     -209.053080905016    -209.053080905016       0.315221714133

  Occupation changed
  docc = ( 6 3 1 0 0 1 5 4 )
  actv = ( 0 0 0 0 0 0 0 0 )

  Setting level shift to 0.000 S
  @SCF    1     -224.202613288407     -15.149532383391       0.308290836766
  Setting level shift to 0.000 S
  @SCF    2     -226.265343167642      -2.062729879235       0.064603001621
  Setting level shift to 0.000 S
  @SCF    3     -226.279758519662      -0.014415352021       0.006485763957
  Setting level shift to 0.000 S
  @SCF    4     -226.280616258252      -0.000857738589       0.001538978497
  Setting level shift to 0.000 S
  @SCF    5     -226.280707364791      -0.000091106539       0.000560032778
  Setting level shift to 0.000 S
  @SCF    6     -226.280720444262      -0.000013079471       0.000200735772
  Setting level shift to 0.000 S/E
  @SCF    7     -226.280722514050      -0.000002069788       0.000080157092
  Setting level shift to 0.000 S/E
  @SCF    8     -226.280722918509      -0.000000404459       0.000053084727
  Setting level shift to 0.000 S/E
  @SCF    9     -226.280722918556      -0.000000000047       0.000000349035
  Setting level shift to 0.000 S/E
  @SCF   10     -226.280722918556      -0.000000000000       0.000000031084
  Setting level shift to 0.000 S/E
  @SCF   11     -226.280722918556      -0.000000000000       0.000000004440
  Setting level shift to 0.000 S/E
  @SCF   12     -226.280722918557      -0.000000000000       0.000000000914
  Setting level shift to 0.000 S/E
  @SCF   13     -226.280722918557       0.000000000000       0.000000000064
  Setting level shift to 0.000 S/E
  @SCF   14     -226.280722918556       0.000000000000       0.000000000007
  Setting level shift to 0.000 S/E
  @SCF   15     -226.280722918556       0.000000000000       0.000000000001
  Setting level shift to 0.000 S/E
  @SCF   16     -226.280722918556       0.000000000000       0.000000000000
  =========================================================================================

      * SCF total energy   =    -226.280722918556

  Final occupation
  docc = [ 6,  3 1 0 0 1 5 4 ]
  actv = [ 0,  0 0 0 0 0 0 0 ]
  sym  = 0

  End of SCF
  MOs orthonormality check passed.

  Orbitals are canonicalized as:
  inactive (docc + uocc) : Fock(core)
  active   (actv)        : Fock(core)

  =========================================================================
  Eigenvalues (Eh)
  -------------------------------------------------------------------------
  Doubly occupied orbitals
      1    -11.065867 B3u      2    -11.065764  Ag      3    -11.065583 B2u
      4    -11.065568 B1g      5    -10.974457 B2u      6    -10.974331  Ag
      7     -1.127252  Ag      8     -0.984603 B3u      9     -0.950117 B2u
     10     -0.789488 B1g     11     -0.757004  Ag     12     -0.616861  Ag
     13     -0.605485 B2u     14     -0.583361 B3u     15     -0.552544 B3u
     16     -0.473531 B1g     17     -0.426675 B1u     18     -0.312705 B2g
     19     -0.274321 B2u     20     -0.206272  Ag
  Unoccupied orbitals
     21      0.012845 B3g     22      0.247641  Au     23      0.355347 B1u
     24      0.525304 B3g     25      0.620886  Ag     26      0.647064 B3u
     27      0.660749 B2u     28      0.714549 B1g     29      0.806139 B2u
     30      0.817935  Ag     31      0.830414 B1g     32      0.959351 B3u
     33      1.096677 B2u     34      1.122590 B1g
  =========================================================================


  MCSCF Execution Completed.


*** tstop() called on Kevins-MacBook-Pro-2.local at Wed Nov 25 19:36:52 2015
Module time:
	user time   =       0.60 seconds =       0.01 minutes
	system time =       0.06 seconds =       0.00 minutes
	total time  = 1448498212 seconds = 24141636.87 minutes
Total time:
	user time   =       0.60 seconds =       0.01 minutes
	system time =       0.06 seconds =       0.00 minutes
	total time  = 1448498212 seconds = 24141636.87 minutes
Reading options from the FORTE block
Calling plugin /Users/kevinhannon/Programs/forte/forte.so.


  ==> MO Space Information <==

  Read options for space FROZEN_DOCC
  Read options for space RESTRICTED_DOCC
  Read options for space ACTIVE
 Removing orbital 0
 Removing orbital 1
 Removing orbital 8
 Removing orbital 20
 Removing orbital 21
 Removing orbital 28
  -------------------------------------------------------------------------
                       Ag   B1g   B2g   B3g    Au   B1u   B2u   B3u   Sum
  -------------------------------------------------------------------------
    FROZEN_DOCC         2     1     0     0     0     0     2     1     6
    RESTRICTED_DOCC     3     2     1     1     0     1     2     3    13
    ACTIVE              1     0     0     0     0     0     1     0     2
    RESTRICTED_UOCC     2     3     0     1     1     1     3     2    13
    FROZEN_UOCC         0     0     0     0     0     0     0     0     0
    Total               8     6     1     2     1     2     8     6    34
  -------------------------------------------------------------------------

  ==> Integral Transformation <==

  Number of molecular orbitals:               34
  Number of correlated molecular orbitals:    28
  Number of frozen occupied orbitals:          6
  Number of frozen unoccupied orbitals:        0


  Overall Conventional Integrals timings

	Presorting SO-basis two-electron integrals.
	Sorting File: SO Ints (nn|nn) nbuckets = 1
	Transforming the one-electron integrals and constructing Fock matrices
	Starting first half-transformation.
	Sorting half-transformed integrals.
	First half integral transformation complete.
	Starting second half-transformation.
	Two-electron integral transformation complete.

  Integral transformation done. 0.04681700 s
  Reading the two-electron integrals from disk
  Size of two-electron integrals:   0.029869 GB
  Frozen-core energy              0.000000000000 a.u.

 FrozenOneBody Operator takes  0.57088400 s
  Resorting integrals after freezing core.
  Conventional integrals take 0.71896300 s
 scalar_energy_ = -124.39967742

                -----------------------------------------------
                  Complete Active Space Self Consistent Field
                                 Kevin Hannon
                -----------------------------------------------

 Total Number of NMO: 28
 ACTIVE:  3 19
 RESTRICTED:  0 1 2 6 7 11 12 15 17 18 23 24 25
 VIRTUAL:  4 5 8 9 10 13 14 16 20 21 22 26 27

  ==> CASSCF Iteration <==


                -----------------------------------------------
                  String-based Full Configuration Interaction
                          by Francesco A. Evangelista
                -----------------------------------------------

  Number of electrons: 40
  Charge: 0
  Multiplicity: 1
  Davidson subspace max dim: 8
  Davidson subspace min dim: 2
  M_s: 0

  ==> String Lists <==

  Number of alpha electrons     = 1
  Number of beta electrons      = 1
  Number of alpha strings       = 2
  Number of beta strings        = 2
  Timing for strings        =      0.000 s
  Timing for NN strings     =      0.000 s
  Timing for VO strings     =      0.000 s
  Timing for OO strings     =      0.000 s
  Timing for Knowles-Handy  =      0.000 s
  Timing for VVOO strings   =      0.000 s
  Timing for VOVO strings   =      0.000 s
  Timing for 1-hole strings =      0.000 s
  Timing for 2-hole strings =      0.000 s
  Timing for 3-hole strings =      0.000 s
  Total timing              =      0.000 s

  ==> FCI Solver <==

    Number of determinants                           2
    Symmetry                                         0
    Multiplicity                                     1
    Number of roots                                  1
    Target root                                      0
    Trial vectors per root                          10
Calling ints, mospace, Ative Contruct
 scalar_energy_ = -124.39967742
  Allocating memory for the Hamiltonian algorithm. Size: 2 x 1 x 1.   Memory: 0.000000 GB

  Determinant space is spin complete.

  ==> FCI Initial Guess <==

  ---------------------------------------------
    Root            Energy     <S^2>   Spin
  ---------------------------------------------
      0     -226.515924713423  0.000  singlet
      1     -226.083011605036  0.000  singlet
  ---------------------------------------------
  Timing for initial guess  =      0.000 s

  ==> Diagonalizing Hamiltonian <==

  ----------------------------------------
    Iter.      Avg. Energy       Delta_E
  ----------------------------------------
      1     -226.515924713423  -2.265e+02
      2     -226.515924713423  +0.000e+00
  ----------------------------------------
  The Davidson-Liu algorithm converged in 3 iterations.

  ==> Root No. 0 <==

    0 2     -0.81932909
    2 0      0.57332350

    Total Energy:      -226.515924713423118

  ==> RDMs for Root No. 0 <==
 scalar_energy_ = -124.39967742
 E_casscf_check - E_casscf_ = difference

 -226.51592471 - -226.51592471 = -0.00000000
 Done with CAS-CI function  ## CORR_HAMIL (Symmetry 0) ##
  Irrep: 1 Size: 8 x 8

                 1                   2                   3                   4                   5

    1   -27.09508132004337     0.00082913355708    -0.33387076059383     0.22068999703993    -0.04196255076530
    2     0.00082913355708   -27.04492124861057     0.21727689187957     0.20210351238924     0.20483211551917
    3    -0.33387076059383     0.21727689187957   -13.98901022323236    -0.71466254969949     0.87015279618332
    4     0.22068999703993     0.20210351238924    -0.71466254969949   -12.30304536721026    -0.76590607130975
    5    -0.04196255076530     0.20483211551917     0.87015279618332    -0.76590607130975   -12.34001869901942
    6     0.00343352950029     0.25217402489076     0.15049739935577     0.99672193098370     0.09623060124854
    7     0.33738045110514     0.16074331938895     0.15204984995260    -1.13517603246633     1.07174265624812
    8    -0.00943039103018    -0.18874691709468     0.06484626476403    -0.19773598925143     0.84207762675538

                 6                   7                   8

    1     0.00343352950029     0.33738045110514    -0.00943039103018
    2     0.25217402489076     0.16074331938895    -0.18874691709468
    3     0.15049739935577     0.15204984995260     0.06484626476403
    4     0.99672193098369    -1.13517603246633    -0.19773598925143
    5     0.09623060124854     1.07174265624812     0.84207762675538
    6   -11.90335686645534    -0.57081201200238    -0.57560041049040
    7    -0.57081201200238   -10.63333403059665     1.18745060171634
    8    -0.57560041049040     1.18745060171634   -12.88612391761645



  Irrep: 2 Size: 6 x 6

                 1                   2                   3                   4                   5

    1   -27.09386825078006    -0.35933959553331    -0.04519083622865    -0.39541482725786    -0.11634089425310
    2    -0.35933959553331   -12.26163967169172     1.41473300424662    -0.80725868941705    -0.48824734618859
    3    -0.04519083622865     1.41473300424662   -11.97500667798294    -0.74107029411147    -1.59486702421445
    4    -0.39541482725786    -0.80725868941705    -0.74107029411147   -12.08224574931892     1.54118403578385
    5    -0.11634089425310    -0.48824734618859    -1.59486702421445     1.54118403578385   -11.50253190969525
    6    -0.05060726240798     0.01057153434800     0.17053583362946    -0.14531286904973     0.01052377748234

                 6

    1    -0.05060726240798
    2     0.01057153434799
    3     0.17053583362946
    4    -0.14531286904973
    5     0.01052377748234
    6   -12.71334226302201



  Irrep: 3 Size: 1 x 1

                 1

    1   -12.53996881932579



  Irrep: 4 Size: 2 x 2

                 1                   2

    1   -12.53118797836657     0.01116786683828
    2     0.01116786683828   -12.46286057431438



  Irrep: 5 Size: 1 x 1

                 1

    1   -12.50230885961918



  Irrep: 6 Size: 2 x 2

                 1                   2

    1   -12.58323593059582     0.00766929559432
    2     0.00766929559431   -12.46493983100093



  Irrep: 7 Size: 8 x 8

                 1                   2                   3                   4                   5

    1   -27.09386604782821     0.00072316184714    -0.27281740177312    -0.21440483781239    -0.10731297216703
    2     0.00072316184714   -27.04481548733704     0.31584428847335    -0.13557899275164    -0.27746223043538
    3    -0.27281740177312     0.31584428847335   -13.51032473500129     1.05825878809383    -0.77707104155093
    4    -0.21440483781239    -0.13557899275164     1.05825878809383   -11.24433532344892     0.53932749290653
    5    -0.10731297216703    -0.27746223043538    -0.77707104155093     0.53932749290653   -12.09200647131148
    6     0.33774892782446     0.18012177046893     0.19391151502131     1.61949618575355    -0.02643451369182
    7     0.23441129265832    -0.08865462725641     0.20928122766651     0.53533154241854     0.32449356742597
    8     0.04291443435855     0.14446796710378    -0.15552305738611    -0.69606991970284     0.06086154877935

                 6                   7                   8

    1     0.33774892782446     0.23441129265832     0.04291443435855
    2     0.18012177046893    -0.08865462725641     0.14446796710379
    3     0.19391151502131     0.20928122766651    -0.15552305738611
    4     1.61949618575355     0.53533154241854    -0.69606991970285
    5    -0.02643451369182     0.32449356742597     0.06086154877936
    6   -10.93417663810555     0.68432742991083    -1.23702433033174
    7     0.68432742991083   -12.55873044902990    -0.56706210473992
    8    -1.23702433033174    -0.56706210473991   -13.02952688017125



  Irrep: 8 Size: 6 x 6

                 1                   2                   3                   4                   5

    1   -27.09501329993086    -0.41754037536550    -0.02049552302754     0.02879160331386     0.21842677878697
    2    -0.41754037536550   -13.13733201230008     1.06402141237485    -1.07986775931066     0.36872600740116
    3    -0.02049552302754     1.06402141237485   -12.57930481088176    -0.64150795088307     1.37608860423705
    4     0.02879160331386    -1.07986775931067    -0.64150795088307   -12.50542201871111    -1.36037739076020
    5     0.21842677878697     0.36872600740117     1.37608860423705    -1.36037739076020   -10.44219029393826
    6    -0.23424510669951    -0.25832620728072    -0.26899404823606     0.21574100595313    -0.81250486564295

                 6

    1    -0.23424510669950
    2    -0.25832620728071
    3    -0.26899404823606
    4     0.21574100595313
    5    -0.81250486564294
    6   -12.50567014554519



  ## C_core (Symmetry 0) ##
  Irrep: 1 Size: 8 x 3

                 1                   2                   3

    1     0.14089775055950     0.13208333885104     0.10699978931161
    2    -0.33974195724537    -0.38320003975622    -0.36339310635176
    3    -0.13874001498555    -0.10616414788867     0.21923473751248
    4     0.21113602798594    -0.10698934283528    -0.01496934329220
    5    -0.53561601909954     0.33882131960649     0.03300800328242
    6    -0.13537654885206    -0.45376577427455     0.16884766467591
    7    -0.07182495275220     0.19584644594299     0.59690489647785
    8    -0.08624891997059     0.29901834856794    -0.29577594745652



  Irrep: 2 Size: 6 x 2

                 1                   2

    1    -0.31070244423949     0.42621620182356
    2    -0.20661970368822     0.01580530849458
    3     0.61855584864946    -0.04404345739304
    4     0.01764198002169    -0.62288212276668
    5    -0.26362094768580     0.02646820556080
    6     0.29594864822676     0.50027605244066



  Irrep: 3 Size: 1 x 1

                 1

    1     0.92592393487312



  Irrep: 4 Size: 2 x 1

                 1

    1    -0.64630406960607
    2    -0.65407768831028



  Irrep: 5 Size: 1 x 0

	(empty)

  Irrep: 6 Size: 2 x 1

                 1

    1     0.32994547107390
    2     0.75730650487862



  Irrep: 7 Size: 8 x 2

                 1                   2

    1     0.20156085330057    -0.09561189981594
    2    -0.53566276749982     0.30891610595860
    3    -0.13843798787353     0.14106287336330
    4     0.16837902486861     0.08860363475253
    5    -0.46522771906701    -0.30698944892500
    6    -0.17959953796686     0.48391756029849
    7     0.18762203539185     0.15604180626358
    8    -0.11893819205093    -0.51930692692471



  Irrep: 8 Size: 6 x 3

                 1                   2                   3

    1     0.18135522460241    -0.39799765005242    -0.20867027095034
    2     0.25474541023528    -0.02755193395589     0.02330681351692
    3    -0.69669275065727     0.08492580040315    -0.08419101195523
    4    -0.00287444352107     0.61231964137686    -0.11950132850384
    5    -0.13588293559368    -0.13797906368260    -0.70949233878908
    6    -0.17662998228113    -0.32983903670746     0.34736681243622



  ## INACTIVE_FOCK (Symmetry 0) ##
  Irrep: 1 Size: 28 x 28

                 1                   2                   3                   4                   5

    1    -1.69254057959014    -0.09528680617468    -0.03551982803884    -0.02436131343848    -0.02855779407161
    2    -0.09528680617468    -1.22944549700617    -0.04782980605149    -0.02028478494342    -0.05467165478434
    3    -0.03551982803884    -0.04782980605149    -1.11707871180888    -0.06121709761320     0.01767608879761
    4    -0.02436131343848    -0.02028478494342    -0.06121709761321    -0.52797173299990    -0.03208680635780
    5    -0.02855779407161    -0.05467165478433     0.01767608879761    -0.03208680635780     0.16096861345278
    6     0.04622260632918     0.05304806731605     0.04044067272694    -0.02767753944078     0.08176435830252
    7     0.00000000000000     0.00000000000000     0.00000000000000     0.00000000000000     0.00000000000000
    8     0.00000000000000     0.00000000000000     0.00000000000000     0.00000000000000     0.00000000000000
    9     0.00000000000000     0.00000000000000     0.00000000000000     0.00000000000000     0.00000000000000
   10     0.00000000000000     0.00000000000000     0.00000000000000     0.00000000000000     0.00000000000000
   11     0.00000000000000     0.00000000000000     0.00000000000000     0.00000000000000     0.00000000000000
   12     0.00000000000000     0.00000000000000     0.00000000000000     0.00000000000000     0.00000000000000
   13     0.00000000000000     0.00000000000000     0.00000000000000     0.00000000000000     0.00000000000000
   14     0.00000000000000     0.00000000000000     0.00000000000000     0.00000000000000     0.00000000000000
   15     0.00000000000000     0.00000000000000     0.00000000000000     0.00000000000000     0.00000000000000
   16     0.00000000000000     0.00000000000000     0.00000000000000     0.00000000000000     0.00000000000000
   17     0.00000000000000     0.00000000000000     0.00000000000000     0.00000000000000     0.00000000000000
   18     0.00000000000000     0.00000000000000     0.00000000000000     0.00000000000000     0.00000000000000
   19     0.00000000000000     0.00000000000000     0.00000000000000     0.00000000000000     0.00000000000000
   20     0.00000000000000     0.00000000000000     0.00000000000000     0.00000000000000     0.00000000000000
   21     0.00000000000000     0.00000000000000     0.00000000000000     0.00000000000000     0.00000000000000
   22     0.00000000000000     0.00000000000000     0.00000000000000     0.00000000000000     0.00000000000000
   23     0.00000000000000     0.00000000000000     0.00000000000000     0.00000000000000     0.00000000000000
   24     0.00000000000000     0.00000000000000     0.00000000000000     0.00000000000000     0.00000000000000
   25     0.00000000000000     0.00000000000000     0.00000000000000     0.00000000000000     0.00000000000000
   26     0.00000000000000     0.00000000000000     0.00000000000000     0.00000000000000     0.00000000000000
   27     0.00000000000000     0.00000000000000     0.00000000000000     0.00000000000000     0.00000000000000
   28     0.00000000000000     0.00000000000000     0.00000000000000     0.00000000000000     0.00000000000000

                 6                   7                   8                   9                  10

    1     0.04622260632917     0.00000000000000     0.00000000000000     0.00000000000000     0.00000000000000
    2     0.05304806731605     0.00000000000000     0.00000000000000     0.00000000000000     0.00000000000000
    3     0.04044067272694     0.00000000000000     0.00000000000000     0.00000000000000     0.00000000000000
    4    -0.02767753944077     0.00000000000000     0.00000000000000     0.00000000000000     0.00000000000000
    5     0.08176435830252     0.00000000000000     0.00000000000000     0.00000000000000     0.00000000000000
    6     0.23967200856911     0.00000000000000     0.00000000000000     0.00000000000000     0.00000000000000
    7     0.00000000000000    -1.32130545509453     0.12533411120089     0.03550053878919    -0.02683071079041
    8     0.00000000000000     0.12533411120089    -0.99566855987655    -0.06192363015628    -0.03103962168726
    9     0.00000000000000     0.03550053878919    -0.06192363015628     0.23100414496376     0.04793082334758
   10     0.00000000000000    -0.02683071079042    -0.03103962168726     0.04793082334757     0.37565669955723
   11     0.00000000000000     0.08499617420087    -0.10272719998126    -0.10420361190341     0.01291670946723
   12     0.00000000000000     0.00000000000000     0.00000000000000     0.00000000000000     0.00000000000000
   13     0.00000000000000     0.00000000000000     0.00000000000000     0.00000000000000     0.00000000000000
   14     0.00000000000000     0.00000000000000     0.00000000000000     0.00000000000000     0.00000000000000
   15     0.00000000000000     0.00000000000000     0.00000000000000     0.00000000000000     0.00000000000000
   16     0.00000000000000     0.00000000000000     0.00000000000000     0.00000000000000     0.00000000000000
   17     0.00000000000000     0.00000000000000     0.00000000000000     0.00000000000000     0.00000000000000
   18     0.00000000000000     0.00000000000000     0.00000000000000     0.00000000000000     0.00000000000000
   19     0.00000000000000     0.00000000000000     0.00000000000000     0.00000000000000     0.00000000000000
   20     0.00000000000000     0.00000000000000     0.00000000000000     0.00000000000000     0.00000000000000
   21     0.00000000000000     0.00000000000000     0.00000000000000     0.00000000000000     0.00000000000000
   22     0.00000000000000     0.00000000000000     0.00000000000000     0.00000000000000     0.00000000000000
   23     0.00000000000000     0.00000000000000     0.00000000000000     0.00000000000000     0.00000000000000
   24     0.00000000000000     0.00000000000000     0.00000000000000     0.00000000000000     0.00000000000000
   25     0.00000000000000     0.00000000000000     0.00000000000000     0.00000000000000     0.00000000000000
   26     0.00000000000000     0.00000000000000     0.00000000000000     0.00000000000000     0.00000000000000
   27     0.00000000000000     0.00000000000000     0.00000000000000     0.00000000000000     0.00000000000000
   28     0.00000000000000     0.00000000000000     0.00000000000000     0.00000000000000     0.00000000000000

                11                  12                  13                  14                  15

    1     0.00000000000000     0.00000000000000     0.00000000000000     0.00000000000000     0.00000000000000
    2     0.00000000000000     0.00000000000000     0.00000000000000     0.00000000000000     0.00000000000000
    3     0.00000000000000     0.00000000000000     0.00000000000000     0.00000000000000     0.00000000000000
    4     0.00000000000000     0.00000000000000     0.00000000000000     0.00000000000000     0.00000000000000
    5     0.00000000000000     0.00000000000000     0.00000000000000     0.00000000000000     0.00000000000000
    6     0.00000000000000     0.00000000000000     0.00000000000000     0.00000000000000     0.00000000000000
    7     0.08499617420087     0.00000000000000     0.00000000000000     0.00000000000000     0.00000000000000
    8    -0.10272719998126     0.00000000000000     0.00000000000000     0.00000000000000     0.00000000000000
    9    -0.10420361190342     0.00000000000000     0.00000000000000     0.00000000000000     0.00000000000000
   10     0.01291670946723     0.00000000000000     0.00000000000000     0.00000000000000     0.00000000000000
   11     0.45766385587256     0.00000000000000     0.00000000000000     0.00000000000000     0.00000000000000
   12     0.00000000000000    -0.79142220830069     0.00000000000000     0.00000000000000     0.00000000000000
   13     0.00000000000000     0.00000000000000    -0.90708353631571    -0.16695644725973     0.00000000000000
   14     0.00000000000000     0.00000000000000    -0.16695644725974    -0.11824954186824     0.00000000000000
   15     0.00000000000000     0.00000000000000     0.00000000000000     0.00000000000000    -0.27187797027122
   16     0.00000000000000     0.00000000000000     0.00000000000000     0.00000000000000     0.00000000000000
   17     0.00000000000000     0.00000000000000     0.00000000000000     0.00000000000000     0.00000000000000
   18     0.00000000000000     0.00000000000000     0.00000000000000     0.00000000000000     0.00000000000000
   19     0.00000000000000     0.00000000000000     0.00000000000000     0.00000000000000     0.00000000000000
   20     0.00000000000000     0.00000000000000     0.00000000000000     0.00000000000000     0.00000000000000
   21     0.00000000000000     0.00000000000000     0.00000000000000     0.00000000000000     0.00000000000000
   22     0.00000000000000     0.00000000000000     0.00000000000000     0.00000000000000     0.00000000000000
   23     0.00000000000000     0.00000000000000     0.00000000000000     0.00000000000000     0.00000000000000
   24     0.00000000000000     0.00000000000000     0.00000000000000     0.00000000000000     0.00000000000000
   25     0.00000000000000     0.00000000000000     0.00000000000000     0.00000000000000     0.00000000000000
   26     0.00000000000000     0.00000000000000     0.00000000000000     0.00000000000000     0.00000000000000
   27     0.00000000000000     0.00000000000000     0.00000000000000     0.00000000000000     0.00000000000000
   28     0.00000000000000     0.00000000000000     0.00000000000000     0.00000000000000     0.00000000000000

                16                  17                  18                  19                  20

    1     0.00000000000000     0.00000000000000     0.00000000000000     0.00000000000000     0.00000000000000
    2     0.00000000000000     0.00000000000000     0.00000000000000     0.00000000000000     0.00000000000000
    3     0.00000000000000     0.00000000000000     0.00000000000000     0.00000000000000     0.00000000000000
    4     0.00000000000000     0.00000000000000     0.00000000000000     0.00000000000000     0.00000000000000
    5     0.00000000000000     0.00000000000000     0.00000000000000     0.00000000000000     0.00000000000000
    6     0.00000000000000     0.00000000000000     0.00000000000000     0.00000000000000     0.00000000000000
    7     0.00000000000000     0.00000000000000     0.00000000000000     0.00000000000000     0.00000000000000
    8     0.00000000000000     0.00000000000000     0.00000000000000     0.00000000000000     0.00000000000000
    9     0.00000000000000     0.00000000000000     0.00000000000000     0.00000000000000     0.00000000000000
   10     0.00000000000000     0.00000000000000     0.00000000000000     0.00000000000000     0.00000000000000
   11     0.00000000000000     0.00000000000000     0.00000000000000     0.00000000000000     0.00000000000000
   12     0.00000000000000     0.00000000000000     0.00000000000000     0.00000000000000     0.00000000000000
   13     0.00000000000000     0.00000000000000     0.00000000000000     0.00000000000000     0.00000000000000
   14     0.00000000000000     0.00000000000000     0.00000000000000     0.00000000000000     0.00000000000000
   15     0.00000000000000     0.00000000000000     0.00000000000000     0.00000000000000     0.00000000000000
   16    -1.00313104896943     0.16302386627137     0.00000000000000     0.00000000000000     0.00000000000000
   17     0.16302386627137    -0.40405216861833     0.00000000000000     0.00000000000000     0.00000000000000
   18     0.00000000000000     0.00000000000000    -1.58042356410833     0.07967527965139     0.05842672179484
   19     0.00000000000000     0.00000000000000     0.07967527965139    -1.04356208809526     0.00594977150023
   20     0.00000000000000     0.00000000000000     0.05842672179484     0.00594977150023    -0.63326599015141
   21     0.00000000000000     0.00000000000000    -0.04217330821069     0.06988694135992     0.01252592088719
   22     0.00000000000000     0.00000000000000     0.01439611086860    -0.00556450563704    -0.01035202848738
   23     0.00000000000000     0.00000000000000    -0.06023304944700     0.02067681640107    -0.02257307990560
   24     0.00000000000000     0.00000000000000     0.00000000000000     0.00000000000000     0.00000000000000
   25     0.00000000000000     0.00000000000000     0.00000000000000     0.00000000000000     0.00000000000000
   26     0.00000000000000     0.00000000000000     0.00000000000000     0.00000000000000     0.00000000000000
   27     0.00000000000000     0.00000000000000     0.00000000000000     0.00000000000000     0.00000000000000
   28     0.00000000000000     0.00000000000000     0.00000000000000     0.00000000000000     0.00000000000000

                21                  22                  23                  24                  25

    1     0.00000000000000     0.00000000000000     0.00000000000000     0.00000000000000     0.00000000000000
    2     0.00000000000000     0.00000000000000     0.00000000000000     0.00000000000000     0.00000000000000
    3     0.00000000000000     0.00000000000000     0.00000000000000     0.00000000000000     0.00000000000000
    4     0.00000000000000     0.00000000000000     0.00000000000000     0.00000000000000     0.00000000000000
    5     0.00000000000000     0.00000000000000     0.00000000000000     0.00000000000000     0.00000000000000
    6     0.00000000000000     0.00000000000000     0.00000000000000     0.00000000000000     0.00000000000000
    7     0.00000000000000     0.00000000000000     0.00000000000000     0.00000000000000     0.00000000000000
    8     0.00000000000000     0.00000000000000     0.00000000000000     0.00000000000000     0.00000000000000
    9     0.00000000000000     0.00000000000000     0.00000000000000     0.00000000000000     0.00000000000000
   10     0.00000000000000     0.00000000000000     0.00000000000000     0.00000000000000     0.00000000000000
   11     0.00000000000000     0.00000000000000     0.00000000000000     0.00000000000000     0.00000000000000
   12     0.00000000000000     0.00000000000000     0.00000000000000     0.00000000000000     0.00000000000000
   13     0.00000000000000     0.00000000000000     0.00000000000000     0.00000000000000     0.00000000000000
   14     0.00000000000000     0.00000000000000     0.00000000000000     0.00000000000000     0.00000000000000
   15     0.00000000000000     0.00000000000000     0.00000000000000     0.00000000000000     0.00000000000000
   16     0.00000000000000     0.00000000000000     0.00000000000000     0.00000000000000     0.00000000000000
   17     0.00000000000000     0.00000000000000     0.00000000000000     0.00000000000000     0.00000000000000
   18    -0.04217330821069     0.01439611086860    -0.06023304944700     0.00000000000000     0.00000000000000
   19     0.06988694135992    -0.00556450563704     0.02067681640107     0.00000000000000     0.00000000000000
   20     0.01252592088719    -0.01035202848738    -0.02257307990560     0.00000000000000     0.00000000000000
   21     0.17648466903182     0.04378494470961    -0.08483855113599     0.00000000000000     0.00000000000000
   22     0.04378494470960     0.34710503681056    -0.00438183655015     0.00000000000000     0.00000000000000
   23    -0.08483855113599    -0.00438183655015     0.53118482512889     0.00000000000000     0.00000000000000
   24     0.00000000000000     0.00000000000000     0.00000000000000    -1.46641016999449     0.09775626621978
   25     0.00000000000000     0.00000000000000     0.00000000000000     0.09775626621978    -1.12438372874460
   26     0.00000000000000     0.00000000000000     0.00000000000000     0.02084449763444    -0.06353946025978
   27     0.00000000000000     0.00000000000000     0.00000000000000     0.01355569667760    -0.00215814028436
   28     0.00000000000000     0.00000000000000     0.00000000000000     0.04495611239166    -0.12453629461999

                26                  27                  28

    1     0.00000000000000     0.00000000000000     0.00000000000000
    2     0.00000000000000     0.00000000000000     0.00000000000000
    3     0.00000000000000     0.00000000000000     0.00000000000000
    4     0.00000000000000     0.00000000000000     0.00000000000000
    5     0.00000000000000     0.00000000000000     0.00000000000000
    6     0.00000000000000     0.00000000000000     0.00000000000000
    7     0.00000000000000     0.00000000000000     0.00000000000000
    8     0.00000000000000     0.00000000000000     0.00000000000000
    9     0.00000000000000     0.00000000000000     0.00000000000000
   10     0.00000000000000     0.00000000000000     0.00000000000000
   11     0.00000000000000     0.00000000000000     0.00000000000000
   12     0.00000000000000     0.00000000000000     0.00000000000000
   13     0.00000000000000     0.00000000000000     0.00000000000000
   14     0.00000000000000     0.00000000000000     0.00000000000000
   15     0.00000000000000     0.00000000000000     0.00000000000000
   16     0.00000000000000     0.00000000000000     0.00000000000000
   17     0.00000000000000     0.00000000000000     0.00000000000000
   18     0.00000000000000     0.00000000000000     0.00000000000000
   19     0.00000000000000     0.00000000000000     0.00000000000000
   20     0.00000000000000     0.00000000000000     0.00000000000000
   21     0.00000000000000     0.00000000000000     0.00000000000000
   22     0.00000000000000     0.00000000000000     0.00000000000000
   23     0.00000000000000     0.00000000000000     0.00000000000000
   24     0.02084449763444     0.01355569667760     0.04495611239167
   25    -0.06353946025978    -0.00215814028436    -0.12453629461999
   26    -1.02404942041333    -0.07242813342671    -0.07291289581639
   27    -0.07242813342671     0.22099803251798    -0.07047478126924
   28    -0.07291289581639    -0.07047478126925     0.26316315607146



  ## FOCK_ACTIVE (Symmetry 0) ##
  Irrep: 1 Size: 34 x 34

                 1                   2                   3                   4                   5

    1     0.57033856615775    -0.00060836923987    -0.00014082798430    -0.00578893627167     0.00113853934398
    2    -0.00060836923987     0.96129623110596    -0.01350142862270    -0.01176830417260    -0.00500494009975
    3    -0.00014082798430    -0.01350142862270     0.60923904378973     0.08371924077906     0.00230573107494
    4    -0.00578893627167    -0.01176830417260     0.08371924077906     0.51528686330756     0.04598702752866
    5     0.00113853934398    -0.00500494009975     0.00230573107494     0.04598702752866     0.53986202701295
    6     0.00133411358273     0.00291415978501     0.00401236366360    -0.01343292408488     0.04316493707987
    7    -0.00211042121780    -0.00879223149860     0.01804752131577     0.05880864376117    -0.03221121006635
    8    -0.00781510130388     0.01864117841506    -0.03247899752025    -0.03778252808159    -0.04032114689528
    9     0.00000000000000     0.00000000000000     0.00000000000000    -0.00000000000000     0.00000000000000
   10     0.00000000000000    -0.00000000000000    -0.00000000000000     0.00000000000000    -0.00000000000000
   11    -0.00000000000000    -0.00000000000000    -0.00000000000000    -0.00000000000000    -0.00000000000000
   12    -0.00000000000000    -0.00000000000000    -0.00000000000000     0.00000000000000    -0.00000000000000
   13     0.00000000000000    -0.00000000000000    -0.00000000000000    -0.00000000000000     0.00000000000000
   14     0.00000000000000     0.00000000000000     0.00000000000000     0.00000000000000    -0.00000000000000
   15     0.00000000000000     0.00000000000000     0.00000000000000     0.00000000000000     0.00000000000000
   16     0.00000000000000     0.00000000000000     0.00000000000000     0.00000000000000     0.00000000000000
   17     0.00000000000000     0.00000000000000     0.00000000000000     0.00000000000000     0.00000000000000
   18     0.00000000000000     0.00000000000000     0.00000000000000     0.00000000000000     0.00000000000000
   19     0.00000000000000     0.00000000000000     0.00000000000000     0.00000000000000     0.00000000000000
   20     0.00000000000000     0.00000000000000     0.00000000000000     0.00000000000000     0.00000000000000
   21    -0.00000000000000    -0.00000000000000    -0.00000000000000     0.00000000000000     0.00000000000000
   22    -0.00000000000000     0.00000000000000    -0.00000000000000    -0.00000000000000    -0.00000000000000
   23    -0.00000000000000    -0.00000000000000     0.00000000000000    -0.00000000000000    -0.00000000000000
   24    -0.00000000000000     0.00000000000000    -0.00000000000000     0.00000000000000    -0.00000000000000
   25    -0.00000000000000     0.00000000000000    -0.00000000000000    -0.00000000000000    -0.00000000000000
   26     0.00000000000000    -0.00000000000000    -0.00000000000000     0.00000000000000     0.00000000000000
   27     0.00000000000000     0.00000000000000     0.00000000000000    -0.00000000000000     0.00000000000000
   28     0.00000000000000    -0.00000000000000     0.00000000000000    -0.00000000000000     0.00000000000000
   29    -0.00000000000000    -0.00000000000000    -0.00000000000000     0.00000000000000     0.00000000000000
   30    -0.00000000000000     0.00000000000000     0.00000000000000     0.00000000000000    -0.00000000000000
   31     0.00000000000000    -0.00000000000000     0.00000000000000     0.00000000000000    -0.00000000000000
   32    -0.00000000000000     0.00000000000000     0.00000000000000    -0.00000000000000    -0.00000000000000
   33     0.00000000000000    -0.00000000000000    -0.00000000000000    -0.00000000000000    -0.00000000000000
   34    -0.00000000000000     0.00000000000000     0.00000000000000    -0.00000000000000     0.00000000000000

                 6                   7                   8                   9                  10

    1     0.00133411358273    -0.00211042121780    -0.00781510130388    -0.00000000000000     0.00000000000000
    2     0.00291415978501    -0.00879223149860     0.01864117841506     0.00000000000000    -0.00000000000000
    3     0.00401236366360     0.01804752131577    -0.03247899752025    -0.00000000000000    -0.00000000000000
    4    -0.01343292408488     0.05880864376117    -0.03778252808159     0.00000000000000    -0.00000000000000
    5     0.04316493707987    -0.03221121006635    -0.04032114689528     0.00000000000000    -0.00000000000000
    6     0.50488150053339     0.03479304235074     0.03903571687322    -0.00000000000000    -0.00000000000000
    7     0.03479304235074     0.49176010200848    -0.08235048556428     0.00000000000000    -0.00000000000000
    8     0.03903571687322    -0.08235048556428     0.62185029826308    -0.00000000000000    -0.00000000000000
    9    -0.00000000000000    -0.00000000000000     0.00000000000000     0.57036782310550     0.00090619942036
   10    -0.00000000000000    -0.00000000000000    -0.00000000000000     0.00090619942036     0.55347194199885
   11     0.00000000000000     0.00000000000000     0.00000000000000     0.00603190255424    -0.11467814494164
   12    -0.00000000000000    -0.00000000000000     0.00000000000000     0.00286112559784    -0.01110488264571
   13    -0.00000000000000    -0.00000000000000    -0.00000000000000     0.00640095717154     0.02513054833162
   14    -0.00000000000000     0.00000000000000    -0.00000000000000    -0.00592925839923    -0.05088825843689
   15     0.00000000000000     0.00000000000000     0.00000000000000     0.00000000000000     0.00000000000000
   16     0.00000000000000     0.00000000000000     0.00000000000000     0.00000000000000     0.00000000000000
   17     0.00000000000000     0.00000000000000     0.00000000000000     0.00000000000000     0.00000000000000
   18     0.00000000000000     0.00000000000000     0.00000000000000     0.00000000000000     0.00000000000000
   19     0.00000000000000     0.00000000000000     0.00000000000000     0.00000000000000     0.00000000000000
   20     0.00000000000000     0.00000000000000     0.00000000000000     0.00000000000000     0.00000000000000
   21    -0.00000000000000     0.00000000000000    -0.00000000000000     0.00000000000000     0.00000000000000
   22    -0.00000000000000    -0.00000000000000     0.00000000000000     0.00000000000000    -0.00000000000000
   23    -0.00000000000000    -0.00000000000000     0.00000000000000     0.00000000000000    -0.00000000000000
   24     0.00000000000000     0.00000000000000    -0.00000000000000     0.00000000000000    -0.00000000000000
   25    -0.00000000000000     0.00000000000000    -0.00000000000000     0.00000000000000    -0.00000000000000
   26    -0.00000000000000    -0.00000000000000     0.00000000000000    -0.00000000000000     0.00000000000000
   27     0.00000000000000     0.00000000000000    -0.00000000000000    -0.00000000000000     0.00000000000000
   28    -0.00000000000000    -0.00000000000000     0.00000000000000    -0.00000000000000     0.00000000000000
   29    -0.00000000000000     0.00000000000000     0.00000000000000     0.00000000000000     0.00000000000000
   30     0.00000000000000     0.00000000000000     0.00000000000000    -0.00000000000000     0.00000000000000
   31     0.00000000000000     0.00000000000000     0.00000000000000     0.00000000000000    -0.00000000000000
   32     0.00000000000000     0.00000000000000    -0.00000000000000     0.00000000000000    -0.00000000000000
   33    -0.00000000000000     0.00000000000000     0.00000000000000     0.00000000000000    -0.00000000000000
   34    -0.00000000000000    -0.00000000000000     0.00000000000000    -0.00000000000000    -0.00000000000000

                11                  12                  13                  14                  15

    1    -0.00000000000000    -0.00000000000000     0.00000000000000    -0.00000000000000     0.00000000000000
    2     0.00000000000000    -0.00000000000000     0.00000000000000    -0.00000000000000     0.00000000000000
    3    -0.00000000000000     0.00000000000000    -0.00000000000000     0.00000000000000     0.00000000000000
    4    -0.00000000000000    -0.00000000000000    -0.00000000000000     0.00000000000000     0.00000000000000
    5    -0.00000000000000    -0.00000000000000    -0.00000000000000    -0.00000000000000     0.00000000000000
    6     0.00000000000000    -0.00000000000000    -0.00000000000000    -0.00000000000000     0.00000000000000
    7     0.00000000000000    -0.00000000000000     0.00000000000000     0.00000000000000     0.00000000000000
    8     0.00000000000000     0.00000000000000    -0.00000000000000    -0.00000000000000     0.00000000000000
    9     0.00603190255424     0.00286112559784     0.00640095717154    -0.00592925839923     0.00000000000000
   10    -0.11467814494164    -0.01110488264571     0.02513054833162    -0.05088825843689     0.00000000000000
   11     0.54695313532657     0.05193231696780     0.05257801040280     0.06525477940621     0.00000000000000
   12     0.05193231696780     0.52775135760100    -0.06198465623024     0.07518361981414     0.00000000000000
   13     0.05257801040280    -0.06198465623024     0.50453141135049    -0.00878533139022     0.00000000000000
   14     0.06525477940621     0.07518361981414    -0.00878533139022     0.66983631612063     0.00000000000000
   15     0.00000000000000     0.00000000000000     0.00000000000000     0.00000000000000     0.52312229433913
   16     0.00000000000000     0.00000000000000     0.00000000000000     0.00000000000000    -0.00000000000000
   17     0.00000000000000     0.00000000000000     0.00000000000000     0.00000000000000     0.00000000000000
   18     0.00000000000000     0.00000000000000     0.00000000000000     0.00000000000000     0.00000000000000
   19     0.00000000000000     0.00000000000000     0.00000000000000     0.00000000000000    -0.00000000000000
   20     0.00000000000000     0.00000000000000     0.00000000000000     0.00000000000000    -0.00000000000000
   21    -0.00000000000000     0.00000000000000    -0.00000000000000     0.00000000000000     0.00000000000000
   22    -0.00000000000000    -0.00000000000000    -0.00000000000000     0.00000000000000     0.00000000000000
   23    -0.00000000000000    -0.00000000000000    -0.00000000000000     0.00000000000000     0.00000000000000
   24     0.00000000000000     0.00000000000000     0.00000000000000    -0.00000000000000     0.00000000000000
   25     0.00000000000000     0.00000000000000     0.00000000000000    -0.00000000000000     0.00000000000000
   26    -0.00000000000000    -0.00000000000000    -0.00000000000000     0.00000000000000     0.00000000000000
   27    -0.00000000000000     0.00000000000000    -0.00000000000000    -0.00000000000000     0.00000000000000
   28     0.00000000000000    -0.00000000000000    -0.00000000000000     0.00000000000000     0.00000000000000
   29    -0.00000000000000     0.00000000000000     0.00000000000000     0.00000000000000     0.00000000000000
   30     0.00000000000000     0.00000000000000    -0.00000000000000     0.00000000000000     0.00000000000000
   31     0.00000000000000    -0.00000000000000    -0.00000000000000     0.00000000000000     0.00000000000000
   32     0.00000000000000     0.00000000000000    -0.00000000000000     0.00000000000000     0.00000000000000
   33     0.00000000000000    -0.00000000000000     0.00000000000000    -0.00000000000000     0.00000000000000
   34    -0.00000000000000     0.00000000000000     0.00000000000000     0.00000000000000     0.00000000000000

                16                  17                  18                  19                  20

    1     0.00000000000000     0.00000000000000     0.00000000000000     0.00000000000000     0.00000000000000
    2     0.00000000000000     0.00000000000000     0.00000000000000     0.00000000000000     0.00000000000000
    3     0.00000000000000     0.00000000000000     0.00000000000000     0.00000000000000     0.00000000000000
    4     0.00000000000000     0.00000000000000     0.00000000000000     0.00000000000000     0.00000000000000
    5     0.00000000000000     0.00000000000000     0.00000000000000     0.00000000000000     0.00000000000000
    6     0.00000000000000     0.00000000000000     0.00000000000000     0.00000000000000     0.00000000000000
    7     0.00000000000000     0.00000000000000     0.00000000000000     0.00000000000000     0.00000000000000
    8     0.00000000000000     0.00000000000000     0.00000000000000     0.00000000000000     0.00000000000000
    9     0.00000000000000     0.00000000000000     0.00000000000000     0.00000000000000     0.00000000000000
   10     0.00000000000000     0.00000000000000     0.00000000000000     0.00000000000000     0.00000000000000
   11     0.00000000000000     0.00000000000000     0.00000000000000     0.00000000000000     0.00000000000000
   12     0.00000000000000     0.00000000000000     0.00000000000000     0.00000000000000     0.00000000000000
   13     0.00000000000000     0.00000000000000     0.00000000000000     0.00000000000000     0.00000000000000
   14     0.00000000000000     0.00000000000000     0.00000000000000     0.00000000000000     0.00000000000000
   15    -0.00000000000000    -0.00000000000000     0.00000000000000    -0.00000000000000    -0.00000000000000
   16     0.63284409423239     0.10259523247596    -0.00000000000000    -0.00000000000000    -0.00000000000000
   17     0.10259523247596     0.63003487295327    -0.00000000000000     0.00000000000000     0.00000000000000
   18     0.00000000000000    -0.00000000000000     0.53021106225834     0.00000000000000     0.00000000000000
   19    -0.00000000000000     0.00000000000000     0.00000000000000     0.56265371590287    -0.08186916022816
   20    -0.00000000000000     0.00000000000000     0.00000000000000    -0.08186916022816     0.69214856706879
   21     0.00000000000000     0.00000000000000     0.00000000000000     0.00000000000000     0.00000000000000
   22     0.00000000000000     0.00000000000000     0.00000000000000     0.00000000000000     0.00000000000000
   23     0.00000000000000     0.00000000000000     0.00000000000000     0.00000000000000     0.00000000000000
   24     0.00000000000000     0.00000000000000     0.00000000000000     0.00000000000000     0.00000000000000
   25     0.00000000000000     0.00000000000000     0.00000000000000     0.00000000000000     0.00000000000000
   26     0.00000000000000     0.00000000000000     0.00000000000000     0.00000000000000     0.00000000000000
   27     0.00000000000000     0.00000000000000     0.00000000000000     0.00000000000000     0.00000000000000
   28     0.00000000000000     0.00000000000000     0.00000000000000     0.00000000000000     0.00000000000000
   29     0.00000000000000     0.00000000000000     0.00000000000000     0.00000000000000     0.00000000000000
   30     0.00000000000000     0.00000000000000     0.00000000000000     0.00000000000000     0.00000000000000
   31     0.00000000000000     0.00000000000000     0.00000000000000     0.00000000000000     0.00000000000000
   32     0.00000000000000     0.00000000000000     0.00000000000000     0.00000000000000     0.00000000000000
   33     0.00000000000000     0.00000000000000     0.00000000000000     0.00000000000000     0.00000000000000
   34     0.00000000000000     0.00000000000000     0.00000000000000     0.00000000000000     0.00000000000000

                21                  22                  23                  24                  25

    1    -0.00000000000000    -0.00000000000000    -0.00000000000000    -0.00000000000000    -0.00000000000000
    2    -0.00000000000000     0.00000000000000    -0.00000000000000     0.00000000000000     0.00000000000000
    3    -0.00000000000000    -0.00000000000000    -0.00000000000000     0.00000000000000     0.00000000000000
    4     0.00000000000000    -0.00000000000000    -0.00000000000000    -0.00000000000000     0.00000000000000
    5     0.00000000000000    -0.00000000000000    -0.00000000000000    -0.00000000000000     0.00000000000000
    6    -0.00000000000000    -0.00000000000000    -0.00000000000000     0.00000000000000     0.00000000000000
    7     0.00000000000000    -0.00000000000000    -0.00000000000000     0.00000000000000     0.00000000000000
    8    -0.00000000000000     0.00000000000000     0.00000000000000    -0.00000000000000    -0.00000000000000
    9     0.00000000000000     0.00000000000000     0.00000000000000     0.00000000000000     0.00000000000000
   10     0.00000000000000    -0.00000000000000    -0.00000000000000    -0.00000000000000    -0.00000000000000
   11     0.00000000000000     0.00000000000000    -0.00000000000000     0.00000000000000     0.00000000000000
   12     0.00000000000000    -0.00000000000000    -0.00000000000000     0.00000000000000     0.00000000000000
   13     0.00000000000000     0.00000000000000    -0.00000000000000     0.00000000000000     0.00000000000000
   14     0.00000000000000    -0.00000000000000     0.00000000000000    -0.00000000000000    -0.00000000000000
   15     0.00000000000000     0.00000000000000     0.00000000000000     0.00000000000000     0.00000000000000
   16     0.00000000000000     0.00000000000000     0.00000000000000     0.00000000000000     0.00000000000000
   17     0.00000000000000     0.00000000000000     0.00000000000000     0.00000000000000     0.00000000000000
   18     0.00000000000000     0.00000000000000     0.00000000000000     0.00000000000000     0.00000000000000
   19     0.00000000000000     0.00000000000000     0.00000000000000     0.00000000000000     0.00000000000000
   20     0.00000000000000     0.00000000000000     0.00000000000000     0.00000000000000     0.00000000000000
   21     0.57036588384621    -0.00100055382536    -0.00091333325945     0.00527865990749     0.00003673339665
   22    -0.00100055382536     0.96122687116683    -0.01799932467170     0.00940131390774    -0.00389467270459
   23    -0.00091333325945    -0.01799932467170     0.63963595275613    -0.07774998938765    -0.01763300234420
   24     0.00527865990749     0.00940131390774    -0.07774998938765     0.47385253227433    -0.01646827674550
   25     0.00003673339665    -0.00389467270459    -0.01763300234420    -0.01646827674550     0.47466504599483
   26    -0.00142152340232    -0.01190906052330     0.02705593555572    -0.07904187084893    -0.00646614059981
   27    -0.00513624736177     0.00268086166950    -0.00840951622881    -0.00146470559995     0.01068212749602
   28     0.00824183696185    -0.01561819206625     0.04418746788119    -0.00372268894977     0.02175305462547
   29    -0.00000000000000    -0.00000000000000    -0.00000000000000     0.00000000000000    -0.00000000000000
   30    -0.00000000000000     0.00000000000000     0.00000000000000    -0.00000000000000    -0.00000000000000
   31     0.00000000000000    -0.00000000000000     0.00000000000000    -0.00000000000000     0.00000000000000
   32     0.00000000000000     0.00000000000000     0.00000000000000    -0.00000000000000     0.00000000000000
   33     0.00000000000000     0.00000000000000     0.00000000000000     0.00000000000000     0.00000000000000
   34     0.00000000000000     0.00000000000000     0.00000000000000     0.00000000000000    -0.00000000000000

                26                  27                  28                  29                  30

    1     0.00000000000000     0.00000000000000     0.00000000000000    -0.00000000000000    -0.00000000000000
    2    -0.00000000000000     0.00000000000000    -0.00000000000000    -0.00000000000000     0.00000000000000
    3     0.00000000000000     0.00000000000000    -0.00000000000000    -0.00000000000000    -0.00000000000000
    4     0.00000000000000     0.00000000000000    -0.00000000000000     0.00000000000000     0.00000000000000
    5    -0.00000000000000     0.00000000000000    -0.00000000000000    -0.00000000000000     0.00000000000000
    6    -0.00000000000000     0.00000000000000    -0.00000000000000    -0.00000000000000     0.00000000000000
    7    -0.00000000000000     0.00000000000000    -0.00000000000000     0.00000000000000     0.00000000000000
    8     0.00000000000000    -0.00000000000000     0.00000000000000     0.00000000000000    -0.00000000000000
    9    -0.00000000000000    -0.00000000000000    -0.00000000000000     0.00000000000000    -0.00000000000000
   10    -0.00000000000000     0.00000000000000     0.00000000000000    -0.00000000000000     0.00000000000000
   11    -0.00000000000000    -0.00000000000000     0.00000000000000    -0.00000000000000    -0.00000000000000
   12    -0.00000000000000     0.00000000000000    -0.00000000000000    -0.00000000000000     0.00000000000000
   13    -0.00000000000000     0.00000000000000    -0.00000000000000     0.00000000000000    -0.00000000000000
   14     0.00000000000000    -0.00000000000000     0.00000000000000    -0.00000000000000    -0.00000000000000
   15     0.00000000000000     0.00000000000000     0.00000000000000     0.00000000000000     0.00000000000000
   16     0.00000000000000     0.00000000000000     0.00000000000000     0.00000000000000     0.00000000000000
   17     0.00000000000000     0.00000000000000     0.00000000000000     0.00000000000000     0.00000000000000
   18     0.00000000000000     0.00000000000000     0.00000000000000     0.00000000000000     0.00000000000000
   19     0.00000000000000     0.00000000000000     0.00000000000000     0.00000000000000     0.00000000000000
   20     0.00000000000000     0.00000000000000     0.00000000000000     0.00000000000000     0.00000000000000
   21    -0.00142152340232    -0.00513624736177     0.00824183696185    -0.00000000000000    -0.00000000000000
   22    -0.01190906052330     0.00268086166950    -0.01561819206625    -0.00000000000000     0.00000000000000
   23     0.02705593555572    -0.00840951622881     0.04418746788119    -0.00000000000000    -0.00000000000000
   24    -0.07904187084893    -0.00146470559995    -0.00372268894977    -0.00000000000000    -0.00000000000000
   25    -0.00646614059981     0.01068212749602     0.02175305462547    -0.00000000000000    -0.00000000000000
   26     0.51506388625397    -0.04555478158401     0.08593803606015     0.00000000000000     0.00000000000000
   27    -0.04555478158401     0.52317290094585     0.01492543376597     0.00000000000000     0.00000000000000
   28     0.08593803606015     0.01492543376597     0.61793439409269    -0.00000000000000     0.00000000000000
   29     0.00000000000000    -0.00000000000000    -0.00000000000000     0.57034393688988     0.00176897996403
   30     0.00000000000000     0.00000000000000     0.00000000000000     0.00176897996403     0.53366126687001
   31    -0.00000000000000    -0.00000000000000     0.00000000000000     0.00629676627048    -0.09111162598806
   32     0.00000000000000    -0.00000000000000     0.00000000000000    -0.00043571637643     0.00807137590483
   33    -0.00000000000000    -0.00000000000000    -0.00000000000000    -0.00719749622469    -0.01220866933996
   34     0.00000000000000     0.00000000000000     0.00000000000000    -0.00236604722361    -0.02228883468699

                31                  32                  33                  34

    1     0.00000000000000    -0.00000000000000     0.00000000000000    -0.00000000000000
    2     0.00000000000000     0.00000000000000    -0.00000000000000    -0.00000000000000
    3     0.00000000000000     0.00000000000000     0.00000000000000     0.00000000000000
    4     0.00000000000000    -0.00000000000000    -0.00000000000000    -0.00000000000000
    5    -0.00000000000000    -0.00000000000000    -0.00000000000000     0.00000000000000
    6     0.00000000000000     0.00000000000000    -0.00000000000000    -0.00000000000000
    7     0.00000000000000     0.00000000000000     0.00000000000000    -0.00000000000000
    8     0.00000000000000    -0.00000000000000     0.00000000000000     0.00000000000000
    9    -0.00000000000000     0.00000000000000    -0.00000000000000     0.00000000000000
   10    -0.00000000000000    -0.00000000000000    -0.00000000000000     0.00000000000000
   11    -0.00000000000000     0.00000000000000     0.00000000000000    -0.00000000000000
   12     0.00000000000000     0.00000000000000    -0.00000000000000     0.00000000000000
   13    -0.00000000000000    -0.00000000000000     0.00000000000000     0.00000000000000
   14     0.00000000000000    -0.00000000000000    -0.00000000000000    -0.00000000000000
   15     0.00000000000000     0.00000000000000     0.00000000000000     0.00000000000000
   16     0.00000000000000     0.00000000000000     0.00000000000000     0.00000000000000
   17     0.00000000000000     0.00000000000000     0.00000000000000     0.00000000000000
   18     0.00000000000000     0.00000000000000     0.00000000000000     0.00000000000000
   19     0.00000000000000     0.00000000000000     0.00000000000000     0.00000000000000
   20     0.00000000000000     0.00000000000000     0.00000000000000     0.00000000000000
   21     0.00000000000000     0.00000000000000     0.00000000000000    -0.00000000000000
   22    -0.00000000000000     0.00000000000000    -0.00000000000000     0.00000000000000
   23     0.00000000000000     0.00000000000000    -0.00000000000000    -0.00000000000000
   24    -0.00000000000000    -0.00000000000000     0.00000000000000     0.00000000000000
   25     0.00000000000000     0.00000000000000     0.00000000000000    -0.00000000000000
   26    -0.00000000000000     0.00000000000000    -0.00000000000000     0.00000000000000
   27    -0.00000000000000    -0.00000000000000    -0.00000000000000     0.00000000000000
   28     0.00000000000000     0.00000000000000    -0.00000000000000     0.00000000000000
   29     0.00629676627048    -0.00043571637643    -0.00719749622469    -0.00236604722361
   30    -0.09111162598806     0.00807137590483    -0.01220866933996    -0.02228883468699
   31     0.57027608536330     0.05497428985297    -0.02474223039987     0.08641439625040
   32     0.05497428985297     0.52654332641771     0.07180330234359     0.04100674625274
   33    -0.02474223039987     0.07180330234359     0.46264108116239     0.06326864404571
   34     0.08641439625040     0.04100674625274     0.06326864404571     0.68706046638123



  ## F_act (Symmetry 0) ##
  Irrep: 1 Size: 28 x 28

                 1                   2                   3                   4                   5

    1     0.60923904378973     0.08371924077906     0.00230573107494     0.00401236366360     0.01804752131577
    2     0.08371924077906     0.51528686330756     0.04598702752866    -0.01343292408488     0.05880864376117
    3     0.00230573107494     0.04598702752866     0.53986202701295     0.04316493707987    -0.03221121006635
    4     0.00401236366360    -0.01343292408488     0.04316493707987     0.50488150053339     0.03479304235074
    5     0.01804752131577     0.05880864376117    -0.03221121006635     0.03479304235074     0.49176010200848
    6    -0.03247899752025    -0.03778252808159    -0.04032114689528     0.03903571687322    -0.08235048556428
    7     0.00000000000000     0.00000000000000     0.00000000000000     0.00000000000000     0.00000000000000
    8     0.00000000000000     0.00000000000000     0.00000000000000     0.00000000000000     0.00000000000000
    9     0.00000000000000     0.00000000000000     0.00000000000000     0.00000000000000     0.00000000000000
   10     0.00000000000000     0.00000000000000     0.00000000000000     0.00000000000000     0.00000000000000
   11     0.00000000000000     0.00000000000000     0.00000000000000     0.00000000000000     0.00000000000000
   12     0.00000000000000     0.00000000000000     0.00000000000000     0.00000000000000     0.00000000000000
   13     0.00000000000000     0.00000000000000     0.00000000000000     0.00000000000000     0.00000000000000
   14     0.00000000000000     0.00000000000000     0.00000000000000     0.00000000000000     0.00000000000000
   15     0.00000000000000     0.00000000000000     0.00000000000000     0.00000000000000     0.00000000000000
   16     0.00000000000000     0.00000000000000     0.00000000000000     0.00000000000000     0.00000000000000
   17     0.00000000000000     0.00000000000000     0.00000000000000     0.00000000000000     0.00000000000000
   18     0.00000000000000     0.00000000000000     0.00000000000000     0.00000000000000     0.00000000000000
   19     0.00000000000000     0.00000000000000     0.00000000000000     0.00000000000000     0.00000000000000
   20     0.00000000000000     0.00000000000000     0.00000000000000     0.00000000000000     0.00000000000000
   21     0.00000000000000     0.00000000000000     0.00000000000000     0.00000000000000     0.00000000000000
   22     0.00000000000000     0.00000000000000     0.00000000000000     0.00000000000000     0.00000000000000
   23     0.00000000000000     0.00000000000000     0.00000000000000     0.00000000000000     0.00000000000000
   24     0.00000000000000     0.00000000000000     0.00000000000000     0.00000000000000     0.00000000000000
   25     0.00000000000000     0.00000000000000     0.00000000000000     0.00000000000000     0.00000000000000
   26     0.00000000000000     0.00000000000000     0.00000000000000     0.00000000000000     0.00000000000000
   27     0.00000000000000     0.00000000000000     0.00000000000000     0.00000000000000     0.00000000000000
   28     0.00000000000000     0.00000000000000     0.00000000000000     0.00000000000000     0.00000000000000

                 6                   7                   8                   9                  10

    1    -0.03247899752025     0.00000000000000     0.00000000000000     0.00000000000000     0.00000000000000
    2    -0.03778252808159     0.00000000000000     0.00000000000000     0.00000000000000     0.00000000000000
    3    -0.04032114689528     0.00000000000000     0.00000000000000     0.00000000000000     0.00000000000000
    4     0.03903571687322     0.00000000000000     0.00000000000000     0.00000000000000     0.00000000000000
    5    -0.08235048556428     0.00000000000000     0.00000000000000     0.00000000000000     0.00000000000000
    6     0.62185029826308     0.00000000000000     0.00000000000000     0.00000000000000     0.00000000000000
    7     0.00000000000000     0.55347194199885    -0.11467814494164    -0.01110488264571     0.02513054833162
    8     0.00000000000000    -0.11467814494164     0.54695313532657     0.05193231696780     0.05257801040280
    9     0.00000000000000    -0.01110488264571     0.05193231696780     0.52775135760100    -0.06198465623024
   10     0.00000000000000     0.02513054833162     0.05257801040280    -0.06198465623024     0.50453141135049
   11     0.00000000000000    -0.05088825843689     0.06525477940621     0.07518361981414    -0.00878533139022
   12     0.00000000000000     0.00000000000000     0.00000000000000     0.00000000000000     0.00000000000000
   13     0.00000000000000     0.00000000000000     0.00000000000000     0.00000000000000     0.00000000000000
   14     0.00000000000000     0.00000000000000     0.00000000000000     0.00000000000000     0.00000000000000
   15     0.00000000000000     0.00000000000000     0.00000000000000     0.00000000000000     0.00000000000000
   16     0.00000000000000     0.00000000000000     0.00000000000000     0.00000000000000     0.00000000000000
   17     0.00000000000000     0.00000000000000     0.00000000000000     0.00000000000000     0.00000000000000
   18     0.00000000000000     0.00000000000000     0.00000000000000     0.00000000000000     0.00000000000000
   19     0.00000000000000     0.00000000000000     0.00000000000000     0.00000000000000     0.00000000000000
   20     0.00000000000000     0.00000000000000     0.00000000000000     0.00000000000000     0.00000000000000
   21     0.00000000000000     0.00000000000000     0.00000000000000     0.00000000000000     0.00000000000000
   22     0.00000000000000     0.00000000000000     0.00000000000000     0.00000000000000     0.00000000000000
   23     0.00000000000000     0.00000000000000     0.00000000000000     0.00000000000000     0.00000000000000
   24     0.00000000000000     0.00000000000000     0.00000000000000     0.00000000000000     0.00000000000000
   25     0.00000000000000     0.00000000000000     0.00000000000000     0.00000000000000     0.00000000000000
   26     0.00000000000000     0.00000000000000     0.00000000000000     0.00000000000000     0.00000000000000
   27     0.00000000000000     0.00000000000000     0.00000000000000     0.00000000000000     0.00000000000000
   28     0.00000000000000     0.00000000000000     0.00000000000000     0.00000000000000     0.00000000000000

                11                  12                  13                  14                  15

    1     0.00000000000000     0.00000000000000     0.00000000000000     0.00000000000000     0.00000000000000
    2     0.00000000000000     0.00000000000000     0.00000000000000     0.00000000000000     0.00000000000000
    3     0.00000000000000     0.00000000000000     0.00000000000000     0.00000000000000     0.00000000000000
    4     0.00000000000000     0.00000000000000     0.00000000000000     0.00000000000000     0.00000000000000
    5     0.00000000000000     0.00000000000000     0.00000000000000     0.00000000000000     0.00000000000000
    6     0.00000000000000     0.00000000000000     0.00000000000000     0.00000000000000     0.00000000000000
    7    -0.05088825843689     0.00000000000000     0.00000000000000     0.00000000000000     0.00000000000000
    8     0.06525477940621     0.00000000000000     0.00000000000000     0.00000000000000     0.00000000000000
    9     0.07518361981414     0.00000000000000     0.00000000000000     0.00000000000000     0.00000000000000
   10    -0.00878533139022     0.00000000000000     0.00000000000000     0.00000000000000     0.00000000000000
   11     0.66983631612063     0.00000000000000     0.00000000000000     0.00000000000000     0.00000000000000
   12     0.00000000000000     0.52312229433913     0.00000000000000     0.00000000000000     0.00000000000000
   13     0.00000000000000     0.00000000000000     0.63284409423239     0.10259523247596     0.00000000000000
   14     0.00000000000000     0.00000000000000     0.10259523247596     0.63003487295327     0.00000000000000
   15     0.00000000000000     0.00000000000000     0.00000000000000     0.00000000000000     0.53021106225834
   16     0.00000000000000     0.00000000000000     0.00000000000000     0.00000000000000     0.00000000000000
   17     0.00000000000000     0.00000000000000     0.00000000000000     0.00000000000000     0.00000000000000
   18     0.00000000000000     0.00000000000000     0.00000000000000     0.00000000000000     0.00000000000000
   19     0.00000000000000     0.00000000000000     0.00000000000000     0.00000000000000     0.00000000000000
   20     0.00000000000000     0.00000000000000     0.00000000000000     0.00000000000000     0.00000000000000
   21     0.00000000000000     0.00000000000000     0.00000000000000     0.00000000000000     0.00000000000000
   22     0.00000000000000     0.00000000000000     0.00000000000000     0.00000000000000     0.00000000000000
   23     0.00000000000000     0.00000000000000     0.00000000000000     0.00000000000000     0.00000000000000
   24     0.00000000000000     0.00000000000000     0.00000000000000     0.00000000000000     0.00000000000000
   25     0.00000000000000     0.00000000000000     0.00000000000000     0.00000000000000     0.00000000000000
   26     0.00000000000000     0.00000000000000     0.00000000000000     0.00000000000000     0.00000000000000
   27     0.00000000000000     0.00000000000000     0.00000000000000     0.00000000000000     0.00000000000000
   28     0.00000000000000     0.00000000000000     0.00000000000000     0.00000000000000     0.00000000000000

                16                  17                  18                  19                  20

    1     0.00000000000000     0.00000000000000     0.00000000000000     0.00000000000000     0.00000000000000
    2     0.00000000000000     0.00000000000000     0.00000000000000     0.00000000000000     0.00000000000000
    3     0.00000000000000     0.00000000000000     0.00000000000000     0.00000000000000     0.00000000000000
    4     0.00000000000000     0.00000000000000     0.00000000000000     0.00000000000000     0.00000000000000
    5     0.00000000000000     0.00000000000000     0.00000000000000     0.00000000000000     0.00000000000000
    6     0.00000000000000     0.00000000000000     0.00000000000000     0.00000000000000     0.00000000000000
    7     0.00000000000000     0.00000000000000     0.00000000000000     0.00000000000000     0.00000000000000
    8     0.00000000000000     0.00000000000000     0.00000000000000     0.00000000000000     0.00000000000000
    9     0.00000000000000     0.00000000000000     0.00000000000000     0.00000000000000     0.00000000000000
   10     0.00000000000000     0.00000000000000     0.00000000000000     0.00000000000000     0.00000000000000
   11     0.00000000000000     0.00000000000000     0.00000000000000     0.00000000000000     0.00000000000000
   12     0.00000000000000     0.00000000000000     0.00000000000000     0.00000000000000     0.00000000000000
   13     0.00000000000000     0.00000000000000     0.00000000000000     0.00000000000000     0.00000000000000
   14     0.00000000000000     0.00000000000000     0.00000000000000     0.00000000000000     0.00000000000000
   15     0.00000000000000     0.00000000000000     0.00000000000000     0.00000000000000     0.00000000000000
   16     0.56265371590287    -0.08186916022816     0.00000000000000     0.00000000000000     0.00000000000000
   17    -0.08186916022816     0.69214856706879     0.00000000000000     0.00000000000000     0.00000000000000
   18     0.00000000000000     0.00000000000000     0.63963595275613    -0.07774998938765    -0.01763300234420
   19     0.00000000000000     0.00000000000000    -0.07774998938765     0.47385253227433    -0.01646827674550
   20     0.00000000000000     0.00000000000000    -0.01763300234420    -0.01646827674550     0.47466504599483
   21     0.00000000000000     0.00000000000000     0.02705593555572    -0.07904187084893    -0.00646614059981
   22     0.00000000000000     0.00000000000000    -0.00840951622881    -0.00146470559995     0.01068212749602
   23     0.00000000000000     0.00000000000000     0.04418746788119    -0.00372268894977     0.02175305462547
   24     0.00000000000000     0.00000000000000     0.00000000000000     0.00000000000000     0.00000000000000
   25     0.00000000000000     0.00000000000000     0.00000000000000     0.00000000000000     0.00000000000000
   26     0.00000000000000     0.00000000000000     0.00000000000000     0.00000000000000     0.00000000000000
   27     0.00000000000000     0.00000000000000     0.00000000000000     0.00000000000000     0.00000000000000
   28     0.00000000000000     0.00000000000000     0.00000000000000     0.00000000000000     0.00000000000000

                21                  22                  23                  24                  25

    1     0.00000000000000     0.00000000000000     0.00000000000000     0.00000000000000     0.00000000000000
    2     0.00000000000000     0.00000000000000     0.00000000000000     0.00000000000000     0.00000000000000
    3     0.00000000000000     0.00000000000000     0.00000000000000     0.00000000000000     0.00000000000000
[...]
   17     0.00000000000000     0.00000000000000     0.00000000000000     0.00000000000000     0.00000000000000
   18     0.00000000000000     0.00000000000000     0.00000000000000     0.00000000000000     0.00000000000000
   19     0.00000000000000     0.00000000000000     0.00000000000000     0.00000000000000     0.00000000000000
   20     0.00000000000000     0.00000000000000     0.00000000000000     0.00000000000000     0.00000000000000
   21     0.00000000000000     0.00000000000000     0.00000000000000     0.00000000000000     0.00000000000000
   22     0.00000000000000     0.00000000000000     0.00000000000000     0.00000000000000     0.00000000000000
   23     0.00000000000000     0.00000000000000     0.00000000000000     0.00000000000000     0.00000000000000
   24     0.00000000000000     0.00000000000000     0.00000000000000     0.00000000000000     0.00000000000000
   25     0.00000000000000     0.00000000000000     0.00000000000000     0.00000000000000     0.00000000000000
   26     0.00000000000000     0.00000000000000     0.00000000000000     0.00000000000000     0.00000000000000
   27     0.00000000000000     0.00000000000000     0.00000000000000     0.00000000000000     0.00000000000000
   28     0.00000000000000     0.00000000000000     0.00000000000000     0.00000000000000     0.00000000000000

                 6                   7                   8                   9                  10

    1    -0.00000074922046     0.00000000000000     0.00000000000000     0.00000000000000     0.00000000000000
    2    -0.00000253422422     0.00000000000000     0.00000000000000     0.00000000000000     0.00000000000000
    3    -0.00000409093435     0.00000000000000     0.00000000000000     0.00000000000000     0.00000000000000
    4     0.00000351494723     0.00000000000000     0.00000000000000     0.00000000000000     0.00000000000000
    5     0.00000000000000     0.00000000000000     0.00000000000000     0.00000000000000     0.00000000000000
    6     0.00000000000000     0.00000000000000     0.00000000000000     0.00000000000000     0.00000000000000
    7     0.00000000000000     0.00000000000000     0.00000000000000     0.00000004095626     0.00000016334903
    8     0.00000000000000     0.00000000000000     0.00000000000000     0.00000097966498    -0.00000022006662
    9     0.00000000000000     0.00000000000000     0.00000000000000     0.00000000000000     0.00000000000000
   10     0.00000000000000     0.00000000000000     0.00000000000000     0.00000000000000     0.00000000000000
   11     0.00000000000000     0.00000000000000     0.00000000000000     0.00000000000000     0.00000000000000
   12     0.00000000000000     0.00000000000000     0.00000000000000     0.00000000000000     0.00000000000000
   13     0.00000000000000     0.00000000000000     0.00000000000000     0.00000000000000     0.00000000000000
   14     0.00000000000000     0.00000000000000     0.00000000000000     0.00000000000000     0.00000000000000
   15     0.00000000000000     0.00000000000000     0.00000000000000     0.00000000000000     0.00000000000000
   16     0.00000000000000     0.00000000000000     0.00000000000000     0.00000000000000     0.00000000000000
   17     0.00000000000000     0.00000000000000     0.00000000000000     0.00000000000000     0.00000000000000
   18     0.00000000000000     0.00000000000000     0.00000000000000     0.00000000000000     0.00000000000000
   19     0.00000000000000     0.00000000000000     0.00000000000000     0.00000000000000     0.00000000000000
   20     0.00000000000000     0.00000000000000     0.00000000000000     0.00000000000000     0.00000000000000
   21     0.00000000000000     0.00000000000000     0.00000000000000     0.00000000000000     0.00000000000000
   22     0.00000000000000     0.00000000000000     0.00000000000000     0.00000000000000     0.00000000000000
   23     0.00000000000000     0.00000000000000     0.00000000000000     0.00000000000000     0.00000000000000
   24     0.00000000000000     0.00000000000000     0.00000000000000     0.00000000000000     0.00000000000000
   25     0.00000000000000     0.00000000000000     0.00000000000000     0.00000000000000     0.00000000000000
   26     0.00000000000000     0.00000000000000     0.00000000000000     0.00000000000000     0.00000000000000
   27     0.00000000000000     0.00000000000000     0.00000000000000     0.00000000000000     0.00000000000000
   28     0.00000000000000     0.00000000000000     0.00000000000000     0.00000000000000     0.00000000000000

                11                  12                  13                  14                  15

    1     0.00000000000000     0.00000000000000     0.00000000000000     0.00000000000000     0.00000000000000
    2     0.00000000000000     0.00000000000000     0.00000000000000     0.00000000000000     0.00000000000000
    3     0.00000000000000     0.00000000000000     0.00000000000000     0.00000000000000     0.00000000000000
    4     0.00000000000000     0.00000000000000     0.00000000000000     0.00000000000000     0.00000000000000
    5     0.00000000000000     0.00000000000000     0.00000000000000     0.00000000000000     0.00000000000000
    6     0.00000000000000     0.00000000000000     0.00000000000000     0.00000000000000     0.00000000000000
    7    -0.00000205842835     0.00000000000000     0.00000000000000     0.00000000000000     0.00000000000000
    8     0.00000129143218     0.00000000000000     0.00000000000000     0.00000000000000     0.00000000000000
    9     0.00000000000000     0.00000000000000     0.00000000000000     0.00000000000000     0.00000000000000
   10     0.00000000000000     0.00000000000000     0.00000000000000     0.00000000000000     0.00000000000000
   11     0.00000000000000     0.00000000000000     0.00000000000000     0.00000000000000     0.00000000000000
   12     0.00000000000000     0.00000000000000     0.00000000000000     0.00000000000000     0.00000000000000
   13     0.00000000000000     0.00000000000000     0.00000000000000    -0.00000591501201     0.00000000000000
   14     0.00000000000000     0.00000000000000     0.00000000000000     0.00000000000000     0.00000000000000
   15     0.00000000000000     0.00000000000000     0.00000000000000     0.00000000000000     0.00000000000000
   16     0.00000000000000     0.00000000000000     0.00000000000000     0.00000000000000     0.00000000000000
   17     0.00000000000000     0.00000000000000     0.00000000000000     0.00000000000000     0.00000000000000
   18     0.00000000000000     0.00000000000000     0.00000000000000     0.00000000000000     0.00000000000000
   19     0.00000000000000     0.00000000000000     0.00000000000000     0.00000000000000     0.00000000000000
   20     0.00000000000000     0.00000000000000     0.00000000000000     0.00000000000000     0.00000000000000
   21     0.00000000000000     0.00000000000000     0.00000000000000     0.00000000000000     0.00000000000000
   22     0.00000000000000     0.00000000000000     0.00000000000000     0.00000000000000     0.00000000000000
   23     0.00000000000000     0.00000000000000     0.00000000000000     0.00000000000000     0.00000000000000
   24     0.00000000000000     0.00000000000000     0.00000000000000     0.00000000000000     0.00000000000000
   25     0.00000000000000     0.00000000000000     0.00000000000000     0.00000000000000     0.00000000000000
   26     0.00000000000000     0.00000000000000     0.00000000000000     0.00000000000000     0.00000000000000
   27     0.00000000000000     0.00000000000000     0.00000000000000     0.00000000000000     0.00000000000000
   28     0.00000000000000     0.00000000000000     0.00000000000000     0.00000000000000     0.00000000000000

                16                  17                  18                  19                  20

    1     0.00000000000000     0.00000000000000     0.00000000000000     0.00000000000000     0.00000000000000
    2     0.00000000000000     0.00000000000000     0.00000000000000     0.00000000000000     0.00000000000000
    3     0.00000000000000     0.00000000000000     0.00000000000000     0.00000000000000     0.00000000000000
    4     0.00000000000000     0.00000000000000     0.00000000000000     0.00000000000000     0.00000000000000
    5     0.00000000000000     0.00000000000000     0.00000000000000     0.00000000000000     0.00000000000000
    6     0.00000000000000     0.00000000000000     0.00000000000000     0.00000000000000     0.00000000000000
    7     0.00000000000000     0.00000000000000     0.00000000000000     0.00000000000000     0.00000000000000
    8     0.00000000000000     0.00000000000000     0.00000000000000     0.00000000000000     0.00000000000000
    9     0.00000000000000     0.00000000000000     0.00000000000000     0.00000000000000     0.00000000000000
   10     0.00000000000000     0.00000000000000     0.00000000000000     0.00000000000000     0.00000000000000
   11     0.00000000000000     0.00000000000000     0.00000000000000     0.00000000000000     0.00000000000000
   12     0.00000000000000     0.00000000000000     0.00000000000000     0.00000000000000     0.00000000000000
   13     0.00000000000000     0.00000000000000     0.00000000000000     0.00000000000000     0.00000000000000
   14     0.00000000000000     0.00000000000000     0.00000000000000     0.00000000000000     0.00000000000000
   15     0.00000000000000     0.00000000000000     0.00000000000000     0.00000000000000     0.00000000000000
   16     0.00000000000000     0.00000606639780     0.00000000000000     0.00000000000000     0.00000000000000
   17     0.00000000000000     0.00000000000000     0.00000000000000     0.00000000000000     0.00000000000000
   18     0.00000000000000     0.00000000000000     0.00000000000000     0.00000000000000    -0.00000411622180
   19     0.00000000000000     0.00000000000000     0.00000000000000     0.00000000000000     0.00000160838403
   20     0.00000000000000     0.00000000000000     0.00000000000000     0.00000000000000     0.00000000000000
   21     0.00000000000000     0.00000000000000     0.00000000000000     0.00000000000000     0.00000000000000
   22     0.00000000000000     0.00000000000000     0.00000000000000     0.00000000000000     0.00000000000000
   23     0.00000000000000     0.00000000000000     0.00000000000000     0.00000000000000     0.00000000000000
   24     0.00000000000000     0.00000000000000     0.00000000000000     0.00000000000000     0.00000000000000
   25     0.00000000000000     0.00000000000000     0.00000000000000     0.00000000000000     0.00000000000000
   26     0.00000000000000     0.00000000000000     0.00000000000000     0.00000000000000     0.00000000000000
   27     0.00000000000000     0.00000000000000     0.00000000000000     0.00000000000000     0.00000000000000
   28     0.00000000000000     0.00000000000000     0.00000000000000     0.00000000000000     0.00000000000000

                21                  22                  23                  24                  25

    1     0.00000000000000     0.00000000000000     0.00000000000000     0.00000000000000     0.00000000000000
    2     0.00000000000000     0.00000000000000     0.00000000000000     0.00000000000000     0.00000000000000
    3     0.00000000000000     0.00000000000000     0.00000000000000     0.00000000000000     0.00000000000000
    4     0.00000000000000     0.00000000000000     0.00000000000000     0.00000000000000     0.00000000000000
    5     0.00000000000000     0.00000000000000     0.00000000000000     0.00000000000000     0.00000000000000
    6     0.00000000000000     0.00000000000000     0.00000000000000     0.00000000000000     0.00000000000000
    7     0.00000000000000     0.00000000000000     0.00000000000000     0.00000000000000     0.00000000000000
    8     0.00000000000000     0.00000000000000     0.00000000000000     0.00000000000000     0.00000000000000
    9     0.00000000000000     0.00000000000000     0.00000000000000     0.00000000000000     0.00000000000000
   10     0.00000000000000     0.00000000000000     0.00000000000000     0.00000000000000     0.00000000000000
   11     0.00000000000000     0.00000000000000     0.00000000000000     0.00000000000000     0.00000000000000
   12     0.00000000000000     0.00000000000000     0.00000000000000     0.00000000000000     0.00000000000000
   13     0.00000000000000     0.00000000000000     0.00000000000000     0.00000000000000     0.00000000000000
   14     0.00000000000000     0.00000000000000     0.00000000000000     0.00000000000000     0.00000000000000
   15     0.00000000000000     0.00000000000000     0.00000000000000     0.00000000000000     0.00000000000000
   16     0.00000000000000     0.00000000000000     0.00000000000000     0.00000000000000     0.00000000000000
   17     0.00000000000000     0.00000000000000     0.00000000000000     0.00000000000000     0.00000000000000
   18     0.00000129963262    -0.00000120344246     0.00000164849279     0.00000000000000     0.00000000000000
   19    -0.00000055546047    -0.00000072540823    -0.00000072979494     0.00000000000000     0.00000000000000
   20     0.00000279594797    -0.00000264027715     0.00000066393546     0.00000000000000     0.00000000000000
   21     0.00000000000000     0.00000000000000     0.00000000000000     0.00000000000000     0.00000000000000
   22     0.00000000000000     0.00000000000000     0.00000000000000     0.00000000000000     0.00000000000000
   23     0.00000000000000     0.00000000000000     0.00000000000000     0.00000000000000     0.00000000000000
   24     0.00000000000000     0.00000000000000     0.00000000000000     0.00000000000000     0.00000000000000
   25     0.00000000000000     0.00000000000000     0.00000000000000     0.00000000000000     0.00000000000000
   26     0.00000000000000     0.00000000000000     0.00000000000000     0.00000000000000     0.00000000000000
   27     0.00000000000000     0.00000000000000     0.00000000000000     0.00000000000000     0.00000000000000
   28     0.00000000000000     0.00000000000000     0.00000000000000     0.00000000000000     0.00000000000000

                26                  27                  28

    1     0.00000000000000     0.00000000000000     0.00000000000000
    2     0.00000000000000     0.00000000000000     0.00000000000000
    3     0.00000000000000     0.00000000000000     0.00000000000000
    4     0.00000000000000     0.00000000000000     0.00000000000000
    5     0.00000000000000     0.00000000000000     0.00000000000000
    6     0.00000000000000     0.00000000000000     0.00000000000000
    7     0.00000000000000     0.00000000000000     0.00000000000000
    8     0.00000000000000     0.00000000000000     0.00000000000000
    9     0.00000000000000     0.00000000000000     0.00000000000000
   10     0.00000000000000     0.00000000000000     0.00000000000000
   11     0.00000000000000     0.00000000000000     0.00000000000000
   12     0.00000000000000     0.00000000000000     0.00000000000000
   13     0.00000000000000     0.00000000000000     0.00000000000000
   14     0.00000000000000     0.00000000000000     0.00000000000000
   15     0.00000000000000     0.00000000000000     0.00000000000000
   16     0.00000000000000     0.00000000000000     0.00000000000000
   17     0.00000000000000     0.00000000000000     0.00000000000000
   18     0.00000000000000     0.00000000000000     0.00000000000000
   19     0.00000000000000     0.00000000000000     0.00000000000000
   20     0.00000000000000     0.00000000000000     0.00000000000000
   21     0.00000000000000     0.00000000000000     0.00000000000000
   22     0.00000000000000     0.00000000000000     0.00000000000000
   23     0.00000000000000     0.00000000000000     0.00000000000000
   24     0.00000000000000     0.00000038123820    -0.00000029017207
   25     0.00000000000000     0.00000079079612     0.00000204296134
   26     0.00000000000000     0.00000197559696     0.00000226816280
   27     0.00000000000000     0.00000000000000     0.00000000000000
   28     0.00000000000000     0.00000000000000     0.00000000000000




 iter    g_norm      E_CASSCF
 0  0.021356959931   -226.515924713423
 1  0.008516441707   -226.565092473103
 2  0.003516537565   -226.573124384385
 3  0.001568573626   -226.574626759415
 4  0.000648815076   -226.574930675487
 5  0.000316199186   -226.574996894564
 6  0.000139140812   -226.575012107582
 7  0.000071209191   -226.575015750578
 8  0.000033269566   -226.575016646729
 9  0.000017225119   -226.575016871109
 10  0.000008358083   -226.575016927901
 11  0.000004313190   -226.575016942372
 12  0.000002136316   -226.575016946074
 13  0.000001096258   -226.575016947023
 14  0.000000548887   -226.575016947267	Presorting SO-basis two-electron integrals.
	Sorting File: SO Ints (nn|nn) nbuckets = 1
	Transforming the one-electron integrals and constructing Fock matrices
	Starting first half-transformation.
	Sorting half-transformed integrals.
	First half integral transformation complete.
	Starting second half-transformation.
	Two-electron integral transformation complete.

  Integral transformation done. 0.03651100 s
  Reading the two-electron integrals from disk
  Size of two-electron integrals:   0.029869 GB
  Frozen-core energy           -287.156093335707 a.u.

 FrozenOneBody Operator takes  0.60904400 s
  Resorting integrals after freezing core.
 Frozen Orbitals takes 0.64624700 s

                -----------------------------------------------
                  String-based Full Configuration Interaction
                          by Francesco A. Evangelista
                -----------------------------------------------

  Number of electrons: 40
  Charge: 0
  Multiplicity: 1
  Davidson subspace max dim: 8
  Davidson subspace min dim: 2
  M_s: 0

  ==> String Lists <==

  Number of alpha electrons     = 1
  Number of beta electrons      = 1
  Number of alpha strings       = 2
  Number of beta strings        = 2
  Timing for strings        =      0.000 s
  Timing for NN strings     =      0.000 s
  Timing for VO strings     =      0.000 s
  Timing for OO strings     =      0.000 s
  Timing for Knowles-Handy  =      0.000 s
  Timing for VVOO strings   =      0.000 s
  Timing for VOVO strings   =      0.000 s
  Timing for 1-hole strings =      0.000 s
  Timing for 2-hole strings =      0.000 s
  Timing for 3-hole strings =      0.000 s
  Total timing              =      0.000 s

  ==> FCI Solver <==

    Number of determinants                           2
    Symmetry                                         0
    Multiplicity                                     1
    Number of roots                                  1
    Target root                                      0
    Trial vectors per root                          10
Calling ints, mospace, Ative Contruct
 scalar_energy_ = -124.48937087
  Allocating memory for the Hamiltonian algorithm. Size: 2 x 1 x 1.   Memory: 0.000000 GB

  Determinant space is spin complete.

  ==> FCI Initial Guess <==

  ---------------------------------------------
    Root            Energy     <S^2>   Spin
  ---------------------------------------------
      0     -226.605618160917  0.000  singlet
      1     -226.172705052529  0.000  singlet
  ---------------------------------------------
  Timing for initial guess  =      0.000 s

  ==> Diagonalizing Hamiltonian <==

  ----------------------------------------
    Iter.      Avg. Energy       Delta_E
  ----------------------------------------
      1     -226.575016947267  -2.266e+02
      2     -226.575016947267  +0.000e+00
  ----------------------------------------
  The Davidson-Liu algorithm converged in 3 iterations.

  ==> Root No. 0 <==

    0 2     -0.77475120
    2 0      0.63226623

    Total Energy:      -226.575016947266619

  ==> RDMs for Root No. 0 <==

  Your calculation took 56.91161200 seconds

*** PSI4 exiting successfully. Buy a developer a beer!
