
    -----------------------------------------------------------------------
          Psi4: An Open-Source Ab Initio Electronic Structure Package
                               Psi4 1.2a1.dev704 

                         Git: Rev {master} a7fc050 


    R. M. Parrish, L. A. Burns, D. G. A. Smith, A. C. Simmonett,
    A. E. DePrince III, E. G. Hohenstein, U. Bozkaya, A. Yu. Sokolov,
    R. Di Remigio, R. M. Richard, J. F. Gonthier, A. M. James,
    H. R. McAlexander, A. Kumar, M. Saitow, X. Wang, B. P. Pritchard,
    P. Verma, H. F. Schaefer III, K. Patkowski, R. A. King, E. F. Valeev,
    F. A. Evangelista, J. M. Turney, T. D. Crawford, and C. D. Sherrill,
    J. Chem. Theory Comput. 13(7) pp 3185--3197 (2017).
    (doi: 10.1021/acs.jctc.7b00174)

    -----------------------------------------------------------------------


    Psi4 started on: Monday, 04 December 2017 12:15PM

    Process ID:  33243
    PSIDATADIR: /Users/york/src/psi4new/psi4/share/psi4
    Memory:     500.0 MiB
    Threads:    1
    
  ==> Input File <==

--------------------------------------------------------------------------
import forte


memory 500 mb

refmcscf   =  -226.575016947333239
refdsrgpt2 =  -226.575016871111

molecule mbenzyne{
  0 1
   C   0.0000000000  -2.5451795941   0.0000000000
   C   0.0000000000   2.5451795941   0.0000000000
   C  -2.2828001669  -1.3508352528   0.0000000000
   C   2.2828001669  -1.3508352528   0.0000000000
   C   2.2828001669   1.3508352528   0.0000000000
   C  -2.2828001669   1.3508352528   0.0000000000
   H  -4.0782187459  -2.3208602146   0.0000000000
   H   4.0782187459  -2.3208602146   0.0000000000
   H   4.0782187459   2.3208602146   0.0000000000
   H  -4.0782187459   2.3208602146   0.0000000000

  units bohr
}

set globals{
   basis                   sto-3g
   df_basis_mp2            cc-pvdz-ri
   df_basis_scf            cc-pvdz-jkfit
   scf_type                pk
   d_convergence           10
   e_convergence           12
   frozen_docc            [2, 1, 0, 0, 0, 0, 2, 1]
   restricted_docc        [3, 2, 1, 1, 0, 1, 2, 3]
   active                 [1, 0, 0, 0, 0, 0, 1, 0]
   maxiter                 500
   reference               ROHF
   S                       0.0
   guess                   core
}
#scf = energy('casscf')
#compare_values(refmcscf, scf,10,"SCF Energy")

set scf_type  direct
set forte {
   job_type               CASSCF
   CASSCF_DEBUG_PRINTING   false
   frozen_docc            [2, 1, 0, 0, 0, 0, 2, 1]
   restricted_docc        [3, 2, 1, 1, 0, 1, 2, 3]
   active                 [1, 0, 0, 0, 0, 0, 1, 0]
   root_sym                0
   nroot                   1
   multiplicity            1
   int_type                conventional
   cas_type                FCI
   casscf_reference        true
   CASSCF_ITERATIONS       50
   print                    0
}


my_casscf = energy('forte')
compare_values(my_casscf, get_variable("CURRENT ENERGY"),6,"CASSCF energy")
--------------------------------------------------------------------------

  Memory set to 476.837 MiB by Python driver.

*** tstart() called on yorks-mac.wireless.emory.edu
*** at Mon Dec  4 12:15:04 2017

   => Loading Basis Set <=

    Name: STO-3G
    Role: ORBITAL
    Keyword: BASIS
    atoms 1-6  entry C          line    61 file /Users/york/src/psi4new/psi4/share/psi4/basis/sto-3g.gbs 
    atoms 7-10 entry H          line    19 file /Users/york/src/psi4new/psi4/share/psi4/basis/sto-3g.gbs 


         ---------------------------------------------------------
                                   SCF
            by Justin Turney, Rob Parrish, Andy Simmonett
                             and Daniel Smith
                             ROHF Reference
                        1 Threads,    476 MiB Core
         ---------------------------------------------------------

  ==> Geometry <==

    Molecular point group: d2h
    Full point group: D2h

    Geometry (in Bohr), charge = 0, multiplicity = 1:

       Center              X                  Y                   Z               Mass       
    ------------   -----------------  -----------------  -----------------  -----------------
           C          0.000000000000    -2.545179594100     0.000000000000    12.000000000000
           C         -0.000000000000     2.545179594100     0.000000000000    12.000000000000
           C         -2.282800166900    -1.350835252800     0.000000000000    12.000000000000
           C          2.282800166900    -1.350835252800     0.000000000000    12.000000000000
           C          2.282800166900     1.350835252800     0.000000000000    12.000000000000
           C         -2.282800166900     1.350835252800     0.000000000000    12.000000000000
           H         -4.078218745900    -2.320860214600     0.000000000000     1.007825032070
           H          4.078218745900    -2.320860214600     0.000000000000     1.007825032070
           H          4.078218745900     2.320860214600     0.000000000000     1.007825032070
           H         -4.078218745900     2.320860214600     0.000000000000     1.007825032070

  Running in d2h symmetry.

  Rotational constants: A =      0.22736  B =      0.18979  C =      0.10344 [cm^-1]
  Rotational constants: A =   6816.18331  B =   5689.87778  C =   3101.15629 [MHz]
  Nuclear repulsion =  186.022640325180561

  Charge       = 0
  Multiplicity = 1
  Electrons    = 40
  Nalpha       = 20
  Nbeta        = 20

  ==> Algorithm <==

  SCF Algorithm Type is DIRECT.
  DIIS enabled.
  MOM disabled.
  Fractional occupation disabled.
  Guess Type is CORE.
  Energy threshold   = 1.00e-12
  Density threshold  = 1.00e-10
  Integral threshold = 0.00e+00

  ==> Primary Basis <==

  Basis Set: STO-3G
    Blend: STO-3G
    Number of shells: 22
    Number of basis function: 34
    Number of Cartesian functions: 34
    Spherical Harmonics?: true
    Max angular momentum: 1

   => Loading Basis Set <=

    Name: CC-PVDZ-JKFIT
    Role: JKFIT
    Keyword: DF_BASIS_SCF
    atoms 1-6  entry C          line   121 file /Users/york/src/psi4new/psi4/share/psi4/basis/cc-pvdz-jkfit.gbs 
    atoms 7-10 entry H          line    51 file /Users/york/src/psi4new/psi4/share/psi4/basis/cc-pvdz-jkfit.gbs 

  ==> Pre-Iterations <==

   -------------------------------------------------------
    Irrep   Nso     Nmo     Nalpha   Nbeta   Ndocc  Nsocc
   -------------------------------------------------------
     Ag         8       8       0       0       0       0
     B1g        6       6       0       0       0       0
     B2g        1       1       0       0       0       0
     B3g        2       2       0       0       0       0
     Au         1       1       0       0       0       0
     B1u        2       2       0       0       0       0
     B2u        8       8       0       0       0       0
     B3u        6       6       0       0       0       0
   -------------------------------------------------------
    Total      34      34      20      20      20       0
   -------------------------------------------------------

  Starting with a DF guess...

  ==> Integral Setup <==

  ==> DFJK: Density-Fitted J/K Matrices <==

    J tasked:                  Yes
    K tasked:                  Yes
    wK tasked:                  No
    OpenMP threads:              1
    Integrals threads:           1
    Memory (MB):               357
    Algorithm:                Core
    Integral Cache:           NONE
    Schwarz Cutoff:          1E-12
    Fitting Condition:       1E-12

   => Auxiliary Basis Set <=

  Basis Set: CC-PVDZ-JKFIT
    Blend: CC-PVDZ-JKFIT
    Number of shells: 180
    Number of basis function: 512
    Number of Cartesian functions: 586
    Spherical Harmonics?: true
    Max angular momentum: 3

  Minimum eigenvalue in the overlap matrix is 1.6746541757E-01.
  Using Symmetric Orthogonalization.

  SCF Guess: Core (One-Electron) Hamiltonian.

  ==> Iterations <==

                           Total Energy        Delta E     RMS |[F,P]|

    Occupation by irrep:
             Ag   B1g   B2g   B3g    Au   B1u   B2u   B3u 
    DOCC [     6,    3,    1,    0,    0,    1,    5,    4 ]
    SOCC [     0,    0,    0,    0,    0,    0,    0,    0 ]

   @DF-ROHF iter   1:  -209.05102767868911   -2.09051e+02   8.82373e-02 
   @DF-ROHF iter   2:  -224.20164712330299   -1.51506e+01   7.36941e-02 DIIS
   @DF-ROHF iter   3:  -225.93607186828964   -1.73442e+00   3.20051e-02 DIIS
   @DF-ROHF iter   4:  -226.26966885260592   -3.33597e-01   5.59077e-03 DIIS
   @DF-ROHF iter   5:  -226.28021594276211   -1.05471e-02   3.61479e-04 DIIS
   @DF-ROHF iter   6:  -226.28026979151301   -5.38488e-05   8.42042e-05 DIIS
   @DF-ROHF iter   7:  -226.28027248919560   -2.69768e-06   1.57788e-05 DIIS
   @DF-ROHF iter   8:  -226.28027265863378   -1.69438e-07   3.69981e-06 DIIS
   @DF-ROHF iter   9:  -226.28027266745571   -8.82193e-09   4.55893e-07 DIIS
   @DF-ROHF iter  10:  -226.28027266755973   -1.04023e-10   4.43655e-08 DIIS
   @DF-ROHF iter  11:  -226.28027266756041   -6.82121e-13   5.54943e-09 DIIS
   @DF-ROHF iter  12:  -226.28027266756035    5.68434e-14   3.55477e-10 DIIS
   @DF-ROHF iter  13:  -226.28027266756041   -5.68434e-14   5.95450e-11 DIIS

  DF guess converged.

  ==> Integral Setup <==

  ==> DirectJK: Integral-Direct J/K Matrices <==

    J tasked:                  Yes
    K tasked:                  Yes
    wK tasked:                  No
    Integrals threads:           1
    Schwarz Cutoff:          1E-12

   @ROHF iter  14:  -226.28072290149484   -4.50234e-04   6.19478e-06 DIIS
   @ROHF iter  15:  -226.28072291711791   -1.56231e-08   1.64950e-06 DIIS
   @ROHF iter  16:  -226.28072291850501   -1.38709e-09   2.75467e-07 DIIS
   @ROHF iter  17:  -226.28072291855247   -4.74643e-11   5.29449e-08 DIIS
   @ROHF iter  18:  -226.28072291855412   -1.64846e-12   9.28015e-09 DIIS
   @ROHF iter  19:  -226.28072291855395    1.70530e-13   1.64032e-09 DIIS
   @ROHF iter  20:  -226.28072291855401   -5.68434e-14   2.47365e-10 DIIS
   @ROHF iter  21:  -226.28072291855401    0.00000e+00   2.81590e-11 DIIS

  ==> Post-Iterations <==

    Orbital Energies (a.u.)
    -----------------------

    Doubly Occupied:                                                      

       1B3u  -11.065867     1Ag   -11.065764     1B2u  -11.065583  
       1B1g  -11.065568     2B2u  -10.974457     2Ag   -10.974331  
       3Ag    -1.127252     2B3u   -0.984603     3B2u   -0.950117  
       2B1g   -0.789488     4Ag    -0.757004     5Ag    -0.616861  
       4B2u   -0.605485     3B3u   -0.583361     4B3u   -0.552544  
       3B1g   -0.473531     1B1u   -0.426675     1B2g   -0.312705  
       5B2u   -0.274321     6Ag    -0.206272  

    Singly Occupied:                                                      

    

    Virtual:                                                              

       1B3g    0.012845     1Au     0.247641     2B1u    0.355347  
       2B3g    0.525304     7Ag     0.620886     5B3u    0.647064  
       6B2u    0.660749     4B1g    0.714549     7B2u    0.806139  
       8Ag     0.817935     5B1g    0.830414     6B3u    0.959351  
       8B2u    1.096677     6B1g    1.122590  

    Final Occupation by Irrep:
             Ag   B1g   B2g   B3g    Au   B1u   B2u   B3u 
    DOCC [     6,    3,    1,    0,    0,    1,    5,    4 ]
    SOCC [     0,    0,    0,    0,    0,    0,    0,    0 ]

  Energy converged.

  @ROHF Final Energy:  -226.28072291855401

   => Energetics <=

    Nuclear Repulsion Energy =            186.0226403251805607
    One-Electron Energy =                -674.8631465636149187
    Two-Electron Energy =                 262.5597833198803528
    Total Energy =                       -226.2807229185540336



Properties will be evaluated at   0.000000,   0.000000,   0.000000 Bohr

Properties computed using the SCF density matrix

  Nuclear Dipole Moment: (a.u.)
     X:     0.0000      Y:     0.0000      Z:     0.0000

  Electronic Dipole Moment: (a.u.)
     X:     0.0000      Y:     0.0000      Z:     0.0000

  Dipole Moment: (a.u.)
     X:     0.0000      Y:     0.0000      Z:     0.0000     Total:     0.0000

  Dipole Moment: (Debye)
     X:     0.0000      Y:     0.0000      Z:     0.0000     Total:     0.0000


*** tstop() called on yorks-mac.wireless.emory.edu at Mon Dec  4 12:15:09 2017
Module time:
	user time   =       5.05 seconds =       0.08 minutes
	system time =       0.12 seconds =       0.00 minutes
	total time  =          5 seconds =       0.08 minutes
Total time:
	user time   =       5.05 seconds =       0.08 minutes
	system time =       0.12 seconds =       0.00 minutes
	total time  =          5 seconds =       0.08 minutes
   => Loading Basis Set <=

    Name: STO-3G
    Role: ORBITAL
    Keyword: MINAO_BASIS
    atoms 1-6  entry C          line    61 file /Users/york/src/psi4new/psi4/share/psi4/basis/sto-3g.gbs 
    atoms 7-10 entry H          line    19 file /Users/york/src/psi4new/psi4/share/psi4/basis/sto-3g.gbs 


Reading options from the FORTE block
Calling plugin forte.so.



  Forte
  ----------------------------------------------------------------------------
  A suite of quantum chemistry methods for strongly correlated electrons

    git branch: master - git commit: 1c92254a

  Developed by:
    Francesco A. Evangelista, Chenyang Li, Kevin P. Hannon,
    Jeffrey B. Schriber, Tianyuan Zhang, Chenxi Cai
  ----------------------------------------------------------------------------

  Size of Determinant class: 32

  ==> MO Space Information <==

  Read options for space FROZEN_DOCC
  Read options for space RESTRICTED_DOCC
  Read options for space ACTIVE
 Removing orbital 0
 Removing orbital 1
 Removing orbital 8
 Removing orbital 20
 Removing orbital 21
 Removing orbital 28
  -------------------------------------------------------------------------
                       Ag   B1g   B2g   B3g    Au   B1u   B2u   B3u   Sum
  -------------------------------------------------------------------------
    FROZEN_DOCC         2     1     0     0     0     0     2     1     6
    RESTRICTED_DOCC     3     2     1     1     0     1     2     3    13
    ACTIVE              1     0     0     0     0     0     1     0     2
    RESTRICTED_UOCC     2     3     0     1     1     1     3     2    13
    FROZEN_UOCC         0     0     0     0     0     0     0     0     0
    Total               8     6     1     2     1     2     8     6    34
  -------------------------------------------------------------------------

  ==> Integral Transformation <==

  Number of molecular orbitals:               34
  Number of correlated molecular orbitals:    28
  Number of frozen occupied orbitals:          6
  Number of frozen unoccupied orbitals:        0

    Molecular point group: d2h
    Full point group: D2h

    Geometry (in Bohr), charge = 0, multiplicity = 1:

       Center              X                  Y                   Z               Mass       
    ------------   -----------------  -----------------  -----------------  -----------------
           C          0.000000000000    -2.545179594100     0.000000000000    12.000000000000
           C         -0.000000000000     2.545179594100     0.000000000000    12.000000000000
           C         -2.282800166900    -1.350835252800     0.000000000000    12.000000000000
           C          2.282800166900    -1.350835252800     0.000000000000    12.000000000000
           C          2.282800166900     1.350835252800     0.000000000000    12.000000000000
           C         -2.282800166900     1.350835252800     0.000000000000    12.000000000000
           H         -4.078218745900    -2.320860214600     0.000000000000     1.007825032070
           H          4.078218745900    -2.320860214600     0.000000000000     1.007825032070
           H          4.078218745900     2.320860214600     0.000000000000     1.007825032070
           H         -4.078218745900     2.320860214600     0.000000000000     1.007825032070

  -AO BASIS SET INFORMATION:
    Name                   = STO-3G
    Blend                  = STO-3G
    Total number of shells = 22
    Number of primitives   = 66
    Number of AO           = 34
    Number of SO           = 34
    Maximum AM             = 1
    Spherical Harmonics    = TRUE

  -Contraction Scheme:
    Atom   Type   All Primitives // Shells:
   ------ ------ --------------------------
       1     C     6s 3p // 2s 1p 
       2     C     6s 3p // 2s 1p 
       3     C     6s 3p // 2s 1p 
       4     C     6s 3p // 2s 1p 
       5     C     6s 3p // 2s 1p 
       6     C     6s 3p // 2s 1p 
       7     H     3s // 1s 
       8     H     3s // 1s 
       9     H     3s // 1s 
      10     H     3s // 1s 

  ==> AO Basis Functions <==

    [ STO-3G ]
    spherical
    ****
    C   1
    S   3 1.00
                        71.61683700           0.15432897
                        13.04509600           0.53532814
                         3.53051220           0.44463454
    S   3 1.00
                         2.94124940          -0.09996723
                         0.68348310           0.39951283
                         0.22228990           0.70011547
    P   3 1.00
                         2.94124940           0.15591627
                         0.68348310           0.60768372
                         0.22228990           0.39195739
    ****
    C   3
    S   3 1.00
                        71.61683700           0.15432897
                        13.04509600           0.53532814
                         3.53051220           0.44463454
    S   3 1.00
                         2.94124940          -0.09996723
                         0.68348310           0.39951283
                         0.22228990           0.70011547
    P   3 1.00
                         2.94124940           0.15591627
                         0.68348310           0.60768372
                         0.22228990           0.39195739
    ****
    H   7
    S   3 1.00
                         3.42525091           0.15432897
                         0.62391373           0.53532814
                         0.16885540           0.44463454
    ****


  Overall Conventional Integrals timings


  Conventional integrals take 0.87502300 s

                -----------------------------------------------
                  Complete Active Space Self Consistent Field
                                 Kevin Hannon
                -----------------------------------------------


  ==> CASSCF Iteration <==

 iter    ||g||           Delta_E            E_CASSCF       CONV_TYPE
 CSO2SO takes   0.0000 s.
    0   0.039866325203   -226.515924713434   -226.515924713434    1.402049 s      
 CSO2SO takes   0.0000 s.
    1   0.015897515582   -0.049167703714   -226.565092417149    1.454290 s      
 CSO2SO takes   0.0000 s.
    2   0.006488751697   -0.008053404726   -226.573145821875    1.460966 s      
 CSO2SO takes   0.0000 s.
    3   0.002904896958   -0.001487298703   -226.574633120577    1.407197 s      
 CSO2SO takes   0.0000 s.
    4   0.001176057049   -0.000300382214   -226.574933502791    1.417298 s      
 CSO2SO takes   0.0000 s.
    5   0.000578058664   -0.000064153856   -226.574997656647    1.387330 s  DIIS
 CSO2SO takes   0.0000 s.
    6   0.000248969669   -0.000014703675   -226.575012360323    1.510249 s  DIIS
 CSO2SO takes   0.0000 s.
    7   0.000128347187   -0.000003897225   -226.575016257548    1.464334 s  DIIS
 CSO2SO takes   0.0000 s.
    8   0.000006684486   -0.000000686264   -226.575016943812    1.437093 s

 A miracle has come to pass. The CASSCF iterations have converged.
 @E(CASSCF) =  -226.575016943812 
	CASSCF energy.....................................................PASSED

*** Psi4 exiting successfully. Buy a developer a beer!
