    -----------------------------------------------------------------------
          Psi4: An Open-Source Ab Initio Electronic Structure Package
                              Psi4 0.1.224 Driver

                          Git: Rev {detached?} ec8115e dirty

    J. M. Turney, A. C. Simmonett, R. M. Parrish, E. G. Hohenstein,
    F. A. Evangelista, J. T. Fermann, B. J. Mintz, L. A. Burns, J. J. Wilke,
    M. L. Abrams, N. J. Russ, M. L. Leininger, C. L. Janssen, E. T. Seidl,
    W. D. Allen, H. F. Schaefer, R. A. King, E. F. Valeev, C. D. Sherrill,
    and T. D. Crawford, WIREs Comput. Mol. Sci. 2, 556-565 (2012)
    (doi: 10.1002/wcms.93)

                         Additional Contributions by
    A. E. DePrince, M. Saitow, U. Bozkaya, A. Yu. Sokolov
    -----------------------------------------------------------------------


    Psi4 started on: 10-19-2015  11:10:23 PM EDT

    Process ID:  19966
    PSI4DATADIR: /Users/kevinhannon/Programs/psi4cmake/psi4/lib
    Memory level set to 256.000 MB

  ==> Input File <==

--------------------------------------------------------------------------
#! Generated using commit GITCOMMIT

import forte

refmcscf     = -15.59096672235
refdsrgpt2   = -15.627184888920119 #TEST

molecule {
  0 1
  Be        0.000000000000     0.000000000000     0.000000000000
  H         0.000000000000     1.390000000000     2.500000000000
  H         0.000000000000    -1.390000000000     2.500000000000
  symmetry c1
  units bohr
  no_reorient
}

set globals{
   scf_type             pk
   d_convergence        8
   e_convergence        8
   basis                3-21g
#   docc                 [2,0,0,0]
#   socc                 [1,0,0,1]
   restricted_docc                  [2]
   active                  [2]
   maxiter              20
}
#energy('casscf')

energy('mcscf')

set forte{
   CASSCF_REFERENCE    true
   CASSCF_ITERATIONS   15
   #restricted_docc      [2,0,0,0]
   restricted_docc       [2]
   active                [2]
   #active               [1,0,0,1]
   int_type             conventional
}
energy('forte')
--------------------------------------------------------------------------
/Users/kevinhannon/Programs/forte/forte.so loaded.

         ------------------------------------------
           MCSCF: a self-consistent field program
            written by Francesco A. Evangelista
         ------------------------------------------ MINTS: Wrapper to libmints.
   by Justin Turney

   Calculation information:
      Number of atoms:                   3
      Number of AO shells:               9
      Number of SO shells:               9
      Number of primitives:             15
      Number of atomic orbitals:        13
      Number of basis functions:        13

      Number of irreps:                  1
      Integral cutoff                 1.00e-12
      Number of functions per irrep: [  13 ]

 OEINTS: Overlap, kinetic, potential, dipole, and quadrupole integrals
         stored in file 35.

      Computing two-electron integrals...done
      Computed 2260 non-zero two-electron integrals.
        Stored in file 33.



  MOs per irrep:                                                     A Total
  ----------------------------------------------------------------------------
  Total                                                              13    13
  ----------------------------------------------------------------------------

  Guessing orbital occupation

  Running an SCF calculation

  Generated 91 pairs
  Distributed as [91 A]
  batch   0 pq = [       0,      91] index = [               0,            4186]

  Allocated the PK matrix (4186 elements) 
  Reading the two-electron integrals to form PK ... 
  batch   0 ... done.


  Occupation changed
  docc = ( 3 )
  actv = ( 0 )


  =========================================================================================
         Cycle          Energy               D(Energy)            D(Density)            DIIS
  ===========================================================================================
  Setting level shift to 0.000 S
  @SCF    0      -14.330650821125     -14.330650821125       0.136095535123
  Setting level shift to 0.000 S
  @SCF    1      -15.466364850909      -1.135714029784       0.116908273883
  Setting level shift to 0.000 S
  @SCF    2      -15.503916978862      -0.037552127953       0.022582985803
  Setting level shift to 0.000 S
  @SCF    3      -15.504774915382      -0.000857936520       0.002171563465
  Setting level shift to 0.000 S
  @SCF    4      -15.504879139889      -0.000104224507       0.000540191926
  Setting level shift to 0.000 S
  @SCF    5      -15.504897796498      -0.000018656609       0.000184111780
  Setting level shift to 0.000 S
  @SCF    6      -15.504901910676      -0.000004114178       0.000099056466
  Setting level shift to 0.000 S/E
  @SCF    7      -15.504902909833      -0.000000999157       0.000056438473
  Setting level shift to 0.000 S/E
  @SCF    8      -15.504903251024      -0.000000341191       0.000065836254
  Setting level shift to 0.000 S/E
  @SCF    9      -15.504903251029      -0.000000000005       0.000000275847
  Setting level shift to 0.000 S/E
  @SCF   10      -15.504903251029      -0.000000000000       0.000000045097
  Setting level shift to 0.000 S/E
  @SCF   11      -15.504903251029      -0.000000000000       0.000000001259
  Setting level shift to 0.000 S/E
  @SCF   12      -15.504903251029       0.000000000000       0.000000000112
  Setting level shift to 0.000 S/E
  @SCF   13      -15.504903251029      -0.000000000000       0.000000000034
  Setting level shift to 0.000 S/E
  @SCF   14      -15.504903251029       0.000000000000       0.000000000001
  Setting level shift to 0.000 S/E
  @SCF   15      -15.504903251029      -0.000000000000       0.000000000000
  Setting level shift to 0.000 S/E
  @SCF   16      -15.504903251029      -0.000000000000       0.000000000000
  =========================================================================================

      * SCF total energy   =     -15.504903251029

  Final occupation
  docc = [ 3,  ]
  actv = [ 0,  ]
  sym  = 0

  End of SCF
  MOs orthonormality check passed.

  Orbitals are canonicalized as:
  inactive (docc + uocc) : Fock(core)
  active   (actv)        : Fock(core)

  =========================================================================
  Eigenvalues (Eh)
  -------------------------------------------------------------------------
  Doubly occupied orbitals
      1     -4.712251   A      2     -0.513669   A      3     -0.269844   A
  Unoccupied orbitals
      4     -0.022166   A      5      0.070636   A      6      0.202776   A
      7      0.260895   A      8      0.440218   A      9      0.450039   A
     10      0.454040   A     11      0.541561   A     12      1.299903   A
     13      1.513643   A
  =========================================================================


  MCSCF Execution Completed.


*** tstop() called on Kevins-MacBook-Pro-2.local at Mon Oct 19 23:10:23 2015
Module time:
	user time   =       0.23 seconds =       0.00 minutes
	system time =       0.06 seconds =       0.00 minutes
	total time  = 1445310623 seconds = 24088510.38 minutes
Total time:
	user time   =       0.23 seconds =       0.00 minutes
	system time =       0.06 seconds =       0.00 minutes
	total time  = 1445310623 seconds = 24088510.38 minutes
Reading options from the FORTE block
Calling plugin /Users/kevinhannon/Programs/forte/forte.so.


  ==> MO Space Information <==

  Read options for space RESTRICTED_DOCC
  Read options for space ACTIVE
  -------------------------------
                        A   Sum
  -------------------------------
    FROZEN_DOCC         0     0
    RESTRICTED_DOCC     2     2
    ACTIVE              2     2
    RESTRICTED_UOCC     9     9
    FROZEN_UOCC         0     0
    Total              13    13
  -------------------------------

  ==> Integral Transformation <==

  Number of molecular orbitals:               13
  Number of correlated molecular orbitals:    13
  Number of frozen occupied orbitals:          0
  Number of frozen unoccupied orbitals:        0


  Overall Conventional Integrals timings

	Presorting SO-basis two-electron integrals.
	Sorting File: SO Ints (nn|nn) nbuckets = 1
	Transforming the one-electron integrals and constructing Fock matrices
	Starting first half-transformation.
	Sorting half-transformed integrals.
	First half integral transformation complete.
	Starting second half-transformation.
	Two-electron integral transformation complete.

  Integral transformation done. 0.01104600 s
  Reading the two-electron integrals from disk
  Size of two-electron integrals:   0.000638 GB
  Conventional integrals take 0.01370300 s

                -----------------------------------------------
                  Complete Active Space Self Consistent Field
                                 Kevin Hannon
                -----------------------------------------------

 nmo:13  na_:2

  ==> CASSCF Iteration <==


                -----------------------------------------------
                  String-based Full Configuration Interaction
                          by Francesco A. Evangelista
                -----------------------------------------------

  Number of electrons: 6
  Charge: 0
  Multiplicity: 1
  M_s: 0

  ==> String Lists <==

  Number of alpha electrons     = 1
  Number of beta electrons      = 1
  Number of alpha strings       = 2
  Number of beta strings        = 2
  Timing for strings        =      0.000 s
  Timing for NN strings     =      0.000 s
  Timing for VO strings     =      0.000 s
  Timing for OO strings     =      0.000 s
  Timing for Knowles-Handy  =      0.000 s
  Timing for VVOO strings   =      0.000 s
  Timing for VOVO strings   =      0.000 s
  Timing for 1-hole strings =      0.000 s
  Timing for 2-hole strings =      0.000 s
  Timing for 3-hole strings =      0.000 s
  Total timing              =      0.000 s

  ==> FCI Solver <==

    Number of determinants                           4
    Symmetry                                         0
    Multiplicity                                     1
    Number of roots                                  1
    Target root                                      0

  Allocating memory for the Hamiltonian algorithm. Size: 2 x 2 x 2.   Memory: 0.000000 GB

  ==> FCI Initial Guess <==

  ---------------------------------------------
    Root            Energy     <S^2>   Spin
  ---------------------------------------------
      0      -15.518944661532  2.000  triplet
      1      -15.506736886334  0.000  singlet
      2      -15.480633859644  0.000  singlet
      3      -15.304792910480  0.000  singlet
  ---------------------------------------------
  Timing for initial guess  =      0.000 s

  ==> Diagonalizing Hamiltonian <==

  ----------------------------------------
    Iter.      Avg. Energy       Delta_E
  ----------------------------------------
      1      -15.506736886334  -1.551e+01
      2      -15.506736886334  -3.553e-15
  ----------------------------------------
  The Davidson-Liu algorithm converged in 3 iterations.

  ==> Root No. 0 <==

    20      0.99544969

    Total Energy:       -15.506736886333842
 # lambda #
 Irrep: 1
      1: -18.6632245
      2: -18.6371215
      3: -18.4612806
      4:  0.0000000

  ## b (Symmetry 0) ##
  Irrep: 1 Size: 4 x 4

                 1                   2                   3                   4

    1    -0.99544968693000    -0.00000000000024     0.00000000000009     0.09528861837057
    2    -0.00000000000010     0.70710678118660     0.70710678118649     0.00000000000001
    3    -0.09528861837057     0.00000000000002    -0.00000000000002    -0.99544968693000
    4     0.00000000000000     0.00000000000000     0.00000000000000     0.00000000000000





  ==> RDMs for Root No. 0 <==
 Inactive 0 1  ## C_core (Symmetry 0) ##
  Irrep: 1 Size: 13 x 2

                 1                   2

    1    -0.99216083151993     0.13719381462588
    2    -0.07902578918287    -0.15517562970468
    3    -0.00000000000000     0.00000000000000
    4    -0.00000000000000     0.00000000000000
    5     0.00380708019762    -0.16473877041439
    6     0.03021742643490    -0.26430521350543
    7    -0.00000000000000     0.00000000000000
    8    -0.00000000000000    -0.00000000000000
    9    -0.00094046318400    -0.03304908789405
   10     0.00272536476239    -0.18661692182036
   11    -0.00265212273330    -0.25057553988551
   12     0.00272536476240    -0.18661692182036
   13    -0.00265212273330    -0.25057553988551



 MINTS: Wrapper to libmints.
   by Justin Turney

   Calculation information:
      Number of atoms:                   3
      Number of AO shells:               9
      Number of SO shells:               9
      Number of primitives:             15
      Number of atomic orbitals:        13
      Number of basis functions:        13

      Number of irreps:                  1
      Integral cutoff                 1.00e-12
      Number of functions per irrep: [  13 ]

 OEINTS: Overlap, kinetic, potential, dipole, and quadrupole integrals
         stored in file 35.

      Computing two-electron integrals...done
      Computed 2260 non-zero two-electron integrals.
        Stored in file 33.

	Batch   1 pq = [       0,      91] index = [             0,4186]
  Irrep: 1 Size: 13 x 13

                 1                   2                   3                   4                   5

    1    -5.49621385789179     0.00452670050764     0.00000000000000    -0.01029811028958    -0.00000000000000
    2     0.00452670050764    -1.18631149191091     0.00000000000000    -0.04016294476462    -0.00000000000000
    3     0.00000000000000     0.00000000000000    -0.62990410251553     0.00000000000000    -0.00000000000000
    4    -0.01029811028958    -0.04016294476463     0.00000000000000    -0.52644883206417     0.00000000000000
    5    -0.00000000000000    -0.00000000000000    -0.00000000000000     0.00000000000000    -0.44792838346865
    6    -0.00000000000000     0.00000000000000    -0.04767147139286    -0.00000000000000    -0.00000000000000
    7     0.00526472021813     0.04886498660475     0.00000000000000     0.07570540103344     0.00000000000000
    8    -0.00000000000000    -0.00000000000000    -0.03825914126553    -0.00000000000000    -0.00000000000001
    9     0.00000000000000     0.00000000000000    -0.00000000000000     0.00000000000001     0.11141980908498
   10     0.01533828600285     0.03509145837370    -0.00000000000000     0.05116625519503    -0.00000000000001
   11     0.00849294339160    -0.07329445848458    -0.00000000000000     0.06721659318810     0.00000000000000
   12     0.00000000000000     0.00000000000000     0.03528359079103     0.00000000000000    -0.00000000000000
   13     0.00225624656903    -0.03365450935384    -0.00000000000000    -0.01676875615555     0.00000000000000

                 6                   7                   8                   9                  10

    1    -0.00000000000000     0.00526472021813    -0.00000000000000     0.00000000000000     0.01533828600285
    2     0.00000000000000     0.04886498660475    -0.00000000000000     0.00000000000000     0.03509145837370
    3    -0.04767147139286     0.00000000000000    -0.03825914126553    -0.00000000000000    -0.00000000000000
    4    -0.00000000000000     0.07570540103344    -0.00000000000000     0.00000000000001     0.05116625519503
    5    -0.00000000000000     0.00000000000000    -0.00000000000001     0.11141980908498    -0.00000000000001
    6    -0.30764976435336     0.00000000000000     0.06385553174561     0.00000000000000     0.00000000000001
    7     0.00000000000000    -0.22114657317857    -0.00000000000000     0.00000000000000     0.02286709407973
    8     0.06385553174561    -0.00000000000000    -0.15342617984840    -0.00000000000000     0.00000000000000
    9     0.00000000000000     0.00000000000000    -0.00000000000000    -0.14571727672152    -0.00000000000000
   10     0.00000000000001     0.02286709407973     0.00000000000000    -0.00000000000000    -0.18045597603214
   11    -0.00000000000000    -0.01643642842805    -0.00000000000000     0.00000000000001     0.07162821107363
   12     0.08221944210283     0.00000000000000    -0.02070972104875    -0.00000000000000    -0.00000000000000
   13    -0.00000000000000     0.07038751593697     0.00000000000000    -0.00000000000001    -0.04723750012315

                11                  12                  13

    1     0.00849294339160     0.00000000000000     0.00225624656903
    2    -0.07329445848458     0.00000000000000    -0.03365450935384
    3    -0.00000000000000     0.03528359079103    -0.00000000000000
    4     0.06721659318810     0.00000000000000    -0.01676875615555
    5     0.00000000000000    -0.00000000000000     0.00000000000000
    6    -0.00000000000000     0.08221944210283    -0.00000000000000
    7    -0.01643642842805     0.00000000000000     0.07038751593697
    8    -0.00000000000000    -0.02070972104875     0.00000000000000
    9     0.00000000000001    -0.00000000000000    -0.00000000000001
   10     0.07162821107363    -0.00000000000000    -0.04723750012315
   11    -0.05105202424445    -0.00000000000000     0.02094167468518
   12    -0.00000000000000     0.59363957236013     0.00000000000000
   13     0.02094167468518     0.00000000000000     0.78706609980081



  ## C_active (Symmetry 0) ##
  Irrep: 1 Size: 13 x 2

                 1                   2

    1    -0.00000000000000    -0.14187288090838
    2     0.00000000000000     0.05766656486621
    3     0.00000000000000    -0.00000000000000
    4    -0.33359214171152    -0.00000000000000
    5     0.00000000000000    -0.21780906213527
    6     0.00000000000000     0.67604983813767
    7     0.00000000000000     0.00000000000000
    8    -0.33250432405286    -0.00000000000000
    9     0.00000000000000    -0.52533452243806
   10    -0.17109558186425    -0.05876115311811
   11    -0.37805806936123    -0.05906244007896
   12     0.17109558186426    -0.05876115311811
   13     0.37805806936122    -0.05906244007896



 MINTS: Wrapper to libmints.
   by Justin Turney

   Calculation information:
      Number of atoms:                   3
      Number of AO shells:               9
      Number of SO shells:               9
      Number of primitives:             15
      Number of atomic orbitals:        13
      Number of basis functions:        13

      Number of irreps:                  1
      Integral cutoff                 1.00e-12
      Number of functions per irrep: [  13 ]

 OEINTS: Overlap, kinetic, potential, dipole, and quadrupole integrals
         stored in file 35.

      Computing two-electron integrals...done
      Computed 2260 non-zero two-electron integrals.
        Stored in file 33.

	Batch   1 pq = [       0,      91] index = [             0,4186]
  ## F_act (Symmetry 0) ##
  Irrep: 1 Size: 13 x 13

                 1                   2                   3                   4                   5

    1     0.78414962008440    -0.00459813146721    -0.00000000000000     0.01017444264415     0.00000000000000
    2    -0.00459813146721     0.67090279330955    -0.00000000000000     0.03957076997141     0.00000000000000
    3    -0.00000000000000    -0.00000000000000     0.36136970103809    -0.00000000000000     0.00000000000000
    4     0.01017444264415     0.03957076997141    -0.00000000000000     0.50289446773491     0.00000000000000
    5     0.00000000000000     0.00000000000000     0.00000000000000     0.00000000000000     0.51849014091144
    6    -0.00000000000000    -0.00000000000000     0.04686212003374    -0.00000000000000     0.00000000000000
    7    -0.00518401783301    -0.04829407245989    -0.00000000000000    -0.07503631360709     0.00000000000000
    8     0.00000000000000     0.00000000000000     0.03892229717276     0.00000000000000     0.00000000000001
    9    -0.00000000000000    -0.00000000000000     0.00000000000000    -0.00000000000001    -0.11140082569567
   10    -0.01497778903012    -0.03523728348055     0.00000000000000    -0.05133538608996     0.00000000000001
   11    -0.00850422275273     0.07331661128081     0.00000000000000    -0.06688255069208     0.00000000000000
   12    -0.00000000000000    -0.00000000000000    -0.03505963649290    -0.00000000000000     0.00000000000000
   13    -0.00217614509424     0.03333783781871    -0.00000000000000     0.01663869876222     0.00000000000000

                 6                   7                   8                   9                  10

    1    -0.00000000000000    -0.00518401783301     0.00000000000000    -0.00000000000000    -0.01497778903012
    2    -0.00000000000000    -0.04829407245989     0.00000000000000    -0.00000000000000    -0.03523728348055
    3     0.04686212003374    -0.00000000000000     0.03892229717276     0.00000000000000     0.00000000000000
    4    -0.00000000000000    -0.07503631360709     0.00000000000000    -0.00000000000001    -0.05133538608996
    5     0.00000000000000     0.00000000000000     0.00000000000001    -0.11140082569567     0.00000000000001
    6     0.50994142596769    -0.00000000000000    -0.06360837036992    -0.00000000000000    -0.00000000000000
    7    -0.00000000000000     0.48175926444324     0.00000000000000    -0.00000000000000    -0.02240298660742
    8    -0.06360837036992     0.00000000000000     0.59357507869905    -0.00000000000000    -0.00000000000000
    9    -0.00000000000000    -0.00000000000000    -0.00000000000000     0.59583373040882     0.00000000000000
   10    -0.00000000000000    -0.02240298660742    -0.00000000000000     0.00000000000000     0.63421678014197
   11     0.00000000000000     0.01683028446790     0.00000000000001    -0.00000000000001    -0.07052449037675
   12    -0.08165274780609    -0.00000000000000     0.02087420614956     0.00000000000000     0.00000000000000
   13     0.00000000000000    -0.06979422662328    -0.00000000000000     0.00000000000001     0.04727447111998

                11                  12                  13

    1    -0.00850422275273    -0.00000000000000    -0.00217614509424
    2     0.07331661128081    -0.00000000000000     0.03333783781871
    3     0.00000000000000    -0.03505963649290    -0.00000000000000
    4    -0.06688255069208    -0.00000000000000     0.01663869876222
    5     0.00000000000000     0.00000000000000     0.00000000000000
    6     0.00000000000000    -0.08165274780609     0.00000000000000
    7     0.01683028446790    -0.00000000000000    -0.06979422662328
    8     0.00000000000001     0.02087420614956    -0.00000000000000
    9    -0.00000000000001     0.00000000000000     0.00000000000001
   10    -0.07052449037675     0.00000000000000     0.04727447111998
   11     0.59227760184900    -0.00000000000000    -0.02098408313245
   12    -0.00000000000000     0.70380261386316    -0.00000000000000
   13    -0.02098408313245    -0.00000000000000     0.72402878510150



	Presorting SO-basis two-electron integrals.
	Sorting File: SO Ints (nn|nn) nbuckets = 1
	Transforming the one-electron integrals and constructing Fock matrices
	Starting first half-transformation.
	Sorting half-transformed integrals.
	First half integral transformation complete.
	Starting second half-transformation.
	Two-electron integral transformation complete.

  Integral transformation done. 0.00867300 s
  Reading the two-electron integrals from disk
  Size of two-electron integrals:   0.000638 GB

                -----------------------------------------------
                  String-based Full Configuration Interaction
                          by Francesco A. Evangelista
                -----------------------------------------------

  Number of electrons: 6
  Charge: 0
  Multiplicity: 1
  M_s: 0

  ==> String Lists <==

  Number of alpha electrons     = 1
  Number of beta electrons      = 1
  Number of alpha strings       = 2
  Number of beta strings        = 2
  Timing for strings        =      0.000 s
  Timing for NN strings     =      0.000 s
  Timing for VO strings     =      0.000 s
  Timing for OO strings     =      0.000 s
  Timing for Knowles-Handy  =      0.000 s
  Timing for VVOO strings   =      0.000 s
  Timing for VOVO strings   =      0.000 s
  Timing for 1-hole strings =      0.000 s
  Timing for 2-hole strings =      0.000 s
  Timing for 3-hole strings =      0.000 s
  Total timing              =      0.000 s

  ==> FCI Solver <==

    Number of determinants                           4
    Symmetry                                         0
    Multiplicity                                     1
    Number of roots                                  1
    Target root                                      0

  Allocating memory for the Hamiltonian algorithm. Size: 2 x 2 x 2.   Memory: 0.000000 GB

  ==> FCI Initial Guess <==

  ---------------------------------------------
    Root            Energy     <S^2>   Spin
  ---------------------------------------------
      0      -15.513595162463  2.000  triplet
      1      -15.510139811011  0.000  singlet
      2      -15.455384185134  0.000  singlet
      3      -15.343438711236  0.000  singlet
  ---------------------------------------------
  Timing for initial guess  =      0.000 s

  ==> Diagonalizing Hamiltonian <==

  ----------------------------------------
    Iter.      Avg. Energy       Delta_E
  ----------------------------------------
      1      -15.510139811011  -1.551e+01
      2      -15.510139811011  +1.066e-14
  ----------------------------------------
  The Davidson-Liu algorithm converged in 3 iterations.

  ==> Root No. 0 <==

    20      0.98413682
    02     -0.17741117

    Total Energy:       -15.510139811010971
 # lambda #
 Irrep: 1
      1: -18.6666275
      2: -18.6118718
      3: -18.4999264
      4:  0.0000000

  ## b (Symmetry 0) ##
  Irrep: 1 Size: 4 x 4

                 1                   2                   3                   4

    1    -0.98413681883478    -0.00000000000031     0.00000000000027     0.17741116597822
    2    -0.00000000000003     0.70710678118662     0.70710678118647    -0.00000000000001
    3    -0.17741116597822     0.00000000000162    -0.00000000000165    -0.98413681883478
    4     0.00000000000000     0.00000000000000     0.00000000000000     0.00000000000000





  ==> RDMs for Root No. 0 <==
 Inactive 0 1  ## C_core (Symmetry 0) ##
  Irrep: 1 Size: 13 x 2

                 1                   2

    1    -0.99216990219995     0.13717757488191
    2    -0.07900956847748    -0.15523203661563
    3    -0.00000000000000     0.00000000000000
    4    -0.00000000000000    -0.00000000000000
    5     0.00370492042254    -0.16458886099626
    6     0.03024797404074    -0.26358332570462
    7    -0.00000000000000     0.00000000000000
    8    -0.00000000000000    -0.00000000000000
    9    -0.00090760743334    -0.03177975266747
   10     0.00273192059606    -0.18677471855259
   11    -0.00265695236420    -0.25120994591017
   12     0.00273192059606    -0.18677471855259
   13    -0.00265695236420    -0.25120994591017



 MINTS: Wrapper to libmints.
   by Justin Turney

   Calculation information:
      Number of atoms:                   3
      Number of AO shells:               9
      Number of SO shells:               9
      Number of primitives:             15
      Number of atomic orbitals:        13
      Number of basis functions:        13

      Number of irreps:                  1
      Integral cutoff                 1.00e-12
      Number of functions per irrep: [  13 ]

 OEINTS: Overlap, kinetic, potential, dipole, and quadrupole integrals
         stored in file 35.

      Computing two-electron integrals...done
      Computed 2260 non-zero two-electron integrals.
        Stored in file 33.

	Batch   1 pq = [       0,      91] index = [             0,4186]
  Irrep: 1 Size: 13 x 13

                 1                   2                   3                   4                   5

    1    -5.49623498549431     0.00452316547399     0.00000000000000    -0.01080995093384    -0.00000000000000
    2     0.00452316547399    -1.18629598244531     0.00000000000000    -0.04426857082038    -0.00000000000000
    3     0.00000000000000     0.00000000000000    -0.62965941660385     0.00000000000000    -0.00000000000000
    4    -0.01080995093384    -0.04426857082038     0.00000000000000    -0.54569554210842     0.00000000000000
    5    -0.00000000000000    -0.00000000000000    -0.00000000000000     0.00000000000000    -0.44792666459373
    6    -0.00000000000000     0.00000000000000    -0.04865834447151    -0.00000000000000    -0.00000000000000
    7     0.00199981550737     0.03552952110032     0.00000000000000    -0.01749142928445     0.00000000000000
    8    -0.00000000000000    -0.00000000000000    -0.03794234074203    -0.00000000000000    -0.00000000000001
    9     0.00000000000000     0.00000000000000    -0.00000000000000     0.00000000000001     0.11142310082558
   10     0.01571759112186     0.03793096347179    -0.00000000000000     0.05466112643263    -0.00000000000001
   11     0.00732734792943    -0.07804763688746    -0.00000000000000     0.01993489285175     0.00000000000000
   12     0.00000000000000     0.00000000000000     0.03458215931301     0.00000000000000    -0.00000000000000
   13     0.00287255019562    -0.03071390472340     0.00000000000000     0.04270369688761     0.00000000000000

                 6                   7                   8                   9                  10

    1    -0.00000000000000     0.00199981550737    -0.00000000000000     0.00000000000000     0.01571759112186
    2     0.00000000000000     0.03552952110032    -0.00000000000000     0.00000000000000     0.03793096347179
    3    -0.04865834447151     0.00000000000000    -0.03794234074203    -0.00000000000000    -0.00000000000000
    4    -0.00000000000000    -0.01749142928445    -0.00000000000000     0.00000000000001     0.05466112643263
    5    -0.00000000000000     0.00000000000000    -0.00000000000001     0.11142310082558    -0.00000000000001
    6    -0.30794306512718    -0.00000000000000     0.06377406417745     0.00000000000000     0.00000000000001
    7    -0.00000000000000    -0.20305527438907    -0.00000000000000     0.00000000000000     0.03684539598965
    8     0.06377406417745    -0.00000000000000    -0.15333759352738    -0.00000000000000     0.00000000000000
    9     0.00000000000000     0.00000000000000    -0.00000000000000    -0.14573266649358    -0.00000000000000
   10     0.00000000000001     0.03684539598965     0.00000000000000    -0.00000000000000    -0.18739842858706
   11    -0.00000000000000     0.00011107662459    -0.00000000000000     0.00000000000001     0.07461703399311
   12     0.08229902071550     0.00000000000000    -0.02076251109523    -0.00000000000000     0.00000000000000
   13    -0.00000000000000     0.07227881455763     0.00000000000000    -0.00000000000001    -0.05151058433051

                11                  12                  13

    1     0.00732734792943     0.00000000000000     0.00287255019562
    2    -0.07804763688746     0.00000000000000    -0.03071390472339
    3    -0.00000000000000     0.03458215931301     0.00000000000000
    4     0.01993489285175     0.00000000000000     0.04270369688761
    5     0.00000000000000    -0.00000000000000     0.00000000000000
    6    -0.00000000000000     0.08229902071550    -0.00000000000000
    7     0.00011107662459     0.00000000000000     0.07227881455763
    8    -0.00000000000000    -0.02076251109523     0.00000000000000
    9     0.00000000000001    -0.00000000000000    -0.00000000000001
   10     0.07461703399311     0.00000000000000    -0.05151058433051
   11    -0.04123306449341    -0.00000000000000     0.01953991733824
   12    -0.00000000000000     0.59376042622109    -0.00000000000000
   13     0.01953991733824    -0.00000000000000     0.78551502750965



  ## C_active (Symmetry 0) ##
  Irrep: 1 Size: 13 x 2

                 1                   2

    1    -0.00000000000000    -0.17084514301768
    2     0.00000000000000     0.21964786118681
    3     0.00000000000000     0.00000000000000
    4    -0.33517409483075    -0.00000000000000
    5     0.00000000000000    -0.16591125431114
    6     0.00000000000000     0.93627280567894
    7     0.00000000000000    -0.00000000000000
    8    -0.33525884802284    -0.00000000000001
    9     0.00000000000000    -0.05180530527416
   10    -0.17098791303473    -0.13226983171217
   11    -0.37429220855252    -0.35129019669362
   12     0.17098791303473    -0.13226983171217
   13     0.37429220855252    -0.35129019669364



 MINTS: Wrapper to libmints.
   by Justin Turney

   Calculation information:
      Number of atoms:                   3
      Number of AO shells:               9
      Number of SO shells:               9
      Number of primitives:             15
      Number of atomic orbitals:        13
      Number of basis functions:        13

      Number of irreps:                  1
      Integral cutoff                 1.00e-12
      Number of functions per irrep: [  13 ]

 OEINTS: Overlap, kinetic, potential, dipole, and quadrupole integrals
         stored in file 35.

      Computing two-electron integrals...done
      Computed 2260 non-zero two-electron integrals.
        Stored in file 33.

	Batch   1 pq = [       0,      91] index = [             0,4186]
  ## F_act (Symmetry 0) ##
  Irrep: 1 Size: 13 x 13

                 1                   2                   3                   4                   5

    1     0.78800604221691    -0.00479994609698    -0.00000000000000     0.01074326980925    -0.00000000000000
    2    -0.00479994609698     0.66843873218790    -0.00000000000000     0.04193864568687     0.00000000000000
    3    -0.00000000000000    -0.00000000000000     0.36605252732444    -0.00000000000002     0.00000000000000
    4     0.01074326980925     0.04193864568687    -0.00000000000002     0.55630139405093     0.00000000000000
    5    -0.00000000000000     0.00000000000000     0.00000000000000     0.00000000000000     0.51908874918402
    6    -0.00000000000000    -0.00000000000000     0.04562805075172    -0.00000000000000     0.00000000000000
    7    -0.00190374313670    -0.03469025687469     0.00000000000000    -0.05744665233556     0.00000000000000
    8    -0.00000000000000     0.00000000000000     0.04100830225174    -0.00000000000000     0.00000000000001
    9    -0.00000000000000    -0.00000000000000     0.00000000000000    -0.00000000000000    -0.11192480287232
   10    -0.01487219727814    -0.03866940683369     0.00000000000001    -0.02707370959169     0.00000000000001
   11    -0.00744600128782     0.07822351548925     0.00000000000000    -0.07806792281496     0.00000000000000
   12    -0.00000000000000    -0.00000000000000    -0.03448436776094    -0.00000000000000     0.00000000000000
   13    -0.00267255326850     0.02992171503544     0.00000000000000     0.05145955907849     0.00000000000000

                 6                   7                   8                   9                  10

    1    -0.00000000000000    -0.00190374313670    -0.00000000000000    -0.00000000000000    -0.01487219727814
    2    -0.00000000000000    -0.03469025687469     0.00000000000000    -0.00000000000000    -0.03866940683369
    3     0.04562805075172     0.00000000000000     0.04100830225174     0.00000000000000     0.00000000000001
    4    -0.00000000000000    -0.05744665233556    -0.00000000000000    -0.00000000000000    -0.02707370959169
    5     0.00000000000000     0.00000000000000     0.00000000000001    -0.11192480287232     0.00000000000001
    6     0.50979459217129    -0.00000000000000    -0.06313825309498    -0.00000000000000    -0.00000000000001
    7    -0.00000000000000     0.44032215340065     0.00000000000000    -0.00000000000000    -0.02886505257660
    8    -0.06313825309498     0.00000000000000     0.59469927059929    -0.00000000000000    -0.00000000000000
    9    -0.00000000000000    -0.00000000000000    -0.00000000000000     0.59762395051465     0.00000000000000
   10    -0.00000000000001    -0.02886505257660    -0.00000000000000     0.00000000000000     0.64019053389009
   11    -0.00000000000000    -0.01219497063199    -0.00000000000000    -0.00000000000001    -0.06802615800499
   12    -0.08067926866881    -0.00000000000000     0.02138045500578     0.00000000000000     0.00000000000000
   13     0.00000000000000    -0.05365829913909    -0.00000000000000     0.00000000000001     0.04783192727962

                11                  12                  13

    1    -0.00744600128782    -0.00000000000000    -0.00267255326850
    2     0.07822351548925    -0.00000000000000     0.02992171503544
    3     0.00000000000000    -0.03448436776094     0.00000000000000
    4    -0.07806792281496    -0.00000000000000     0.05145955907849
    5     0.00000000000000     0.00000000000000     0.00000000000000
    6    -0.00000000000000    -0.08067926866881     0.00000000000000
    7    -0.01219497063199    -0.00000000000000    -0.05365829913909
    8    -0.00000000000000     0.02138045500578    -0.00000000000000
    9    -0.00000000000001     0.00000000000000     0.00000000000001
   10    -0.06802615800499     0.00000000000000     0.04783192727962
   11     0.57614228505998    -0.00000000000000    -0.01257617846826
   12    -0.00000000000000     0.69923014319984    -0.00000000000001
   13    -0.01257617846826    -0.00000000000001     0.71482392649820



	Presorting SO-basis two-electron integrals.
	Sorting File: SO Ints (nn|nn) nbuckets = 1
	Transforming the one-electron integrals and constructing Fock matrices
	Starting first half-transformation.
	Sorting half-transformed integrals.
	First half integral transformation complete.
	Starting second half-transformation.
	Two-electron integral transformation complete.

  Integral transformation done. 0.00819900 s
  Reading the two-electron integrals from disk
  Size of two-electron integrals:   0.000638 GB

                -----------------------------------------------
                  String-based Full Configuration Interaction
                          by Francesco A. Evangelista
                -----------------------------------------------

  Number of electrons: 6
  Charge: 0
  Multiplicity: 1
  M_s: 0

  ==> String Lists <==

  Number of alpha electrons     = 1
  Number of beta electrons      = 1
  Number of alpha strings       = 2
  Number of beta strings        = 2
  Timing for strings        =      0.000 s
  Timing for NN strings     =      0.000 s
  Timing for VO strings     =      0.000 s
  Timing for OO strings     =      0.000 s
  Timing for Knowles-Handy  =      0.000 s
  Timing for VVOO strings   =      0.000 s
  Timing for VOVO strings   =      0.000 s
  Timing for 1-hole strings =      0.000 s
  Timing for 2-hole strings =      0.000 s
  Timing for 3-hole strings =      0.000 s
  Total timing              =      0.000 s

  ==> FCI Solver <==

    Number of determinants                           4
    Symmetry                                         0
    Multiplicity                                     1
    Number of roots                                  1
    Target root                                      0

  Allocating memory for the Hamiltonian algorithm. Size: 2 x 2 x 2.   Memory: 0.000000 GB

  ==> FCI Initial Guess <==

  ---------------------------------------------
    Root            Energy     <S^2>   Spin
  ---------------------------------------------
      0      -15.510593525905  0.000  singlet
      1      -15.499519595175  2.000  triplet
      2      -15.436591245977  0.000  singlet
      3      -15.332162185984  0.000  singlet
  ---------------------------------------------
  Timing for initial guess  =      0.000 s

  ==> Diagonalizing Hamiltonian <==

  ----------------------------------------
    Iter.      Avg. Energy       Delta_E
  ----------------------------------------
      1      -15.510593525905  -1.551e+01
      2      -15.510593525905  -7.105e-15
  ----------------------------------------
  The Davidson-Liu algorithm converged in 3 iterations.

  ==> Root No. 0 <==

    20      0.98380529
    02     -0.17924046

    Total Energy:       -15.510593525904829
 # lambda #
 Irrep: 1
      1: -18.6670812
      2: -18.5930789
      3: -18.4886498
      4:  0.0000000

  ## b (Symmetry 0) ##
  Irrep: 1 Size: 4 x 4

                 1                   2                   3                   4

    1    -0.98380529440614    -0.00000000000001    -0.00000000000016     0.17924046055076
    2    -0.00000000000015     0.70710678118658     0.70710678118652    -0.00000000000016
    3    -0.17924046055076    -0.00000000000055     0.00000000000029    -0.98380529440614
    4     0.00000000000000     0.00000000000000     0.00000000000000     0.00000000000000





  ==> RDMs for Root No. 0 <==
 Inactive 0 1  ## C_core (Symmetry 0) ##
  Irrep: 1 Size: 13 x 2

                 1                   2

    1    -0.99218300119502     0.13739537492225
    2    -0.07899832626752    -0.15554041658884
    3    -0.00000000000000     0.00000000000000
    4    -0.00000000000000    -0.00000000000003
    5     0.00348096992577    -0.16348859369173
    6     0.03029472782238    -0.26388426274964
    7    -0.00000000000000     0.00000000000000
    8     0.00000000000000    -0.00000000000003
    9    -0.00082067383035    -0.03015002307534
   10     0.00274959733717    -0.18693877310893
   11    -0.00265608495549    -0.25167166633131
   12     0.00274959733717    -0.18693877310890
   13    -0.00265608495549    -0.25167166633125



 MINTS: Wrapper to libmints.
   by Justin Turney

   Calculation information:
      Number of atoms:                   3
      Number of AO shells:               9
      Number of SO shells:               9
      Number of primitives:             15
      Number of atomic orbitals:        13
      Number of basis functions:        13

      Number of irreps:                  1
      Integral cutoff                 1.00e-12
      Number of functions per irrep: [  13 ]

 OEINTS: Overlap, kinetic, potential, dipole, and quadrupole integrals
         stored in file 35.

      Computing two-electron integrals...done
      Computed 2260 non-zero two-electron integrals.
        Stored in file 33.

	Batch   1 pq = [       0,      91] index = [             0,4186]
  Irrep: 1 Size: 13 x 13

                 1                   2                   3                   4                   5

    1    -5.49620921932239     0.00453640492874    -0.00000000000000    -0.00977324723721     0.00000000000000
    2     0.00453640492874    -1.18627405351935     0.00000000000004    -0.04447778010741    -0.00000000000000
    3    -0.00000000000000     0.00000000000004    -0.62983947841657     0.00000000000001    -0.00000000000000
    4    -0.00977324723721    -0.04447778010741     0.00000000000001    -0.53515854271114     0.00000000000000
    5     0.00000000000000    -0.00000000000000    -0.00000000000000     0.00000000000000    -0.44794798231628
    6    -0.00000000000000    -0.00000000000000    -0.04925041149433    -0.00000000000001    -0.00000000000000
    7     0.00132433318945     0.03230296424854     0.00000000000000    -0.03250778210248     0.00000000000000
    8     0.00000000000001    -0.00000000000001    -0.03707249356322     0.00000000000000    -0.00000000000001
    9     0.00000000000000     0.00000000000000    -0.00000000000000     0.00000000000001     0.11143857132456
   10     0.01552997581982     0.04046269300905    -0.00000000000001     0.06796505563148    -0.00000000000001
   11     0.00731008310432    -0.07879651582638     0.00000000000001     0.01755214668816     0.00000000000000
   12     0.00000000000000     0.00000000000000     0.03321558658231    -0.00000000000002    -0.00000000000000
   13     0.00293806062598    -0.02935947336649    -0.00000000000000     0.06402248845598     0.00000000000000

                 6                   7                   8                   9                  10

    1    -0.00000000000000     0.00132433318945     0.00000000000001     0.00000000000000     0.01552997581982
    2    -0.00000000000000     0.03230296424854    -0.00000000000001     0.00000000000000     0.04046269300905
    3    -0.04925041149433     0.00000000000000    -0.03707249356322    -0.00000000000000    -0.00000000000001
    4    -0.00000000000001    -0.03250778210248     0.00000000000000     0.00000000000001     0.06796505563148
    5    -0.00000000000000     0.00000000000000    -0.00000000000001     0.11143857132456    -0.00000000000001
    6    -0.30813548262299    -0.00000000000001     0.06383700544742     0.00000000000000     0.00000000000002
    7    -0.00000000000001    -0.20574063148377    -0.00000000000000     0.00000000000001     0.04152629885216
    8     0.06383700544742    -0.00000000000000    -0.15319021386729    -0.00000000000000    -0.00000000000000
    9     0.00000000000000     0.00000000000001    -0.00000000000000    -0.14573474783467    -0.00000000000001
   10     0.00000000000002     0.04152629885216    -0.00000000000000    -0.00000000000001    -0.19353731358211
   11     0.00000000000000     0.00081258973059     0.00000000000001     0.00000000000001     0.07459338143674
   12     0.08237735355474     0.00000000000001    -0.02085393597798    -0.00000000000000     0.00000000000000
   13     0.00000000000001     0.07576773428815    -0.00000000000000    -0.00000000000001    -0.05548062721817

                11                  12                  13

    1     0.00731008310432     0.00000000000000     0.00293806062598
    2    -0.07879651582638     0.00000000000000    -0.02935947336649
    3     0.00000000000001     0.03321558658231    -0.00000000000000
    4     0.01755214668816    -0.00000000000002     0.06402248845598
    5     0.00000000000000    -0.00000000000000     0.00000000000000
    6     0.00000000000000     0.08237735355474     0.00000000000001
    7     0.00081258973059     0.00000000000001     0.07576773428815
    8     0.00000000000001    -0.02085393597798     0.00000000000000
    9     0.00000000000001    -0.00000000000000    -0.00000000000001
   10     0.07459338143674     0.00000000000000    -0.05548062721817
   11    -0.04080961038939    -0.00000000000001     0.01983559060983
   12    -0.00000000000001     0.59361319345011    -0.00000000000003
   13     0.01983559060983    -0.00000000000003     0.78301337339914



  ## C_active (Symmetry 0) ##
  Irrep: 1 Size: 13 x 2

                 1                   2

    1    -0.00000000000001    -0.17471528664203
    2     0.00000000000001     0.22841240322051
    3     0.00000000000000     0.00000000000000
    4    -0.33760615536976    -0.00000000000007
    5     0.00000000000000    -0.10713186158160
    6     0.00000000000001     1.00505984810060
    7     0.00000000000000    -0.00000000000000
    8    -0.33587483527119    -0.00000000000009
    9    -0.00000000000002     0.02444710052956
   10    -0.17171442371835    -0.15470889883395
   11    -0.37095519012673    -0.41227388538457
   12     0.17171442371840    -0.15470889883398
   13     0.37095519012680    -0.41227388538482



 MINTS: Wrapper to libmints.
   by Justin Turney

   Calculation information:
      Number of atoms:                   3
      Number of AO shells:               9
      Number of SO shells:               9
      Number of primitives:             15
      Number of atomic orbitals:        13
      Number of basis functions:        13

      Number of irreps:                  1
      Integral cutoff                 1.00e-12
      Number of functions per irrep: [  13 ]

 OEINTS: Overlap, kinetic, potential, dipole, and quadrupole integrals
         stored in file 35.

      Computing two-electron integrals...done
      Computed 2260 non-zero two-electron integrals.
        Stored in file 33.

	Batch   1 pq = [       0,      91] index = [             0,4186]
  ## F_act (Symmetry 0) ##
  Irrep: 1 Size: 13 x 13

                 1                   2                   3                   4                   5

    1     0.78914116539231    -0.00483084586130    -0.00000000000000     0.01012917239002    -0.00000000000000
    2    -0.00483084586130     0.66874622168945    -0.00000000000002     0.04165682187960     0.00000000000000
    3    -0.00000000000000    -0.00000000000002     0.36660622875218    -0.00000000000001     0.00000000000000
    4     0.01012917239002     0.04165682187960    -0.00000000000001     0.56479107319574     0.00000000000000
    5    -0.00000000000000     0.00000000000000     0.00000000000000     0.00000000000000     0.51935208782184
    6     0.00000000000000     0.00000000000000     0.04582231853096    -0.00000000000001     0.00000000000000
    7    -0.00133827377980    -0.03204918692468     0.00000000000000    -0.05259444112158     0.00000000000000
    8    -0.00000000000000     0.00000000000001     0.04114445082710     0.00000000000001     0.00000000000001
    9    -0.00000000000000    -0.00000000000000     0.00000000000000    -0.00000000000000    -0.11213276133385
   10    -0.01544443321266    -0.04085694782918     0.00000000000000    -0.02029240918733     0.00000000000001
   11    -0.00734848657472     0.07902343780117    -0.00000000000000    -0.08083882445581     0.00000000000000
   12    -0.00000000000000     0.00000000000000    -0.03446974130071     0.00000000000002     0.00000000000000
   13    -0.00290730398243     0.02897192252268    -0.00000000000001     0.05990997645277     0.00000000000000

                 6                   7                   8                   9                  10

    1     0.00000000000000    -0.00133827377980    -0.00000000000000    -0.00000000000000    -0.01544443321266
    2     0.00000000000000    -0.03204918692468     0.00000000000001    -0.00000000000000    -0.04085694782918
    3     0.04582231853096     0.00000000000000     0.04114445082710     0.00000000000000     0.00000000000000
    4    -0.00000000000001    -0.05259444112158     0.00000000000001    -0.00000000000000    -0.02029240918733
    5     0.00000000000000     0.00000000000000     0.00000000000001    -0.11213276133385     0.00000000000001
    6     0.51015017692845    -0.00000000000000    -0.06317850494450    -0.00000000000000    -0.00000000000001
    7    -0.00000000000000     0.43420441000884     0.00000000000000    -0.00000000000000    -0.02744850259320
    8    -0.06317850494450     0.00000000000000     0.59480232560734    -0.00000000000000     0.00000000000000
    9    -0.00000000000000    -0.00000000000000    -0.00000000000000     0.59815936729730     0.00000000000001
   10    -0.00000000000001    -0.02744850259320     0.00000000000000     0.00000000000001     0.64318855443532
   11    -0.00000000000001    -0.01730487669837    -0.00000000000001    -0.00000000000001    -0.06444533919462
   12    -0.08072217414113    -0.00000000000001     0.02158346787558     0.00000000000000    -0.00000000000000
   13     0.00000000000000    -0.04932322473383    -0.00000000000000     0.00000000000001     0.04565443433557

                11                  12                  13

    1    -0.00734848657472    -0.00000000000000    -0.00290730398243
    2     0.07902343780117     0.00000000000000     0.02897192252268
    3    -0.00000000000000    -0.03446974130071    -0.00000000000001
    4    -0.08083882445581     0.00000000000002     0.05990997645277
    5     0.00000000000000     0.00000000000000     0.00000000000000
    6    -0.00000000000001    -0.08072217414113     0.00000000000000
    7    -0.01730487669837    -0.00000000000001    -0.04932322473383
    8    -0.00000000000001     0.02158346787558    -0.00000000000000
    9    -0.00000000000001     0.00000000000000     0.00000000000001
   10    -0.06444533919462    -0.00000000000000     0.04565443433557
   11     0.57445344304636     0.00000000000000    -0.01022892731266
   12     0.00000000000000     0.69931190279788     0.00000000000003
   13    -0.01022892731266     0.00000000000003     0.71258902984079



	Presorting SO-basis two-electron integrals.
	Sorting File: SO Ints (nn|nn) nbuckets = 1
	Transforming the one-electron integrals and constructing Fock matrices
	Starting first half-transformation.
	Sorting half-transformed integrals.
	First half integral transformation complete.
	Starting second half-transformation.
	Two-electron integral transformation complete.

  Integral transformation done. 0.02511900 s
  Reading the two-electron integrals from disk
  Size of two-electron integrals:   0.000638 GB

                -----------------------------------------------
                  String-based Full Configuration Interaction
                          by Francesco A. Evangelista
                -----------------------------------------------

  Number of electrons: 6
  Charge: 0
  Multiplicity: 1
  M_s: 0

  ==> String Lists <==

  Number of alpha electrons     = 1
  Number of beta electrons      = 1
  Number of alpha strings       = 2
  Number of beta strings        = 2
  Timing for strings        =      0.000 s
  Timing for NN strings     =      0.000 s
  Timing for VO strings     =      0.000 s
  Timing for OO strings     =      0.000 s
  Timing for Knowles-Handy  =      0.000 s
  Timing for VVOO strings   =      0.000 s
  Timing for VOVO strings   =      0.000 s
  Timing for 1-hole strings =      0.000 s
  Timing for 2-hole strings =      0.000 s
  Timing for 3-hole strings =      0.000 s
  Total timing              =      0.000 s

  ==> FCI Solver <==

    Number of determinants                           4
    Symmetry                                         0
    Multiplicity                                     1
    Number of roots                                  1
    Target root                                      0

  Allocating memory for the Hamiltonian algorithm. Size: 2 x 2 x 2.   Memory: 0.000000 GB

  ==> FCI Initial Guess <==

  ---------------------------------------------
    Root            Energy     <S^2>   Spin
  ---------------------------------------------
      0      -15.510671343914  0.000  singlet
      1      -15.492975880803  2.000  triplet
      2      -15.428135227291  0.000  singlet
      3      -15.324154984008  0.000  singlet
  ---------------------------------------------
  Timing for initial guess  =      0.000 s

  ==> Diagonalizing Hamiltonian <==

  ----------------------------------------
    Iter.      Avg. Energy       Delta_E
  ----------------------------------------
      1      -15.510671343914  -1.551e+01
      2      -15.510671343914  +0.000e+00
  ----------------------------------------
  The Davidson-Liu algorithm converged in 3 iterations.

  ==> Root No. 0 <==

    20     -0.98428346
    02      0.17659576

    Total Energy:       -15.510671343914305
 # lambda #
 Irrep: 1
      1: -18.6671590
      2: -18.5846229
      3:  0.0000000
      4:  0.0000000

  ## b (Symmetry 0) ##
  Irrep: 1 Size: 4 x 4

                 1                   2                   3                   4

    1    -0.98428346436478    -0.00000000000010    -0.00000000000004     0.17659575809760
    2    -0.00000000000016     0.70710678118647     0.70710678118663    -0.00000000000033
    3     0.00000000000000     0.00000000000000     0.00000000000000     0.00000000000000
    4     0.00000000000000     0.00000000000000     0.00000000000000     0.00000000000000





  ==> RDMs for Root No. 0 <==
 Inactive 0 1  ## C_core (Symmetry 0) ##
  Irrep: 1 Size: 13 x 2

                 1                   2

    1    -0.99218578047958     0.13756557514213
    2    -0.07900275933023    -0.15554384282162
    3    -0.00000000000000     0.00000000000000
    4    -0.00000000000000    -0.00000000000006
    5     0.00345749246635    -0.16286866548185
    6     0.03031291356487    -0.26479205912025
    7    -0.00000000000000     0.00000000000000
    8    -0.00000000000000    -0.00000000000006
    9    -0.00081850749360    -0.02978425694344
   10     0.00275121306933    -0.18694659867520
   11    -0.00265749357673    -0.25155039626824
   12     0.00275121306933    -0.18694659867514
   13    -0.00265749357673    -0.25155039626811



 MINTS: Wrapper to libmints.
   by Justin Turney

   Calculation information:
      Number of atoms:                   3
      Number of AO shells:               9
      Number of SO shells:               9
      Number of primitives:             15
      Number of atomic orbitals:        13
      Number of basis functions:        13

      Number of irreps:                  1
      Integral cutoff                 1.00e-12
      Number of functions per irrep: [  13 ]

 OEINTS: Overlap, kinetic, potential, dipole, and quadrupole integrals
         stored in file 35.

      Computing two-electron integrals...done
      Computed 2260 non-zero two-electron integrals.
        Stored in file 33.

	Batch   1 pq = [       0,      91] index = [             0,4186]
  Irrep: 1 Size: 13 x 13

                 1                   2                   3                   4                   5

    1    -5.49620323675404     0.00455263365459     0.00000000000001    -0.00949876806970     0.00000000000000
    2     0.00455263365459    -1.18626879642566     0.00000000000008    -0.04423819739035    -0.00000000000000
    3     0.00000000000001     0.00000000000008    -0.63008850803818     0.00000000000002    -0.00000000000000
    4    -0.00949876806970    -0.04423819739036     0.00000000000002    -0.53049023468074     0.00000000000000
    5     0.00000000000000    -0.00000000000000    -0.00000000000000     0.00000000000000    -0.44797283643409
    6    -0.00000000000000    -0.00000000000000    -0.04913023350900    -0.00000000000002    -0.00000000000000
    7     0.00116234164238     0.03130117629543     0.00000000000000    -0.03685589176479     0.00000000000000
    8     0.00000000000001    -0.00000000000001    -0.03689302721043     0.00000000000000    -0.00000000000001
    9     0.00000000000000     0.00000000000000    -0.00000000000000     0.00000000000001     0.11145203517544
   10     0.01566296632292     0.04137626374044    -0.00000000000001     0.07163618225246    -0.00000000000001
   11     0.00724434757729    -0.07950439012413     0.00000000000001     0.01355346732056     0.00000000000000
   12     0.00000000000000    -0.00000000000000     0.03273407823161     0.00000000000000    -0.00000000000000
   13     0.00302282176621    -0.02872470947001     0.00000000000001     0.07518245167251     0.00000000000000

                 6                   7                   8                   9                  10

    1    -0.00000000000000     0.00116234164238     0.00000000000001     0.00000000000000     0.01566296632292
    2    -0.00000000000000     0.03130117629543    -0.00000000000001     0.00000000000000     0.04137626374044
    3    -0.04913023350900     0.00000000000000    -0.03689302721043    -0.00000000000000    -0.00000000000001
    4    -0.00000000000002    -0.03685589176479     0.00000000000000     0.00000000000001     0.07163618225246
    5    -0.00000000000000     0.00000000000000    -0.00000000000001     0.11145203517544    -0.00000000000001
    6    -0.30810584027388    -0.00000000000001     0.06390668038332     0.00000000000000     0.00000000000003
    7    -0.00000000000001    -0.20697312373248    -0.00000000000000     0.00000000000001     0.04340780029561
    8     0.06390668038332    -0.00000000000000    -0.15318852332273    -0.00000000000000    -0.00000000000001
    9     0.00000000000000     0.00000000000001    -0.00000000000000    -0.14573677337284    -0.00000000000001
   10     0.00000000000003     0.04340780029561    -0.00000000000001    -0.00000000000001    -0.19598191689059
   11     0.00000000000000     0.00073232473369     0.00000000000002     0.00000000000001     0.07520342935040
   12     0.08239872745068     0.00000000000002    -0.02086982559015    -0.00000000000000    -0.00000000000000
   13     0.00000000000003     0.07741939356653    -0.00000000000000    -0.00000000000001    -0.05741088420126

                11                  12                  13

    1     0.00724434757729     0.00000000000000     0.00302282176621
    2    -0.07950439012413    -0.00000000000000    -0.02872470947001
    3     0.00000000000001     0.03273407823160     0.00000000000002
    4     0.01355346732055     0.00000000000000     0.07518245167251
    5     0.00000000000000    -0.00000000000000     0.00000000000000
    6     0.00000000000000     0.08239872745068     0.00000000000003
    7     0.00073232473369     0.00000000000002     0.07741939356654
    8     0.00000000000002    -0.02086982559015    -0.00000000000000
    9     0.00000000000001    -0.00000000000000    -0.00000000000001
   10     0.07520342935040    -0.00000000000000    -0.05741088420126
   11    -0.04053191223445    -0.00000000000001     0.02043802675053
   12    -0.00000000000001     0.59340763730734    -0.00000000000007
   13     0.02043802675053    -0.00000000000007     0.78130665075813



  ## C_active (Symmetry 0) ##
  Irrep: 1 Size: 13 x 2

                 1                   2

    1    -0.00000000000002    -0.17582709263006
    2     0.00000000000002     0.24230767555043
    3     0.00000000000000     0.00000000000000
    4    -0.33778063629453    -0.00000000000012
    5     0.00000000000002    -0.08538146948823
    6     0.00000000000003     1.01322723174166
    7     0.00000000000000    -0.00000000000000
    8    -0.33511549967160    -0.00000000000015
    9    -0.00000000000001     0.04677780371905
   10    -0.17225476923302    -0.16512373949232
   11    -0.37097951302536    -0.42825745481706
   12     0.17225476923309    -0.16512373949245
   13     0.37097951302547    -0.42825745481742



 MINTS: Wrapper to libmints.
   by Justin Turney

   Calculation information:
      Number of atoms:                   3
      Number of AO shells:               9
      Number of SO shells:               9
      Number of primitives:             15
      Number of atomic orbitals:        13
      Number of basis functions:        13

      Number of irreps:                  1
      Integral cutoff                 1.00e-12
      Number of functions per irrep: [  13 ]

 OEINTS: Overlap, kinetic, potential, dipole, and quadrupole integrals
         stored in file 35.

      Computing two-electron integrals...done
      Computed 2260 non-zero two-electron integrals.
        Stored in file 33.

	Batch   1 pq = [       0,      91] index = [             0,4186]
  ## F_act (Symmetry 0) ##
  Irrep: 1 Size: 13 x 13

                 1                   2                   3                   4                   5

    1     0.78915909236191    -0.00481757889375    -0.00000000000000     0.00993757189538    -0.00000000000000
    2    -0.00481757889375     0.66920898912784    -0.00000000000004     0.04133729195868     0.00000000000000
    3    -0.00000000000000    -0.00000000000004     0.36678387811171    -0.00000000000003     0.00000000000000
    4     0.00993757189538     0.04133729195868    -0.00000000000003     0.56948886987013     0.00000000000000
    5    -0.00000000000000     0.00000000000000     0.00000000000000     0.00000000000000     0.51937911834376
    6     0.00000000000000     0.00000000000000     0.04607114777325    -0.00000000000002     0.00000000000000
    7    -0.00116839116215    -0.03126616317761     0.00000000000000    -0.05102462352846     0.00000000000000
    8    -0.00000000000001     0.00000000000001     0.04097180317548     0.00000000000003     0.00000000000001
    9    -0.00000000000000    -0.00000000000000     0.00000000000000    -0.00000000000000    -0.11213917468105
   10    -0.01571682058021    -0.04153103926739     0.00000000000000    -0.01733779396028     0.00000000000001
   11    -0.00722852855203     0.07958633640899    -0.00000000000000    -0.08167192715944     0.00000000000000
   12    -0.00000000000000     0.00000000000000    -0.03466575322708     0.00000000000004     0.00000000000000
   13    -0.00303731689390     0.02859113594603    -0.00000000000002     0.06330607401216     0.00000000000000

                 6                   7                   8                   9                  10

    1     0.00000000000000    -0.00116839116215    -0.00000000000001    -0.00000000000000    -0.01571682058021
    2     0.00000000000000    -0.03126616317761     0.00000000000001    -0.00000000000000    -0.04153103926739
    3     0.04607114777325     0.00000000000000     0.04097180317548     0.00000000000000     0.00000000000000
    4    -0.00000000000002    -0.05102462352846     0.00000000000003    -0.00000000000000    -0.01733779396028
    5     0.00000000000000     0.00000000000000     0.00000000000001    -0.11213917468105     0.00000000000001
    6     0.51023213945122    -0.00000000000000    -0.06332762233591    -0.00000000000000    -0.00000000000002
    7    -0.00000000000000     0.43226348076671     0.00000000000001    -0.00000000000000    -0.02693182613084
    8    -0.06332762233591     0.00000000000001     0.59482235220740    -0.00000000000000     0.00000000000000
    9    -0.00000000000000    -0.00000000000000    -0.00000000000000     0.59816535458727     0.00000000000001
   10    -0.00000000000002    -0.02693182613084     0.00000000000000     0.00000000000001     0.64399707336449
   11    -0.00000000000002    -0.01949449459329    -0.00000000000002    -0.00000000000001    -0.06355428979531
   12    -0.08083493312643    -0.00000000000001     0.02157252543769     0.00000000000000    -0.00000000000000
   13     0.00000000000000    -0.04774462379736    -0.00000000000001     0.00000000000001     0.04473088313713

                11                  12                  13

    1    -0.00722852855203    -0.00000000000000    -0.00303731689390
    2     0.07958633640899     0.00000000000000     0.02859113594603
    3    -0.00000000000000    -0.03466575322708    -0.00000000000002
    4    -0.08167192715944     0.00000000000004     0.06330607401216
    5     0.00000000000000     0.00000000000000     0.00000000000000
    6    -0.00000000000002    -0.08083493312643     0.00000000000000
    7    -0.01949449459329    -0.00000000000001    -0.04774462379736
    8    -0.00000000000002     0.02157252543769    -0.00000000000001
    9    -0.00000000000001     0.00000000000000     0.00000000000001
   10    -0.06355428979531    -0.00000000000000     0.04473088313713
   11     0.57275979270936     0.00000000000001    -0.00863337575266
   12     0.00000000000001     0.70005316112189     0.00000000000006
   13    -0.00863337575266     0.00000000000006     0.71209119336304



	Presorting SO-basis two-electron integrals.
	Sorting File: SO Ints (nn|nn) nbuckets = 1
	Transforming the one-electron integrals and constructing Fock matrices
	Starting first half-transformation.
	Sorting half-transformed integrals.
	First half integral transformation complete.
	Starting second half-transformation.
	Two-electron integral transformation complete.

  Integral transformation done. 0.00875000 s
  Reading the two-electron integrals from disk
  Size of two-electron integrals:   0.000638 GB

                -----------------------------------------------
                  String-based Full Configuration Interaction
                          by Francesco A. Evangelista
                -----------------------------------------------

  Number of electrons: 6
  Charge: 0
  Multiplicity: 1
  M_s: 0

  ==> String Lists <==

  Number of alpha electrons     = 1
  Number of beta electrons      = 1
  Number of alpha strings       = 2
  Number of beta strings        = 2
  Timing for strings        =      0.000 s
  Timing for NN strings     =      0.000 s
  Timing for VO strings     =      0.000 s
  Timing for OO strings     =      0.000 s
  Timing for Knowles-Handy  =      0.000 s
  Timing for VVOO strings   =      0.000 s
  Timing for VOVO strings   =      0.000 s
  Timing for 1-hole strings =      0.000 s
  Timing for 2-hole strings =      0.000 s
  Timing for 3-hole strings =      0.000 s
  Total timing              =      0.000 s

  ==> FCI Solver <==

    Number of determinants                           4
    Symmetry                                         0
    Multiplicity                                     1
    Number of roots                                  1
    Target root                                      0

  Allocating memory for the Hamiltonian algorithm. Size: 2 x 2 x 2.   Memory: 0.000000 GB

  ==> FCI Initial Guess <==

  ---------------------------------------------
    Root            Energy     <S^2>   Spin
  ---------------------------------------------
      0      -15.510692224854  0.000  singlet
      1      -15.489613399208  2.000  triplet
      2      -15.423825988895  0.000  singlet
      3      -15.319547022273  0.000  singlet
  ---------------------------------------------
  Timing for initial guess  =      0.000 s

  ==> Diagonalizing Hamiltonian <==

  ----------------------------------------
    Iter.      Avg. Energy       Delta_E
  ----------------------------------------
      1      -15.510692224854  -1.551e+01
      2      -15.510692224854  -3.553e-15
  ----------------------------------------
  The Davidson-Liu algorithm converged in 3 iterations.

  ==> Root No. 0 <==

    20     -0.98460792
    02      0.17477772

    Total Energy:       -15.510692224853772
 # lambda #
 Irrep: 1
      1: -18.6671799
      2: -18.5803136
      3: -18.4760347
      4:  0.0000000

  ## b (Symmetry 0) ##
  Irrep: 1 Size: 4 x 4

                 1                   2                   3                   4

    1    -0.98460791616677    -0.00000000000017    -0.00000000000009     0.17477772003817
    2    -0.00000000000031     0.70710678118656     0.70710678118654    -0.00000000000065
    3     0.17477772003816     0.00000000000027     0.00000000000071     0.98460791616677
    4     0.00000000000000     0.00000000000000     0.00000000000000     0.00000000000000





  ==> RDMs for Root No. 0 <==
 Inactive 0 1  ## C_core (Symmetry 0) ##
  Irrep: 1 Size: 13 x 2

                 1                   2

    1    -0.99218693126482     0.13772955883644
    2    -0.07899821783424    -0.15568460533999
    3    -0.00000000000000     0.00000000000000
    4    -0.00000000000000    -0.00000000000012
    5     0.00347077950010    -0.16258092931703
    6     0.03031854006012    -0.26577049585544
    7    -0.00000000000000     0.00000000000000
    8    -0.00000000000000    -0.00000000000012
    9    -0.00082404844480    -0.02982467508386
   10     0.00274812095532    -0.18684738464129
   11    -0.00266183813477    -0.25119327588400
   12     0.00274812095532    -0.18684738464116
   13    -0.00266183813477    -0.25119327588373



 MINTS: Wrapper to libmints.
   by Justin Turney

   Calculation information:
      Number of atoms:                   3
      Number of AO shells:               9
      Number of SO shells:               9
      Number of primitives:             15
      Number of atomic orbitals:        13
      Number of basis functions:        13

      Number of irreps:                  1
      Integral cutoff                 1.00e-12
      Number of functions per irrep: [  13 ]

 OEINTS: Overlap, kinetic, potential, dipole, and quadrupole integrals
         stored in file 35.

      Computing two-electron integrals...done
      Computed 2260 non-zero two-electron integrals.
        Stored in file 33.

	Batch   1 pq = [       0,      91] index = [             0,4186]
  Irrep: 1 Size: 13 x 13

                 1                   2                   3                   4                   5

    1    -5.49606681089119     0.00456466499639     0.00000000000001    -0.00938381411613     0.00000000000000
    2     0.00456466499639    -1.18628230993391     0.00000000000017    -0.04418915681346    -0.00000000000000
    3     0.00000000000001     0.00000000000017    -0.63027958542622     0.00000000000003    -0.00000000000000
    4    -0.00938381411613    -0.04418915681346     0.00000000000003    -0.52815087691815     0.00000000000000
    5     0.00000000000000    -0.00000000000000    -0.00000000000000     0.00000000000000    -0.44796720740354
    6    -0.00000000000001    -0.00000000000001    -0.04897974758086    -0.00000000000003    -0.00000000000000
    7     0.00110027045048     0.03099291868036    -0.00000000000000    -0.03834908709300     0.00000000000000
    8     0.00000000000002    -0.00000000000002    -0.03680686803726     0.00000000000000    -0.00000000000001
    9     0.00000000000000     0.00000000000000    -0.00000000000000     0.00000000000001     0.11144034685068
   10     0.01581514264235     0.04173765480191    -0.00000000000001     0.07311799084543    -0.00000000000001
   11     0.00716481475585    -0.07989768782588     0.00000000000001     0.01089974733995     0.00000000000000
   12     0.00000000000000    -0.00000000000000     0.03264625642897     0.00000000000002    -0.00000000000000
   13     0.00309588375216    -0.02847262364010     0.00000000000003     0.08131615464941     0.00000000000000

                 6                   7                   8                   9                  10

    1    -0.00000000000001     0.00110027045048     0.00000000000002     0.00000000000000     0.01581514264235
    2    -0.00000000000001     0.03099291868036    -0.00000000000002     0.00000000000000     0.04173765480191
    3    -0.04897974758086    -0.00000000000000    -0.03680686803726    -0.00000000000000    -0.00000000000001
    4    -0.00000000000003    -0.03834908709300     0.00000000000000     0.00000000000001     0.07311799084543
    5    -0.00000000000000     0.00000000000000    -0.00000000000001     0.11144034685068    -0.00000000000001
    6    -0.30806067141354    -0.00000000000003     0.06396224069034     0.00000000000000     0.00000000000006
    7    -0.00000000000003    -0.20749878049907     0.00000000000000     0.00000000000001     0.04423915422185
    8     0.06396224069034     0.00000000000000    -0.15315852578510    -0.00000000000000    -0.00000000000002
    9     0.00000000000000     0.00000000000001    -0.00000000000000    -0.14567994314151    -0.00000000000001
   10     0.00000000000006     0.04423915422185    -0.00000000000002    -0.00000000000001    -0.19711864299310
   11     0.00000000000001     0.00059794052642     0.00000000000005     0.00000000000001     0.07568929651143
   12     0.08242807132640     0.00000000000003    -0.02085510746062    -0.00000000000000    -0.00000000000000
   13     0.00000000000005     0.07823061398897    -0.00000000000001    -0.00000000000001    -0.05841925719482

                11                  12                  13

    1     0.00716481475585     0.00000000000000     0.00309588375216
    2    -0.07989768782588    -0.00000000000000    -0.02847262364010
    3     0.00000000000001     0.03264625642897     0.00000000000003
    4     0.01089974733995     0.00000000000002     0.08131615464941
    5     0.00000000000000    -0.00000000000000     0.00000000000000
    6     0.00000000000001     0.08242807132640     0.00000000000005
    7     0.00059794052642     0.00000000000004     0.07823061398897
    8     0.00000000000005    -0.02085510746062    -0.00000000000001
    9     0.00000000000001    -0.00000000000000    -0.00000000000001
   10     0.07568929651143    -0.00000000000000    -0.05841925719482
   11    -0.04038404888706    -0.00000000000002     0.02088019515274
   12    -0.00000000000002     0.59316709112309    -0.00000000000015
   13     0.02088019515274    -0.00000000000015     0.78016414064790



  ## C_active (Symmetry 0) ##
  Irrep: 1 Size: 13 x 2

                 1                   2

    1    -0.00000000000005    -0.17621213558945
    2     0.00000000000005     0.25155023901965
    3     0.00000000000000     0.00000000000000
    4    -0.33766564574980    -0.00000000000024
    5     0.00000000000004    -0.07492626275246
    6     0.00000000000008     1.01191864490741
    7     0.00000000000000    -0.00000000000000
    8    -0.33433355165606    -0.00000000000029
    9    -0.00000000000002     0.05443343801880
   10    -0.17251819422825    -0.17064946042005
   11    -0.37154073656457    -0.43354415455000
   12     0.17251819422840    -0.17064946042032
   13     0.37154073656479    -0.43354415455069



 MINTS: Wrapper to libmints.
   by Justin Turney

   Calculation information:
      Number of atoms:                   3
      Number of AO shells:               9
      Number of SO shells:               9
      Number of primitives:             15
      Number of atomic orbitals:        13
      Number of basis functions:        13

      Number of irreps:                  1
      Integral cutoff                 1.00e-12
      Number of functions per irrep: [  13 ]

 OEINTS: Overlap, kinetic, potential, dipole, and quadrupole integrals
         stored in file 35.

      Computing two-electron integrals...done
      Computed 2260 non-zero two-electron integrals.
        Stored in file 33.

	Batch   1 pq = [       0,      91] index = [             0,4186]
  ## F_act (Symmetry 0) ##
  Irrep: 1 Size: 13 x 13

                 1                   2                   3                   4                   5

    1     0.78905580396127    -0.00480801230624    -0.00000000000001     0.00985052777057    -0.00000000000000
    2    -0.00480801230624     0.66949524279136    -0.00000000000008     0.04113074915872     0.00000000000000
    3    -0.00000000000001    -0.00000000000008     0.36689102374580    -0.00000000000006     0.00000000000000
    4     0.00985052777057     0.04113074915872    -0.00000000000006     0.57204304453233     0.00000000000000
    5    -0.00000000000000     0.00000000000000     0.00000000000000     0.00000000000000     0.51936984484228
    6     0.00000000000001     0.00000000000001     0.04622128109884    -0.00000000000004     0.00000000000000
    7    -0.00110311901649    -0.03097753625373     0.00000000000001    -0.05047755070957     0.00000000000000
    8    -0.00000000000002     0.00000000000002     0.04083142247031     0.00000000000005     0.00000000000001
    9    -0.00000000000000    -0.00000000000000     0.00000000000000    -0.00000000000000    -0.11212146176401
   10    -0.01586212160413    -0.04182360465821     0.00000000000001    -0.01584520241872     0.00000000000001
   11    -0.00714967190429     0.07993837121039    -0.00000000000001    -0.08199998960263     0.00000000000000
   12    -0.00000000000000     0.00000000000000    -0.03481440380630     0.00000000000008     0.00000000000000
   13    -0.00310921283445     0.02837501650938    -0.00000000000004     0.06496163495141     0.00000000000000

                 6                   7                   8                   9                  10

    1     0.00000000000001    -0.00110311901649    -0.00000000000002    -0.00000000000000    -0.01586212160413
    2     0.00000000000001    -0.03097753625373     0.00000000000002    -0.00000000000000    -0.04182360465821
    3     0.04622128109884     0.00000000000001     0.04083142247031     0.00000000000000     0.00000000000001
    4    -0.00000000000004    -0.05047755070957     0.00000000000005    -0.00000000000000    -0.01584520241872
    5     0.00000000000000     0.00000000000000     0.00000000000001    -0.11212146176401     0.00000000000001
    6     0.51024194734733    -0.00000000000001    -0.06344042765932    -0.00000000000000    -0.00000000000003
    7    -0.00000000000001     0.43148824270746     0.00000000000001    -0.00000000000000    -0.02666311515859
    8    -0.06344042765932     0.00000000000001     0.59482421657076    -0.00000000000000     0.00000000000001
    9    -0.00000000000000    -0.00000000000000    -0.00000000000000     0.59811407353918     0.00000000000001
   10    -0.00000000000003    -0.02666311515859     0.00000000000001     0.00000000000001     0.64430258185284
[...]
        Stored in file 33.

	Batch   1 pq = [       0,      91] index = [             0,4186]
  ## F_act (Symmetry 0) ##
  Irrep: 1 Size: 13 x 13

                 1                   2                   3                   4                   5

    1     0.78869561507110    -0.00479083704487    -0.00000000000408     0.00973373123643     0.00000000000000
    2    -0.00479083704487     0.66992805907775    -0.00000000004890     0.04096309494549     0.00000000000000
    3    -0.00000000000408    -0.00000000004890     0.36710700427561    -0.00000000003349     0.00000000000000
    4     0.00973373123643     0.04096309494549    -0.00000000003349     0.57527821594760     0.00000000000000
    5     0.00000000000000     0.00000000000000     0.00000000000000     0.00000000000000     0.51930695566211
    6     0.00000000000432     0.00000000000632     0.04646296457112    -0.00000000002581     0.00000000000000
    7    -0.00104052774940    -0.03066252503980     0.00000000000621    -0.05007330350138     0.00000000000000
    8    -0.00000000001378     0.00000000001221     0.04056494375127     0.00000000003226     0.00000000000001
    9    -0.00000000000000    -0.00000000000000     0.00000000000000    -0.00000000000000    -0.11205445342093
   10    -0.01606234852216    -0.04213236462497     0.00000000000083    -0.01396938636069     0.00000000000001
   11    -0.00703277614370     0.08044012433647    -0.00000000000650    -0.08229845725417     0.00000000000000
   12    -0.00000000000239     0.00000000000150    -0.03509756686488     0.00000000005118     0.00000000000000
   13    -0.00320531697930     0.02809795586224    -0.00000000002273     0.06699549322367     0.00000000000000

                 6                   7                   8                   9                  10

    1     0.00000000000432    -0.00104052774940    -0.00000000001378    -0.00000000000000    -0.01606234852216
    2     0.00000000000632    -0.03066252503980     0.00000000001221    -0.00000000000000    -0.04213236462497
    3     0.04646296457112     0.00000000000621     0.04056494375127     0.00000000000000     0.00000000000083
    4    -0.00000000002581    -0.05007330350138     0.00000000003226    -0.00000000000000    -0.01396938636069
    5     0.00000000000000     0.00000000000000     0.00000000000001    -0.11205445342093     0.00000000000001
    6     0.51018927175469    -0.00000000000480    -0.06364287396396    -0.00000000000000    -0.00000000001538
    7    -0.00000000000480     0.43066416416813     0.00000000000573    -0.00000000000000    -0.02630606681043
    8    -0.06364287396396     0.00000000000573     0.59480462162824    -0.00000000000000     0.00000000000682
    9    -0.00000000000000    -0.00000000000000    -0.00000000000000     0.59794255471490     0.00000000000001
   10    -0.00000000001538    -0.02630606681043     0.00000000000682     0.00000000000001     0.64457004754495
   11    -0.00000000002721    -0.02177812370570    -0.00000000002559    -0.00000000000001    -0.06290742745378
   12    -0.08103924084015    -0.00000000001531     0.02144708525176     0.00000000000000    -0.00000000000317
   13     0.00000000000376    -0.04633980801557    -0.00000000000275     0.00000000000001     0.04359854057058

                11                  12                  13

    1    -0.00703277614370    -0.00000000000239    -0.00320531697930
    2     0.08044012433647     0.00000000000150     0.02809795586224
    3    -0.00000000000650    -0.03509756686488    -0.00000000002273
    4    -0.08229845725417     0.00000000005118     0.06699549322367
    5     0.00000000000000     0.00000000000000     0.00000000000000
    6    -0.00000000002721    -0.08103924084015     0.00000000000376
    7    -0.02177812370570    -0.00000000001531    -0.04633980801557
    8    -0.00000000002559     0.02144708525176    -0.00000000000275
    9    -0.00000000000001     0.00000000000000     0.00000000000001
   10    -0.06290742745378    -0.00000000000317     0.04359854057058
   11     0.57017788095498     0.00000000001124    -0.00639473890950
   12     0.00000000001124     0.70154275754359     0.00000000007587
   13    -0.00639473890950     0.00000000007587     0.71198692264965



	Presorting SO-basis two-electron integrals.
	Sorting File: SO Ints (nn|nn) nbuckets = 1
	Transforming the one-electron integrals and constructing Fock matrices
	Starting first half-transformation.
	Sorting half-transformed integrals.
	First half integral transformation complete.
	Starting second half-transformation.
	Two-electron integral transformation complete.

  Integral transformation done. 0.00853600 s
  Reading the two-electron integrals from disk
  Size of two-electron integrals:   0.000638 GB

                -----------------------------------------------
                  String-based Full Configuration Interaction
                          by Francesco A. Evangelista
                -----------------------------------------------

  Number of electrons: 6
  Charge: 0
  Multiplicity: 1
  M_s: 0

  ==> String Lists <==

  Number of alpha electrons     = 1
  Number of beta electrons      = 1
  Number of alpha strings       = 2
  Number of beta strings        = 2
  Timing for strings        =      0.000 s
  Timing for NN strings     =      0.000 s
  Timing for VO strings     =      0.000 s
  Timing for OO strings     =      0.000 s
  Timing for Knowles-Handy  =      0.000 s
  Timing for VVOO strings   =      0.000 s
  Timing for VOVO strings   =      0.000 s
  Timing for 1-hole strings =      0.000 s
  Timing for 2-hole strings =      0.000 s
  Timing for 3-hole strings =      0.000 s
  Total timing              =      0.000 s

  ==> FCI Solver <==

    Number of determinants                           4
    Symmetry                                         0
    Multiplicity                                     1
    Number of roots                                  1
    Target root                                      0

  Allocating memory for the Hamiltonian algorithm. Size: 2 x 2 x 2.   Memory: 0.000000 GB

  ==> FCI Initial Guess <==

  ---------------------------------------------
    Root            Energy     <S^2>   Spin
  ---------------------------------------------
      0      -15.510702571467  0.000  singlet
      1      -15.485392608737  2.000  triplet
      2      -15.418441405412  0.000  singlet
      3      -15.313424955160  0.000  singlet
  ---------------------------------------------
  Timing for initial guess  =      0.000 s

  ==> Diagonalizing Hamiltonian <==

  ----------------------------------------
    Iter.      Avg. Energy       Delta_E
  ----------------------------------------
      1      -15.510702571467  -1.551e+01
      2      -15.510702571467  +3.553e-15
  ----------------------------------------
  The Davidson-Liu algorithm converged in 3 iterations.

  ==> Root No. 0 <==

    20      0.98505100
    02     -0.17226294

    Total Energy:       -15.510702571467204
 # lambda #
 Irrep: 1
      1: -18.6671902
      2: -18.5749291
      3: -18.4699126
      4:  0.0000000

  ## b (Symmetry 0) ##
  Irrep: 1 Size: 4 x 4

                 1                   2                   3                   4

    1    -0.98505100301129    -0.00000000015410    -0.00000000015394     0.17226294281261
    2    -0.00000000035453     0.70710678118650     0.70710678118660    -0.00000000076285
    3     0.17226294281261     0.00000000057455     0.00000000057452     0.98505100301129
    4     0.00000000000000     0.00000000000000     0.00000000000000     0.00000000000000





  ==> RDMs for Root No. 0 <==
 Inactive 0 1  ## C_core (Symmetry 0) ##
  Irrep: 1 Size: 13 x 2

                 1                   2

    1    -0.99218806623798     0.13807748042043
    2    -0.07898647388689    -0.15608015557687
    3    -0.00000000000000     0.00000000000000
    4    -0.00000000000098    -0.00000000014796
    5     0.00350004351586    -0.16208447030078
    6     0.03031975061173    -0.26780678991588
    7    -0.00000000000000     0.00000000000000
    8    -0.00000000000014    -0.00000000014449
    9    -0.00083462682844    -0.02985880537272
   10     0.00274242993912    -0.18666451369931
   11    -0.00266830576662    -0.25037899909477
   12     0.00274242993954    -0.18666451354781
   13    -0.00266830576570    -0.25037899875686



 MINTS: Wrapper to libmints.
   by Justin Turney

   Calculation information:
      Number of atoms:                   3
      Number of AO shells:               9
      Number of SO shells:               9
      Number of primitives:             15
      Number of atomic orbitals:        13
      Number of basis functions:        13

      Number of irreps:                  1
      Integral cutoff                 1.00e-12
      Number of functions per irrep: [  13 ]

 OEINTS: Overlap, kinetic, potential, dipole, and quadrupole integrals
         stored in file 35.

      Computing two-electron integrals...done
      Computed 2260 non-zero two-electron integrals.
        Stored in file 33.

	Batch   1 pq = [       0,      91] index = [             0,4186]
  Irrep: 1 Size: 13 x 13

                 1                   2                   3                   4                   5

    1    -5.49571254239995     0.00458869467073     0.00000000001253    -0.00924914450685    -0.00000000000000
    2     0.00458869467073    -1.18631550489115     0.00000000020609    -0.04442052936984    -0.00000000000000
    3     0.00000000001253     0.00000000020609    -0.63064321236871     0.00000000004037    -0.00000000000000
    4    -0.00924914450685    -0.04442052936984     0.00000000004037    -0.52524661115310     0.00000000000000
    5    -0.00000000000000    -0.00000000000000    -0.00000000000000     0.00000000000000    -0.44793812527144
    6    -0.00000000000870    -0.00000000001479    -0.04863775977263    -0.00000000002575    -0.00000000000000
    7     0.00104031378547     0.03066230764614    -0.00000000000631    -0.03958014428917     0.00000000000000
    8     0.00000000002580    -0.00000000002403    -0.03672779488201     0.00000000001094    -0.00000000000001
    9     0.00000000000000     0.00000000000000    -0.00000000000000     0.00000000000001     0.11140287066805
   10     0.01606307580096     0.04213089005404    -0.00000000000531     0.07481809914302    -0.00000000000001
   11     0.00703251331711    -0.08044142456094     0.00000000001798     0.00727801384004     0.00000000000000
   12     0.00000000000465    -0.00000000000509     0.03268008614120     0.00000000002555    -0.00000000000000
   13     0.00320566236663    -0.02809980090094     0.00000000003446     0.08910617603847     0.00000000000000

                 6                   7                   8                   9                  10

    1    -0.00000000000870     0.00104031378547     0.00000000002580     0.00000000000000     0.01606307580096
    2    -0.00000000001479     0.03066230764615    -0.00000000002403     0.00000000000000     0.04213089005404
    3    -0.04863775977263    -0.00000000000631    -0.03672779488201    -0.00000000000000    -0.00000000000531
    4    -0.00000000002575    -0.03958014428917     0.00000000001094     0.00000000000001     0.07481809914302
    5    -0.00000000000000     0.00000000000000    -0.00000000000001     0.11140287066805    -0.00000000000001
    6    -0.30794783098722    -0.00000000003806     0.06406664304964     0.00000000000000     0.00000000006202
    7    -0.00000000003806    -0.20801869833253     0.00000000000571     0.00000000000001     0.04517385362732
    8     0.06406664304964     0.00000000000571    -0.15308553586856    -0.00000000000000    -0.00000000002759
    9     0.00000000000000     0.00000000000001    -0.00000000000000    -0.14552973672943    -0.00000000000001
   10     0.00000000006202     0.04517385362732    -0.00000000002759    -0.00000000000001    -0.19847741822371
   11     0.00000000001231     0.00037952528061     0.00000000006208     0.00000000000001     0.07645849721121
   12     0.08249143842522     0.00000000004119    -0.02080290310690    -0.00000000000000     0.00000000000035
   13     0.00000000007736     0.07919725945718    -0.00000000002615    -0.00000000000001    -0.05971150283044

                11                  12                  13

    1     0.00703251331711     0.00000000000465     0.00320566236663
    2    -0.08044142456094    -0.00000000000509    -0.02809980090094
    3     0.00000000001798     0.03268008614120     0.00000000003446
    4     0.00727801384004     0.00000000002555     0.08910617603847
    5     0.00000000000000    -0.00000000000000     0.00000000000000
    6     0.00000000001231     0.08249143842522     0.00000000007736
    7     0.00037952528060     0.00000000004119     0.07919725945718
    8     0.00000000006208    -0.02080290310690    -0.00000000002615
    9     0.00000000000001    -0.00000000000000    -0.00000000000001
   10     0.07645849721121     0.00000000000035    -0.05971150283044
   11    -0.04023220875281    -0.00000000001769     0.02153985262807
   12    -0.00000000001769     0.59265439095948    -0.00000000018247
   13     0.02153985262807    -0.00000000018247     0.77841081090669



  ## C_active (Symmetry 0) ##
  Irrep: 1 Size: 13 x 2

                 1                   2

    1    -0.00000000005848    -0.17646882636207
    2     0.00000000006496     0.26407687020810
    3     0.00000000000000    -0.00000000000000
    4    -0.33713114392159    -0.00000000029682
    5     0.00000000005085    -0.06198203961484
    6     0.00000000009825     1.00662861794025
    7     0.00000000000000    -0.00000000000000
    8    -0.33272044251960    -0.00000000034496
    9    -0.00000000001552     0.06086181534653
   10    -0.17292931881488    -0.17770116933723
   11    -0.37307709475351    -0.43829716202579
   12     0.17292931899907    -0.17770116967003
   13     0.37307709501322    -0.43829716283590



 MINTS: Wrapper to libmints.
   by Justin Turney

   Calculation information:
      Number of atoms:                   3
      Number of AO shells:               9
      Number of SO shells:               9
      Number of primitives:             15
      Number of atomic orbitals:        13
      Number of basis functions:        13

      Number of irreps:                  1
      Integral cutoff                 1.00e-12
      Number of functions per irrep: [  13 ]

 OEINTS: Overlap, kinetic, potential, dipole, and quadrupole integrals
         stored in file 35.

      Computing two-electron integrals...done
      Computed 2260 non-zero two-electron integrals.
        Stored in file 33.

	Batch   1 pq = [       0,      91] index = [             0,4186]
  ## F_act (Symmetry 0) ##
  Irrep: 1 Size: 13 x 13

                 1                   2                   3                   4                   5

    1     0.78869301561194    -0.00479080324803    -0.00000000000829     0.00973322782717     0.00000000000000
    2    -0.00479080324803     0.66992970831808    -0.00000000009935     0.04096464190017     0.00000000000000
    3    -0.00000000000829    -0.00000000009935     0.36710857265964    -0.00000000006803     0.00000000000000
    4     0.00973322782717     0.04096464190017    -0.00000000006803     0.57528956070050     0.00000000000000
    5     0.00000000000000     0.00000000000000     0.00000000000000     0.00000000000000     0.51930644068112
    6     0.00000000000878     0.00000000001285     0.04646421584455    -0.00000000005243     0.00000000000000
    7    -0.00104034551454    -0.03066063290472     0.00000000001262    -0.05007272044807     0.00000000000000
    8    -0.00000000002800     0.00000000002481     0.04056346406964     0.00000000006556     0.00000000000001
    9    -0.00000000000000    -0.00000000000000     0.00000000000000    -0.00000000000000    -0.11205395800053
   10    -0.01606313509087    -0.04213290172819     0.00000000000168    -0.01396310475944     0.00000000000001
   11    -0.00703232582390     0.08044234258789    -0.00000000001321    -0.08229851325138     0.00000000000000
   12    -0.00000000000485     0.00000000000305    -0.03509923818190     0.00000000010400     0.00000000000000
   13    -0.00320569885083     0.02809685104237    -0.00000000004620     0.06700306679169     0.00000000000000

                 6                   7                   8                   9                  10

    1     0.00000000000878    -0.00104034551454    -0.00000000002800    -0.00000000000000    -0.01606313509087
    2     0.00000000001285    -0.03066063290472     0.00000000002481    -0.00000000000000    -0.04213290172819
    3     0.04646421584455     0.00000000001262     0.04056346406964     0.00000000000000     0.00000000000168
    4    -0.00000000005243    -0.05007272044807     0.00000000006556    -0.00000000000000    -0.01396310475944
    5     0.00000000000000     0.00000000000000     0.00000000000001    -0.11205395800053     0.00000000000001
    6     0.51018871004176    -0.00000000000975    -0.06364399498731    -0.00000000000000    -0.00000000003123
    7    -0.00000000000975     0.43066112116773     0.00000000001164    -0.00000000000000    -0.02630495668369
    8    -0.06364399498731     0.00000000001164     0.59480444242921    -0.00000000000000     0.00000000001387
    9    -0.00000000000000    -0.00000000000000    -0.00000000000000     0.59794134643457     0.00000000000001
   10    -0.00000000003123    -0.02630495668369     0.00000000001387     0.00000000000001     0.64457062303134
   11    -0.00000000005529    -0.02178219171658    -0.00000000005201    -0.00000000000001    -0.06290725074437
   12    -0.08103980962537    -0.00000000003111     0.02144653025080     0.00000000000000    -0.00000000000644
   13     0.00000000000764    -0.04633740821880    -0.00000000000558     0.00000000000001     0.04359605573554

                11                  12                  13

    1    -0.00703232582390    -0.00000000000485    -0.00320569885083
    2     0.08044234258789     0.00000000000305     0.02809685104237
    3    -0.00000000001321    -0.03509923818190    -0.00000000004620
    4    -0.08229851325138     0.00000000010400     0.06700306679169
    5     0.00000000000000     0.00000000000000     0.00000000000000
    6    -0.00000000005529    -0.08103980962537     0.00000000000764
    7    -0.02178219171658    -0.00000000003111    -0.04633740821880
    8    -0.00000000005201     0.02144653025080    -0.00000000000558
    9    -0.00000000000001     0.00000000000000     0.00000000000001
   10    -0.06290725074437    -0.00000000000644     0.04359605573554
   11     0.57017321785321     0.00000000002283    -0.00639021438877
   12     0.00000000002283     0.70154778138728     0.00000000015417
   13    -0.00639021438877     0.00000000015417     0.71198863974389



	Presorting SO-basis two-electron integrals.
	Sorting File: SO Ints (nn|nn) nbuckets = 1
	Transforming the one-electron integrals and constructing Fock matrices
	Starting first half-transformation.
	Sorting half-transformed integrals.
	First half integral transformation complete.
	Starting second half-transformation.
	Two-electron integral transformation complete.

  Integral transformation done. 0.00847300 s
  Reading the two-electron integrals from disk
  Size of two-electron integrals:   0.000638 GB
 iter    g_norm      E_CASSCF
 0  0.001325398481   -15.506736886334
 1  0.001567392614   -15.510139811011
 2  0.000662391616   -15.510593525905
 3  0.000379045990   -15.510671343914
 4  0.000250636971   -15.510692224854
 5  0.000165708111   -15.510698921197
 6  0.000109106189   -15.510701236674
 7  0.000071600653   -15.510702071230
 8  0.000046898165   -15.510702380637
 9  0.000030661687   -15.510702497836
 10  0.000020008812   -15.510702542989
 11  0.000013031791   -15.510702560623
 12  0.000008471415   -15.510702567585
 13  0.000005496873   -15.510702570356
 14  0.000003560745   -15.510702571467

  Your calculation took 3.30886200 seconds

*** PSI4 exiting successfully. Buy a developer a beer!
