
    -----------------------------------------------------------------------
          Psi4: An Open-Source Ab Initio Electronic Structure Package
                               Psi4 undefined 

                         Git: Rev {master} 3c26e8e 


    R. M. Parrish, L. A. Burns, D. G. A. Smith, A. C. Simmonett,
    A. E. DePrince III, E. G. Hohenstein, U. Bozkaya, A. Yu. Sokolov,
    R. Di Remigio, R. M. Richard, J. F. Gonthier, A. M. James,
    H. R. McAlexander, A. Kumar, M. Saitow, X. Wang, B. P. Pritchard,
    P. Verma, H. F. Schaefer III, K. Patkowski, R. A. King, E. F. Valeev,
    F. A. Evangelista, J. M. Turney, T. D. Crawford, and C. D. Sherrill,
    J. Chem. Theory Comput. 13(7) pp 3185--3197 (2017).
    (doi: 10.1021/acs.jctc.7b00174)


                         Additional Contributions by
    P. Kraus, H. Kruse, M. H. Lechner, M. C. Schieber, and R. A. Shaw

    -----------------------------------------------------------------------


    Psi4 started on: Thursday, 25 October 2018 04:18PM

    Process ID: 93542
    Host:       jeffschriber
    PSIDATADIR: /Users/jeffschriber/src/psi4-debug-install/share/psi4
    Memory:     500.0 MiB
    Threads:    1
    
  ==> Input File <==

--------------------------------------------------------------------------
#! This tests the Adaptive Path-Integral FCI procedure with dynamic prescreening
#! Generated using commit GITCOMMIT

import forte

refscf = -14.6097447380899563 #TEST
refpci = -14.646161244794 #TEST

molecule li2{
   Li
   Li 1 2.0000
}

set {
  basis sto-3g
  scf_type pk
  e_convergence 12
}

set forte {
  job_type pci_hashvec
  PCI_GENERATOR DL
  pci_spawning_threshold 0.0001
  pci_e_convergence 12
  PCI_STOP_HIGHER_NEW_LOW true
}

energy('scf')
compare_values(refscf, get_variable("CURRENT ENERGY"), 10, "SCF energy") #TEST

energy('forte')
compare_values(refpci, get_variable("PCI ENERGY"), 9, "PCI energy") #TEST
--------------------------------------------------------------------------

*** tstart() called on jeffschriber
*** at Thu Oct 25 16:18:25 2018

   => Loading Basis Set <=

    Name: STO-3G
    Role: ORBITAL
    Keyword: BASIS
    atoms 1-2 entry LI         line    31 file /Users/jeffschriber/src/psi4-debug-install/share/psi4/basis/sto-3g.gbs 


         ---------------------------------------------------------
                                   SCF
            by Justin Turney, Rob Parrish, Andy Simmonett
                             and Daniel Smith
                              RHF Reference
                        1 Threads,    500 MiB Core
         ---------------------------------------------------------

  ==> Geometry <==

    Molecular point group: d2h
    Full point group: D_inf_h

    Geometry (in Angstrom), charge = 0, multiplicity = 1:

       Center              X                  Y                   Z               Mass       
    ------------   -----------------  -----------------  -----------------  -----------------
         LI           0.000000000000     0.000000000000    -1.000000000000     7.016004548000
         LI           0.000000000000     0.000000000000     1.000000000000     7.016004548000

  Running in d2h symmetry.

  Rotational constants: A = ************  B =      1.20137  C =      1.20137 [cm^-1]
  Rotational constants: A = ************  B =  36016.15459  C =  36016.15459 [MHz]
  Nuclear repulsion =    2.381297448014999

  Charge       = 0
  Multiplicity = 1
  Electrons    = 6
  Nalpha       = 3
  Nbeta        = 3

  ==> Algorithm <==

  SCF Algorithm Type is PK.
  DIIS enabled.
  MOM disabled.
  Fractional occupation disabled.
  Guess Type is SAD.
  Energy threshold   = 1.00e-12
  Density threshold  = 1.00e-06
  Integral threshold = 0.00e+00

  ==> Primary Basis <==

  Basis Set: STO-3G
    Blend: STO-3G
    Number of shells: 6
    Number of basis function: 10
    Number of Cartesian functions: 10
    Spherical Harmonics?: true
    Max angular momentum: 1

  ==> Pre-Iterations <==

   -------------------------------------------------------
    Irrep   Nso     Nmo     Nalpha   Nbeta   Ndocc  Nsocc
   -------------------------------------------------------
     Ag         3       3       0       0       0       0
     B1g        0       0       0       0       0       0
     B2g        1       1       0       0       0       0
     B3g        1       1       0       0       0       0
     Au         0       0       0       0       0       0
     B1u        3       3       0       0       0       0
     B2u        1       1       0       0       0       0
     B3u        1       1       0       0       0       0
   -------------------------------------------------------
    Total      10      10       3       3       3       0
   -------------------------------------------------------

  ==> Integral Setup <==

  Using in-core PK algorithm.
   Calculation information:
      Number of atoms:                   2
      Number of AO shells:               6
      Number of primitives:             18
      Number of atomic orbitals:        10
      Number of basis functions:        10

      Integral cutoff                 1.00e-12
      Number of threads:                 1

  Performing in-core PK
  Using 3080 doubles for integral storage.
  We computed 231 shell quartets total.
  Whereas there are 231 unique shell quartets.

  ==> DiskJK: Disk-Based J/K Matrices <==

    J tasked:                  Yes
    K tasked:                  Yes
    wK tasked:                  No
    Memory [MiB]:              375
    Schwarz Cutoff:          1E-12

    OpenMP threads:              1

  Minimum eigenvalue in the overlap matrix is 4.0289192732E-02.
  Using Symmetric Orthogonalization.

  SCF Guess: Superposition of Atomic Densities via on-the-fly atomic UHF.

  ==> Iterations <==

                        Total Energy        Delta E     RMS |[F,P]|

   @RHF iter   0:   -14.58573852679840   -1.45857e+01   6.38128e-02 
   @RHF iter   1:   -14.60879129707151   -2.30528e-02   3.90853e-03 
   @RHF iter   2:   -14.60956780353629   -7.76506e-04   1.49380e-03 DIIS
   @RHF iter   3:   -14.60974068441565   -1.72881e-04   2.15662e-04 DIIS
   @RHF iter   4:   -14.60974473615713   -4.05174e-06   4.32612e-06 DIIS
   @RHF iter   5:   -14.60974473808783   -1.93070e-09   1.41353e-07 DIIS
   @RHF iter   6:   -14.60974473808996   -2.12985e-12   3.63226e-09 DIIS
   @RHF iter   7:   -14.60974473808996    0.00000e+00   1.73382e-11 DIIS
  Energy converged.


  ==> Post-Iterations <==

    Orbital Energies [Eh]
    ---------------------

    Doubly Occupied:                                                      

       1Ag    -2.340313     1B1u   -2.335347     2Ag    -0.163839  

    Virtual:                                                              

       2B1u    0.093646     1B2u    0.108933     1B3u    0.108933  
       3Ag     0.176245     1B2g    0.275579     1B3g    0.275579  
       3B1u    0.645556  

    Final Occupation by Irrep:
             Ag   B1g   B2g   B3g    Au   B1u   B2u   B3u 
    DOCC [     2,    0,    0,    0,    0,    1,    0,    0 ]

  @RHF Final Energy:   -14.60974473808996

   => Energetics <=

    Nuclear Repulsion Energy =              2.3812974480149989
    One-Electron Energy =                 -24.3030864655733581
    Two-Electron Energy =                   7.3120442794683989
    Total Energy =                        -14.6097447380899617

Computation Completed


Properties will be evaluated at   0.000000,   0.000000,   0.000000 [a0]

Properties computed using the SCF density matrix

  Nuclear Dipole Moment: [e a0]
     X:     0.0000      Y:     0.0000      Z:     0.0000

  Electronic Dipole Moment: [e a0]
     X:     0.0000      Y:     0.0000      Z:     0.0000

  Dipole Moment: [e a0]
     X:     0.0000      Y:     0.0000      Z:     0.0000     Total:     0.0000

  Dipole Moment: [D]
     X:     0.0000      Y:     0.0000      Z:     0.0000     Total:     0.0000


*** tstop() called on jeffschriber at Thu Oct 25 16:18:25 2018
Module time:
	user time   =       0.35 seconds =       0.01 minutes
	system time =       0.02 seconds =       0.00 minutes
	total time  =          0 seconds =       0.00 minutes
Total time:
	user time   =       0.35 seconds =       0.01 minutes
	system time =       0.02 seconds =       0.00 minutes
	total time  =          0 seconds =       0.00 minutes
	SCF energy........................................................PASSED

*** tstart() called on jeffschriber
*** at Thu Oct 25 16:18:25 2018

   => Loading Basis Set <=

    Name: STO-3G
    Role: ORBITAL
    Keyword: BASIS
    atoms 1-2 entry LI         line    31 file /Users/jeffschriber/src/psi4-debug-install/share/psi4/basis/sto-3g.gbs 


         ---------------------------------------------------------
                                   SCF
            by Justin Turney, Rob Parrish, Andy Simmonett
                             and Daniel Smith
                              RHF Reference
                        1 Threads,    500 MiB Core
         ---------------------------------------------------------

  ==> Geometry <==

    Molecular point group: d2h
    Full point group: D_inf_h

    Geometry (in Angstrom), charge = 0, multiplicity = 1:

       Center              X                  Y                   Z               Mass       
    ------------   -----------------  -----------------  -----------------  -----------------
         LI           0.000000000000     0.000000000000    -1.000000000000     7.016004548000
         LI           0.000000000000     0.000000000000     1.000000000000     7.016004548000

  Running in d2h symmetry.

  Rotational constants: A = ************  B =      1.20137  C =      1.20137 [cm^-1]
  Rotational constants: A = ************  B =  36016.15459  C =  36016.15459 [MHz]
  Nuclear repulsion =    2.381297448014999

  Charge       = 0
  Multiplicity = 1
  Electrons    = 6
  Nalpha       = 3
  Nbeta        = 3

  ==> Algorithm <==

  SCF Algorithm Type is PK.
  DIIS enabled.
  MOM disabled.
  Fractional occupation disabled.
  Guess Type is SAD.
  Energy threshold   = 1.00e-12
  Density threshold  = 1.00e-08
  Integral threshold = 0.00e+00

  ==> Primary Basis <==

  Basis Set: STO-3G
    Blend: STO-3G
    Number of shells: 6
    Number of basis function: 10
    Number of Cartesian functions: 10
    Spherical Harmonics?: true
    Max angular momentum: 1

  ==> Pre-Iterations <==

   -------------------------------------------------------
    Irrep   Nso     Nmo     Nalpha   Nbeta   Ndocc  Nsocc
   -------------------------------------------------------
     Ag         3       3       0       0       0       0
     B1g        0       0       0       0       0       0
     B2g        1       1       0       0       0       0
     B3g        1       1       0       0       0       0
     Au         0       0       0       0       0       0
     B1u        3       3       0       0       0       0
     B2u        1       1       0       0       0       0
     B3u        1       1       0       0       0       0
   -------------------------------------------------------
    Total      10      10       3       3       3       0
   -------------------------------------------------------

  ==> Integral Setup <==

  Using in-core PK algorithm.
   Calculation information:
      Number of atoms:                   2
      Number of AO shells:               6
      Number of primitives:             18
      Number of atomic orbitals:        10
      Number of basis functions:        10

      Integral cutoff                 1.00e-12
      Number of threads:                 1

  Performing in-core PK
  Using 3080 doubles for integral storage.
  We computed 231 shell quartets total.
  Whereas there are 231 unique shell quartets.

  ==> DiskJK: Disk-Based J/K Matrices <==

    J tasked:                  Yes
    K tasked:                  Yes
    wK tasked:                  No
    Memory [MiB]:              375
    Schwarz Cutoff:          1E-12

    OpenMP threads:              1

  Minimum eigenvalue in the overlap matrix is 4.0289192732E-02.
  Using Symmetric Orthogonalization.

  SCF Guess: Superposition of Atomic Densities via on-the-fly atomic UHF.

  ==> Iterations <==

                        Total Energy        Delta E     RMS |[F,P]|

   @RHF iter   0:   -14.58573852679840   -1.45857e+01   6.38128e-02 
   @RHF iter   1:   -14.60879129707151   -2.30528e-02   3.90853e-03 
   @RHF iter   2:   -14.60956780353629   -7.76506e-04   1.49380e-03 DIIS
   @RHF iter   3:   -14.60974068441564   -1.72881e-04   2.15662e-04 DIIS
   @RHF iter   4:   -14.60974473615713   -4.05174e-06   4.32612e-06 DIIS
   @RHF iter   5:   -14.60974473808783   -1.93069e-09   1.41353e-07 DIIS
   @RHF iter   6:   -14.60974473808996   -2.13518e-12   3.63226e-09 DIIS
   @RHF iter   7:   -14.60974473808995    1.06581e-14   1.73383e-11 DIIS
  Energy converged.


  ==> Post-Iterations <==

    Orbital Energies [Eh]
    ---------------------

    Doubly Occupied:                                                      

       1Ag    -2.340313     1B1u   -2.335347     2Ag    -0.163839  

    Virtual:                                                              

       2B1u    0.093646     1B2u    0.108933     1B3u    0.108933  
       3Ag     0.176245     1B2g    0.275579     1B3g    0.275579  
       3B1u    0.645556  

    Final Occupation by Irrep:
             Ag   B1g   B2g   B3g    Au   B1u   B2u   B3u 
    DOCC [     2,    0,    0,    0,    0,    1,    0,    0 ]

  @RHF Final Energy:   -14.60974473808995

   => Energetics <=

    Nuclear Repulsion Energy =              2.3812974480149989
    One-Electron Energy =                 -24.3030864655733509
    Two-Electron Energy =                   7.3120442794684024
    Total Energy =                        -14.6097447380899510

Computation Completed


Properties will be evaluated at   0.000000,   0.000000,   0.000000 [a0]

Properties computed using the SCF density matrix

  Nuclear Dipole Moment: [e a0]
     X:     0.0000      Y:     0.0000      Z:     0.0000

  Electronic Dipole Moment: [e a0]
     X:     0.0000      Y:     0.0000      Z:     0.0000

  Dipole Moment: [e a0]
     X:     0.0000      Y:     0.0000      Z:     0.0000     Total:     0.0000

  Dipole Moment: [D]
     X:     0.0000      Y:     0.0000      Z:     0.0000     Total:     0.0000


*** tstop() called on jeffschriber at Thu Oct 25 16:18:26 2018
Module time:
	user time   =       0.33 seconds =       0.01 minutes
	system time =       0.02 seconds =       0.00 minutes
	total time  =          1 seconds =       0.02 minutes
Total time:
	user time   =       0.70 seconds =       0.01 minutes
	system time =       0.04 seconds =       0.00 minutes
	total time  =          1 seconds =       0.02 minutes
   => Loading Basis Set <=

    Name: STO-3G
    Role: ORBITAL
    Keyword: MINAO_BASIS
    atoms 1-2 entry LI         line    31 file /Users/jeffschriber/src/psi4-debug-install/share/psi4/basis/sto-3g.gbs 


Reading options from the FORTE block
Calling plugin forte.so.



  Forte
  ----------------------------------------------------------------------------
  A suite of quantum chemistry methods for strongly correlated electrons

    git branch: master - git commit: 9480afcf

  Developed by:
    Francesco A. Evangelista, Chenyang Li, Kevin P. Hannon,
    Jeffrey B. Schriber, Tianyuan Zhang, Chenxi Cai
  ----------------------------------------------------------------------------

  Size of Determinant class: 16

  ==> MO Space Information <==

  -------------------------------------------------------------------------
                       Ag   B1g   B2g   B3g    Au   B1u   B2u   B3u   Sum
  -------------------------------------------------------------------------
    FROZEN_DOCC         0     0     0     0     0     0     0     0     0
    RESTRICTED_DOCC     0     0     0     0     0     0     0     0     0
    ACTIVE              3     0     1     1     0     3     1     1    10
    RESTRICTED_UOCC     0     0     0     0     0     0     0     0     0
    FROZEN_UOCC         0     0     0     0     0     0     0     0     0
    Total               3     0     1     1     0     3     1     1    10
  -------------------------------------------------------------------------

  ==> Integral Transformation <==

  Number of molecular orbitals:                    10
  Number of correlated molecular orbitals:         10
  Number of frozen occupied orbitals:               0
  Number of frozen unoccupied orbitals:             0
  Two-electron integral type:              Conventional


  Overall Conventional Integrals timings

	Presorting SO-basis two-electron integrals.
	Sorting File: SO Ints (nn|nn) nbuckets = 1
	Transforming the one-electron integrals and constructing Fock matrices
	Starting first half-transformation.
	Sorting half-transformed integrals.
	First half integral transformation complete.
	Starting second half-transformation.
	Two-electron integral transformation complete.

  Integral transformation done. 0.00825299 s
  Reading the two-electron integrals from disk
  Size of two-electron integrals:   0.000224 GB
  Timing for freezing core and virtual orbitals:              0.000 s.
  Conventional integrals take 0.03713796 s
  Number of active alpha electrons: 3
  Number of active beta electrons: 3
  Maximum reference space size: 1000
  |2200020000>

	  ---------------------------------------------------------
	    Projector Configuration Interaction HashVector implementation
	         by Francesco A. Evangelista and Tianyuan Zhang
	                      version Jul. 28 2017
	                       1 thread(s) (OMP)
	  ---------------------------------------------------------

  ==> Calculation Information <==

    Symmetry                                         0
    Multiplicity                                     1
    Number of roots                                  1
    Root used for properties                         0
    Maximum number of iterations                  1000
    Energy estimation frequency                      1
    Number of threads                                1
    Time step (beta)                         1.000e+00
    Spawning threshold                       1.000e-04
    Initial guess spawning threshold         1.000e-03
    Convergence threshold                    1.000e-12
    Energy estimate tollerance               1.000e-06
    Generator type                          Davidson-Liu by Tianyuan
    Shift the energy                                NO
    Use intermediate normalization                  NO
    Fast variational estimate                       NO
    Result perturbation analysis                    NO
    Using OpenMP                                   YES

  ==> Initial Guess <==     -14.609744738090 -1.461e+01

  Initial guess size = 86
  Spin multiplicity of root 78 not close to integer (4.1231)
  Spin multiplicity of root 79 not close to integer (4.1231)
  Spin multiplicity of root 80 not close to integer (4.1231)
  Found 45 roots with 2S+1 = 1 *
  Found 33 roots with 2S+1 = 3
  Found 5 roots with 2S+1 = 5

  Initial guess energy (variational) =     -14.645947472327 Eh (root = 1)

  Most important contributions to the wave function:

    0         0.9337      0.871796           0 |2200020000000000000000000000000000000000000000000000000000000000>    -16.991042186105
    1      -0.231508     0.0535959           1 |2000020002000000000000000000000000000000000000000000000000000000>    -16.844531944287
    2      -0.231508     0.0535959           2 |2000020020000000000000000000000000000000000000000000000000000000>    -16.844531944287
    3      -0.113963     0.0129877           3 |2000022000000000000000000000000000000000000000000000000000000000>    -16.780684423917
    4     -0.0799895    0.00639832           4 |2020020000000000000000000000000000000000000000000000000000000000>    -16.722588679069
    5     -0.0250221   0.000626107           5 |200002+-00000000000000000000000000000000000000000000000000000000>    -16.358845134715
    6     -0.0250221   0.000626107           6 |200002-+00000000000000000000000000000000000000000000000000000000>    -16.358845134715
    7    -0.00824472   6.79755e-05           7 |2000020200000000000000000000000000000000000000000000000000000000>    -15.877818677698
    8     0.00468421   2.19418e-05           8 |2000220000000000000000000000000000000000000000000000000000000000>    -16.542435848077
    9     0.00468421   2.19418e-05           9 |2002020000000000000000000000000000000000000000000000000000000000>    -16.542435848077

  Spin State: S^2 = 0.000, S = 0.000, singlet (from 3 determinants,97.90)

  ==> Estimate highest excitation energy <==
  Highest Excited determinant:
  |0002200200000000000000000000000000000000000000000000000000000000>
  Determinant Energy                    :  -2.581264114651
  Highest Energy Gershgorin circle Est. :  -0.994024721782

  ==> Characteristic Function <==
    f(x) = 
    with tau = 1.000000e+00, shift = -10.201283545070, range = 6.825961375272
    Initial guess: lambda_1= -14.645947472327
    Est. Highest eigenvalue= -0.994024721782

  ==> PCI Iterations <==

  --------------------------------------------------------------------------------------------------------------
    Steps  Beta/Eh      Ndets      NoffDiag     Proj. Energy/Eh     dEp/dt      Approx. Energy/Eh   dEv/dt
  --------------------------------------------------------------------------------------------------------------
Davidson iter    1 order    2 correction norm  9.999e-01 dE -2.071e-04 E   -14.646167322073.
Davidson iter    2 order    3 correction norm  2.476e-01 dE -2.080e-11 E   -14.646167322094.
Davidson iter    3 order    4 correction norm  7.520e-02 dE -1.333e-08 E   -14.646167335422.
Davidson iter    4 order    5 correction norm  6.205e-01 dE -5.823e-07 E   -14.646167917710.
Davidson iter    5 order    6 correction norm  2.046e-01 dE -1.442e-09 E   -14.646167919152.
Davidson iter    6 order    7 correction norm  8.856e-02 dE -5.097e-06 E   -14.646173016084.
Davidson iter    7 order    8 correction norm  2.954e-01 dE -8.454e-06 E   -14.646181470180.
Davidson collapsed from 8 vectors to 2 vectors.
Davidson iter    8 order    3 correction norm  8.483e-01 dE -1.190e-08 E   -14.646181482079.
Davidson iter    9 order    4 correction norm  3.047e-01 dE -1.087e-09 E   -14.646181483165.
Davidson iter   10 order    5 correction norm  3.346e-01 dE -3.366e-09 E   -14.646181486531.
Davidson iter   11 order    6 correction norm  4.907e-01 dE -1.090e-08 E   -14.646181497435.
        0       12        418          2080     -14.646186851478 -2.394e-04     -14.646149368211 -1.892e-04
Davidson iter    1 order    2 correction norm  9.920e-01 dE -7.617e-06 E   -14.646156984719.
Davidson iter    2 order    3 correction norm  2.086e-01 dE -3.604e-08 E   -14.646157020757.
Davidson iter    3 order    4 correction norm  5.083e-01 dE -7.976e-09 E   -14.646157028733.
Davidson iter    4 order    5 correction norm  3.313e-01 dE -9.054e-10 E   -14.646157029638.
Davidson iter    5 order    6 correction norm  1.685e-01 dE -4.408e-09 E   -14.646157034046.
Davidson iter    6 order    7 correction norm  3.610e-01 dE -1.280e-08 E   -14.646157046842.
Davidson iter    7 order    8 correction norm  2.984e-01 dE -7.469e-08 E   -14.646157121530.
Davidson collapsed from 8 vectors to 2 vectors.
Davidson iter    8 order    3 correction norm  9.927e-01 dE -1.301e-07 E   -14.646157251624.
Davidson iter    9 order    4 correction norm  2.867e-01 dE -2.369e-07 E   -14.646157488559.
Davidson iter   10 order    5 correction norm  1.816e-01 dE -5.169e-10 E   -14.646157489076.
Davidson iter   11 order    6 correction norm  5.898e-01 dE -3.670e-10 E   -14.646157489443.
        1       12        434          2396     -14.646136519614  5.033e-05     -14.646155557849 -6.190e-06
Davidson iter    1 order    2 correction norm  9.127e-01 dE -2.690e-07 E   -14.646155826890.
Davidson iter    2 order    3 correction norm  3.481e-01 dE -8.044e-09 E   -14.646155834934.
Davidson iter    3 order    4 correction norm  3.442e-01 dE -5.985e-09 E   -14.646155840919.
Davidson iter    4 order    5 correction norm  4.223e-01 dE -2.483e-10 E   -14.646155841167.
Davidson iter    5 order    6 correction norm  8.343e-02 dE -4.256e-12 E   -14.646155841172.
Davidson iter    6 order    7 correction norm  5.429e-01 dE -8.289e-09 E   -14.646155849460.
Davidson iter    7 order    8 correction norm  2.963e-01 dE -1.333e-08 E   -14.646155862788.
Davidson collapsed from 8 vectors to 2 vectors.
Davidson iter    8 order    3 correction norm  8.260e-01 dE -6.803e-12 E   -14.646155862794.
Davidson iter    9 order    4 correction norm  3.764e-01 dE -2.306e-12 E   -14.646155862797.
Davidson iter   10 order    5 correction norm  2.745e-01 dE -4.834e-11 E   -14.646155862845.
Davidson iter   11 order    6 correction norm  5.252e-01 dE -7.043e-11 E   -14.646155862915.
        2       12        434          2344     -14.646156489846 -1.997e-05     -14.646156213246 -6.554e-07
Davidson iter    1 order    2 correction norm  9.999e-01 dE -7.877e-08 E   -14.646156292018.
Davidson iter    2 order    3 correction norm  7.618e-01 dE -4.448e-12 E   -14.646156292023.
Davidson iter    3 order    4 correction norm  2.909e-01 dE -1.710e-10 E   -14.646156292194.
Davidson iter    4 order    5 correction norm  1.394e-01 dE -1.244e-11 E   -14.646156292206.
Davidson iter    5 order    6 correction norm  5.145e-01 dE -1.268e-11 E   -14.646156292219.
Davidson iter    6 order    7 correction norm  4.261e-01 dE -8.832e-11 E   -14.646156292307.
Davidson iter    7 order    8 correction norm  2.456e-01 dE -1.277e-11 E   -14.646156292320.
Davidson collapsed from 8 vectors to 2 vectors.
Davidson iter    8 order    3 correction norm  9.466e-01 dE  6.040e-14 E   -14.646156292320.
        3        9        434          2340     -14.646156276748  2.131e-07     -14.646156513292 -3.000e-07
Davidson iter    1 order    2 correction norm  9.971e-01 dE -3.164e-08 E   -14.646156544933.
Davidson iter    2 order    3 correction norm  6.122e-01 dE -7.141e-13 E   -14.646156544934.
        4        3        434          2320     -14.646156371864 -9.512e-08     -14.646156258657  2.546e-07
Davidson iter    1 order    2 correction norm  9.991e-01 dE -3.391e-08 E   -14.646156292569.
Davidson iter    2 order    3 correction norm  6.168e-01 dE -2.530e-12 E   -14.646156292571.
Davidson iter    3 order    4 correction norm  1.139e-01 dE -1.396e-12 E   -14.646156292572.
Davidson iter    4 order    5 correction norm  4.031e-01 dE -6.217e-13 E   -14.646156292573.
        5        5        434          2340     -14.646156304420  6.744e-08     -14.646156514849 -2.562e-07
Davidson iter    1 order    2 correction norm  9.976e-01 dE -3.009e-08 E   -14.646156544936.
Davidson iter    2 order    3 correction norm  5.804e-01 dE -7.105e-15 E   -14.646156544936.
        6        3        434          2320     -14.646156485904 -1.815e-07     -14.646156258617  2.562e-07
Davidson iter    1 order    2 correction norm  9.975e-01 dE -3.395e-08 E   -14.646156292570.
Davidson iter    2 order    3 correction norm  3.725e-01 dE -1.059e-12 E   -14.646156292572.
Davidson iter    3 order    4 correction norm  2.890e-01 dE -2.849e-12 E   -14.646156292574.
Davidson iter    4 order    5 correction norm  2.507e-01 dE -2.487e-14 E   -14.646156292574.
        7        5        434          2340     -14.646156300875  1.850e-07     -14.646156514849 -2.562e-07
Davidson iter    1 order    2 correction norm  9.976e-01 dE -3.009e-08 E   -14.646156544935.
Davidson iter    2 order    3 correction norm  5.577e-01 dE -1.528e-13 E   -14.646156544936.
        8        3        434          2320     -14.646156539280 -2.384e-07     -14.646156258616  2.562e-07
Davidson iter    1 order    2 correction norm  9.966e-01 dE -3.395e-08 E   -14.646156292571.
Davidson iter    2 order    3 correction norm  5.725e-01 dE -2.593e-13 E   -14.646156292571.
        9        3        434          2340     -14.646156424409  1.149e-07     -14.646156514858 -2.562e-07
Davidson iter    1 order    2 correction norm  9.992e-01 dE -3.008e-08 E   -14.646156544935.
Davidson iter    2 order    3 correction norm  5.484e-01 dE -2.505e-12 E   -14.646156544937.
Davidson iter    3 order    4 correction norm  1.436e-01 dE -1.386e-13 E   -14.646156544937.
       10        4        434          2320     -14.646156559606 -1.352e-07     -14.646156258616  2.562e-07
Davidson iter    1 order    2 correction norm  9.963e-01 dE -3.395e-08 E   -14.646156292570.
Davidson iter    2 order    3 correction norm  5.946e-01 dE -6.040e-14 E   -14.646156292570.
       11        3        434          2340     -14.646156359009  2.006e-07     -14.646156514856 -2.562e-07
Davidson iter    1 order    2 correction norm  9.984e-01 dE -3.008e-08 E   -14.646156544936.
Davidson iter    2 order    3 correction norm  3.286e-01 dE -1.293e-12 E   -14.646156544937.
Davidson iter    3 order    4 correction norm  3.181e-01 dE -1.066e-14 E   -14.646156544937.
       12        4        434          2320     -14.646156414051 -5.504e-08     -14.646156258617  2.562e-07
Davidson iter    1 order    2 correction norm  9.986e-01 dE -3.395e-08 E   -14.646156292569.
Davidson iter    2 order    3 correction norm  4.453e-01 dE -1.755e-12 E   -14.646156292571.
Davidson iter    3 order    4 correction norm  1.327e-01 dE -1.094e-12 E   -14.646156292572.
Davidson iter    4 order    5 correction norm  4.682e-01 dE -7.461e-13 E   -14.646156292573.
       13        5        434          2340     -14.646156289777  1.243e-07
  --------------------------------------------------------------------------------------------------------------

  Calculation stoped in appearance of higher new low.

  ==> Post-Iterations <==

  * Size of CI space                    = 434
  * Number of off-diagonal elements     = 2340
  * Projector-CI Approximate Energy     =   -14.646156258617 Eh
  * Projector-CI Projective  Energy     =   -14.646156289777 Eh

  Most important contributions to the wave function:

    0       0.933273      0.870999           0 |2200020000000000000000000000000000000000000000000000000000000000>    -16.991042186105
    1       -0.23024     0.0530107           1 |2000020020000000000000000000000000000000000000000000000000000000>    -16.844531944287
    2       -0.23024     0.0530107           2 |2000020002000000000000000000000000000000000000000000000000000000>    -16.844531944287
    3      -0.120369     0.0144887           3 |2000022000000000000000000000000000000000000000000000000000000000>    -16.780684423917
    4     -0.0803599    0.00645772           4 |2020020000000000000000000000000000000000000000000000000000000000>    -16.722588679069
    5     -0.0245642   0.000603402           5 |200002-+00000000000000000000000000000000000000000000000000000000>    -16.358845134715
    6     -0.0245642   0.000603402           6 |200002+-00000000000000000000000000000000000000000000000000000000>    -16.358845134715
    7     -0.0145795   0.000212563           7 |2+-0020000000000000000000000000000000000000000000000000000000000>    -16.872775657949
    8     -0.0145795   0.000212563           8 |2-+0020000000000000000000000000000000000000000000000000000000000>    -16.872775657949
    9    -0.00777609   6.04677e-05           9 |2000020200000000000000000000000000000000000000000000000000000000>    -15.877818677698

  Spin State: S^2 = 0.000, S = 0.000, singlet (from 3 determinants,97.70)
  Projector-CI (bitset) steps finished in  : 0.078177 s

  Variational energy estimated with 434 determinants to meet the max error 0.000000e+00

  ==> Computing Coupling Lists <==
  --------------------------------
        α          0.001523 s
        β          0.001515 s
        αα         0.001376 s
        ββ         0.001501 s
        αβ         0.003463 s
  --------------------------------
  * Projector-CI Variational Energy     =   -14.646161244794 Eh
  * Projector-CI Var. Corr.  Energy     =    -0.036416506704 Eh
  * 1st order perturbation   Energy     =    -0.000004986178 Eh

  Projector-CI (bitset) ran in  : 0.089837 s	PCI energy........................................................PASSED

    Psi4 stopped on: Thursday, 25 October 2018 04:18PM
    Psi4 wall time for execution: 0:00:01.03

*** Psi4 exiting successfully. Buy a developer a beer!
