
    -----------------------------------------------------------------------
          Psi4: An Open-Source Ab Initio Electronic Structure Package
                               Psi4 1.3a1.dev228 

                         Git: Rev {master} 0238229 dirty


    R. M. Parrish, L. A. Burns, D. G. A. Smith, A. C. Simmonett,
    A. E. DePrince III, E. G. Hohenstein, U. Bozkaya, A. Yu. Sokolov,
    R. Di Remigio, R. M. Richard, J. F. Gonthier, A. M. James,
    H. R. McAlexander, A. Kumar, M. Saitow, X. Wang, B. P. Pritchard,
    P. Verma, H. F. Schaefer III, K. Patkowski, R. A. King, E. F. Valeev,
    F. A. Evangelista, J. M. Turney, T. D. Crawford, and C. D. Sherrill,
    J. Chem. Theory Comput. 13(7) pp 3185--3197 (2017).
    (doi: 10.1021/acs.jctc.7b00174)


                         Additional Contributions by
    P. Kraus, H. Kruse, M. H. Lechner, M. C. Schieber, and R. A. Shaw

    -----------------------------------------------------------------------


    Psi4 started on: Wednesday, 22 August 2018 06:55PM

    Process ID: 51985
    Host:       tianyuans-air.wireless.emory.edu
    PSIDATADIR: /Users/tianyuanzhang/Documents/Source/psi4_2018/psi4-bin-icpc-debug/share/psi4
    Memory:     500.0 MiB
    Threads:    1
    
  ==> Input File <==

--------------------------------------------------------------------------
#! This tests the Adaptive Path-Integral FCI procedure with dynamic prescreening
#! Generated using commit GITCOMMIT

import forte

refscf = -14.8434688911333978 #TEST
refpci = -14.910557776072  #TEST

molecule li2{
   Li
   Li 1 2.0000
}

set {
  basis cc-pVTZ
  scf_type pk
  e_convergence 10
}

set forte {
  job_type pci_hashvec
  nroot 1
  charge 0
  PCI_tau 1.0
  PCI_spawning_threshold 0.00002
  PCI_ENERGY_ESTIMATE_FREQ 1
  PCI_GENERATOR wall-chebyshev
  PCI_maxbeta 100000.00
  PCI_e_convergence 5
  PCI_FAST_EVAR false
}

energy('scf')
compare_values(refscf,get_variable("CURRENT ENERGY"),10,"SCF energy")

energy('forte')
compare_values(refpci, get_variable("PCI ENERGY"), 11, "PCI energy") #TEST
--------------------------------------------------------------------------

*** tstart() called on tianyuans-air.wireless.emory.edu
*** at Wed Aug 22 18:55:19 2018

   => Loading Basis Set <=

    Name: CC-PVTZ
    Role: ORBITAL
    Keyword: BASIS
    atoms 1-2 entry LI         line    56 file /Users/tianyuanzhang/Documents/Source/psi4_2018/psi4-bin-icpc-debug/share/psi4/basis/cc-pvtz.gbs 


         ---------------------------------------------------------
                                   SCF
            by Justin Turney, Rob Parrish, Andy Simmonett
                             and Daniel Smith
                              RHF Reference
                        1 Threads,    500 MiB Core
         ---------------------------------------------------------

  ==> Geometry <==

    Molecular point group: d2h
    Full point group: D_inf_h

    Geometry (in Angstrom), charge = 0, multiplicity = 1:

       Center              X                  Y                   Z               Mass       
    ------------   -----------------  -----------------  -----------------  -----------------
         LI           0.000000000000     0.000000000000    -1.000000000000     7.016004548000
         LI           0.000000000000     0.000000000000     1.000000000000     7.016004548000

  Running in d2h symmetry.

  Rotational constants: A = ************  B =      1.20137  C =      1.20137 [cm^-1]
  Rotational constants: A = ************  B =  36016.15432  C =  36016.15432 [MHz]
  Nuclear repulsion =    2.381297438654999

  Charge       = 0
  Multiplicity = 1
  Electrons    = 6
  Nalpha       = 3
  Nbeta        = 3

  ==> Algorithm <==

  SCF Algorithm Type is PK.
  DIIS enabled.
  MOM disabled.
  Fractional occupation disabled.
  Guess Type is SAD.
  Energy threshold   = 1.00e-10
  Density threshold  = 1.00e-06
  Integral threshold = 0.00e+00

  ==> Primary Basis <==

  Basis Set: CC-PVTZ
    Blend: CC-PVTZ
    Number of shells: 20
    Number of basis function: 60
    Number of Cartesian functions: 70
    Spherical Harmonics?: true
    Max angular momentum: 3

  ==> Pre-Iterations <==

   -------------------------------------------------------
    Irrep   Nso     Nmo     Nalpha   Nbeta   Ndocc  Nsocc
   -------------------------------------------------------
     Ag        13      13       0       0       0       0
     B1g        3       3       0       0       0       0
     B2g        7       7       0       0       0       0
     B3g        7       7       0       0       0       0
     Au         3       3       0       0       0       0
     B1u       13      13       0       0       0       0
     B2u        7       7       0       0       0       0
     B3u        7       7       0       0       0       0
   -------------------------------------------------------
    Total      60      60       3       3       3       0
   -------------------------------------------------------

  ==> Integral Setup <==

  Using in-core PK algorithm.
   Calculation information:
      Number of atoms:                   2
      Number of AO shells:              20
      Number of primitives:             68
      Number of atomic orbitals:        70
      Number of basis functions:        60

      Integral cutoff                 1.00e-12
      Number of threads:                 1

  Performing in-core PK
  Using 3350730 doubles for integral storage.
  We computed 22155 shell quartets total.
  Whereas there are 22155 unique shell quartets.

  ==> DiskJK: Disk-Based J/K Matrices <==

    J tasked:                  Yes
    K tasked:                  Yes
    wK tasked:                  No
    Memory (MB):               375
    Schwarz Cutoff:          1E-12

    OpenMP threads:              1

  Minimum eigenvalue in the overlap matrix is 3.9363508460E-04.
  Using Symmetric Orthogonalization.

  SCF Guess: Superposition of Atomic Densities via on-the-fly atomic UHF.

  ==> Iterations <==

                        Total Energy        Delta E     RMS |[F,P]|

   @RHF iter   0:   -14.84701732345920   -1.48470e+01   1.25921e-02 
   @RHF iter   1:   -14.84150909473133    5.50823e-03   1.12702e-03 
   @RHF iter   2:   -14.84310590821592   -1.59681e-03   4.73164e-04 DIIS
   @RHF iter   3:   -14.84345995747988   -3.54049e-04   6.21072e-05 DIIS
   @RHF iter   4:   -14.84346835154671   -8.39407e-06   1.34697e-05 DIIS
   @RHF iter   5:   -14.84346888716330   -5.35617e-07   1.14005e-06 DIIS
   @RHF iter   6:   -14.84346889108483   -3.92154e-09   1.51332e-07 DIIS
   @RHF iter   7:   -14.84346889113340   -4.85638e-11   1.69359e-08 DIIS
  Energy converged.


  ==> Post-Iterations <==

    Orbital Energies [Eh]
    ---------------------

    Doubly Occupied:                                                      

       1Ag    -2.463826     1B1u   -2.458642     2Ag    -0.194877  

    Virtual:                                                              

       2B1u    0.011582     1B2u    0.022936     1B3u    0.022936  
       3Ag     0.041770     1B2g    0.057530     1B3g    0.057530  
       3B1u    0.064897     4Ag     0.102716     2B2u    0.104939  
       2B3u    0.104939     5Ag     0.139926     4B1u    0.164786  
       2B2g    0.167697     2B3g    0.167697     6Ag     0.199836  
       1B1g    0.199836     5B1u    0.252399     3B2u    0.256676  
       3B3u    0.256676     1Au     0.268799     6B1u    0.268799  
       7Ag     0.306683     3B2g    0.329069     3B3g    0.329069  
       7B1u    0.403936     4B3u    0.429388     4B2u    0.429388  
       4B3g    0.438678     4B2g    0.438678     8Ag     0.452778  
       5B3u    0.505939     5B2u    0.505939     2B1g    0.578175  
       9Ag     0.578175    10Ag     0.578305     5B2g    0.615787  
       5B3g    0.615787     8B1u    0.644201     9B1u    0.672107  
       2Au     0.672107     6B2u    0.693585     6B3u    0.693585  
      11Ag     0.694310     3B1g    0.694310    10B1u    0.770743  
       6B2g    0.804665     6B3g    0.804665    12Ag     0.816366  
       7B3u    0.832820     7B2u    0.832820    11B1u    0.866987  
       3Au     0.866987     7B3g    1.061186     7B2g    1.061186  
      12B1u    1.210890    13B1u    3.167917    13Ag     3.543306  

    Final Occupation by Irrep:
             Ag   B1g   B2g   B3g    Au   B1u   B2u   B3u 
    DOCC [     2,    0,    0,    0,    0,    1,    0,    0 ]

  @RHF Final Energy:   -14.84346889113340

   => Energetics <=

    Nuclear Repulsion Energy =              2.3812974386549994
    One-Electron Energy =                 -24.2148413827188627
    Two-Electron Energy =                   6.9900750529304645
    Total Energy =                        -14.8434688911333978

Computation Completed


Properties will be evaluated at   0.000000,   0.000000,   0.000000 [a0]

Properties computed using the SCF density matrix

  Nuclear Dipole Moment: [e a0]
     X:     0.0000      Y:     0.0000      Z:     0.0000

  Electronic Dipole Moment: [e a0]
     X:     0.0000      Y:     0.0000      Z:     0.0000

  Dipole Moment: [e a0]
     X:     0.0000      Y:     0.0000      Z:     0.0000     Total:     0.0000

  Dipole Moment: [D]
     X:     0.0000      Y:     0.0000      Z:     0.0000     Total:     0.0000


*** tstop() called on tianyuans-air.wireless.emory.edu at Wed Aug 22 18:55:20 2018
Module time:
	user time   =       1.00 seconds =       0.02 minutes
	system time =       0.04 seconds =       0.00 minutes
	total time  =          1 seconds =       0.02 minutes
Total time:
	user time   =       1.00 seconds =       0.02 minutes
	system time =       0.04 seconds =       0.00 minutes
	total time  =          1 seconds =       0.02 minutes
	SCF energy........................................................PASSED

*** tstart() called on tianyuans-air.wireless.emory.edu
*** at Wed Aug 22 18:55:20 2018

   => Loading Basis Set <=

    Name: CC-PVTZ
    Role: ORBITAL
    Keyword: BASIS
    atoms 1-2 entry LI         line    56 file /Users/tianyuanzhang/Documents/Source/psi4_2018/psi4-bin-icpc-debug/share/psi4/basis/cc-pvtz.gbs 


         ---------------------------------------------------------
                                   SCF
            by Justin Turney, Rob Parrish, Andy Simmonett
                             and Daniel Smith
                              RHF Reference
                        1 Threads,    500 MiB Core
         ---------------------------------------------------------

  ==> Geometry <==

    Molecular point group: d2h
    Full point group: D_inf_h

    Geometry (in Angstrom), charge = 0, multiplicity = 1:

       Center              X                  Y                   Z               Mass       
    ------------   -----------------  -----------------  -----------------  -----------------
         LI           0.000000000000     0.000000000000    -1.000000000000     7.016004548000
         LI           0.000000000000     0.000000000000     1.000000000000     7.016004548000

  Running in d2h symmetry.

  Rotational constants: A = ************  B =      1.20137  C =      1.20137 [cm^-1]
  Rotational constants: A = ************  B =  36016.15432  C =  36016.15432 [MHz]
  Nuclear repulsion =    2.381297438654999

  Charge       = 0
  Multiplicity = 1
  Electrons    = 6
  Nalpha       = 3
  Nbeta        = 3

  ==> Algorithm <==

  SCF Algorithm Type is PK.
  DIIS enabled.
  MOM disabled.
  Fractional occupation disabled.
  Guess Type is SAD.
  Energy threshold   = 1.00e-10
  Density threshold  = 1.00e-08
  Integral threshold = 0.00e+00

  ==> Primary Basis <==

  Basis Set: CC-PVTZ
    Blend: CC-PVTZ
    Number of shells: 20
    Number of basis function: 60
    Number of Cartesian functions: 70
    Spherical Harmonics?: true
    Max angular momentum: 3

  ==> Pre-Iterations <==

   -------------------------------------------------------
    Irrep   Nso     Nmo     Nalpha   Nbeta   Ndocc  Nsocc
   -------------------------------------------------------
     Ag        13      13       0       0       0       0
     B1g        3       3       0       0       0       0
     B2g        7       7       0       0       0       0
     B3g        7       7       0       0       0       0
     Au         3       3       0       0       0       0
     B1u       13      13       0       0       0       0
     B2u        7       7       0       0       0       0
     B3u        7       7       0       0       0       0
   -------------------------------------------------------
    Total      60      60       3       3       3       0
   -------------------------------------------------------

  ==> Integral Setup <==

  Using in-core PK algorithm.
   Calculation information:
      Number of atoms:                   2
      Number of AO shells:              20
      Number of primitives:             68
      Number of atomic orbitals:        70
      Number of basis functions:        60

      Integral cutoff                 1.00e-12
      Number of threads:                 1

  Performing in-core PK
  Using 3350730 doubles for integral storage.
  We computed 22155 shell quartets total.
  Whereas there are 22155 unique shell quartets.

  ==> DiskJK: Disk-Based J/K Matrices <==

    J tasked:                  Yes
    K tasked:                  Yes
    wK tasked:                  No
    Memory (MB):               375
    Schwarz Cutoff:          1E-12

    OpenMP threads:              1

  Minimum eigenvalue in the overlap matrix is 3.9363508460E-04.
  Using Symmetric Orthogonalization.

  SCF Guess: Superposition of Atomic Densities via on-the-fly atomic UHF.

  ==> Iterations <==

                        Total Energy        Delta E     RMS |[F,P]|

   @RHF iter   0:   -14.84701732345920   -1.48470e+01   1.25921e-02 
   @RHF iter   1:   -14.84150909473133    5.50823e-03   1.12702e-03 
   @RHF iter   2:   -14.84310590821592   -1.59681e-03   4.73164e-04 DIIS
   @RHF iter   3:   -14.84345995747988   -3.54049e-04   6.21072e-05 DIIS
   @RHF iter   4:   -14.84346835154671   -8.39407e-06   1.34697e-05 DIIS
   @RHF iter   5:   -14.84346888716330   -5.35617e-07   1.14005e-06 DIIS
   @RHF iter   6:   -14.84346889108483   -3.92154e-09   1.51332e-07 DIIS
   @RHF iter   7:   -14.84346889113340   -4.85638e-11   1.69359e-08 DIIS
   @RHF iter   8:   -14.84346889113427   -8.68638e-13   3.47121e-09 DIIS
  Energy converged.


  ==> Post-Iterations <==

    Orbital Energies [Eh]
    ---------------------

    Doubly Occupied:                                                      

       1Ag    -2.463826     1B1u   -2.458642     2Ag    -0.194877  

    Virtual:                                                              

       2B1u    0.011582     1B2u    0.022936     1B3u    0.022936  
       3Ag     0.041770     1B3g    0.057530     1B2g    0.057530  
       3B1u    0.064897     4Ag     0.102716     2B2u    0.104939  
       2B3u    0.104939     5Ag     0.139926     4B1u    0.164786  
       2B3g    0.167698     2B2g    0.167698     6Ag     0.199836  
       1B1g    0.199836     5B1u    0.252399     3B2u    0.256676  
       3B3u    0.256676     1Au     0.268799     6B1u    0.268799  
       7Ag     0.306683     3B3g    0.329069     3B2g    0.329069  
       7B1u    0.403936     4B3u    0.429388     4B2u    0.429388  
       4B2g    0.438678     4B3g    0.438678     8Ag     0.452778  
       5B3u    0.505939     5B2u    0.505939     2B1g    0.578175  
       9Ag     0.578175    10Ag     0.578305     5B2g    0.615787  
       5B3g    0.615787     8B1u    0.644201     9B1u    0.672107  
       2Au     0.672107     6B2u    0.693585     6B3u    0.693585  
      11Ag     0.694310     3B1g    0.694310    10B1u    0.770743  
       6B3g    0.804665     6B2g    0.804665    12Ag     0.816366  
       7B3u    0.832821     7B2u    0.832821    11B1u    0.866987  
       3Au     0.866987     7B2g    1.061186     7B3g    1.061186  
      12B1u    1.210890    13B1u    3.167917    13Ag     3.543306  

    Final Occupation by Irrep:
             Ag   B1g   B2g   B3g    Au   B1u   B2u   B3u 
    DOCC [     2,    0,    0,    0,    0,    1,    0,    0 ]

  @RHF Final Energy:   -14.84346889113427

   => Energetics <=

    Nuclear Repulsion Energy =              2.3812974386549994
    One-Electron Energy =                 -24.2148415864801905
    Two-Electron Energy =                   6.9900752566909237
    Total Energy =                        -14.8434688911342665

Computation Completed


Properties will be evaluated at   0.000000,   0.000000,   0.000000 [a0]

Properties computed using the SCF density matrix

  Nuclear Dipole Moment: [e a0]
     X:     0.0000      Y:     0.0000      Z:     0.0000

  Electronic Dipole Moment: [e a0]
     X:     0.0000      Y:     0.0000      Z:     0.0000

  Dipole Moment: [e a0]
     X:     0.0000      Y:     0.0000      Z:     0.0000     Total:     0.0000

  Dipole Moment: [D]
     X:     0.0000      Y:     0.0000      Z:     0.0000     Total:     0.0000


*** tstop() called on tianyuans-air.wireless.emory.edu at Wed Aug 22 18:55:21 2018
Module time:
	user time   =       0.98 seconds =       0.02 minutes
	system time =       0.03 seconds =       0.00 minutes
	total time  =          1 seconds =       0.02 minutes
Total time:
	user time   =       1.99 seconds =       0.03 minutes
	system time =       0.07 seconds =       0.00 minutes
	total time  =          2 seconds =       0.03 minutes
   => Loading Basis Set <=

    Name: STO-3G
    Role: ORBITAL
    Keyword: MINAO_BASIS
    atoms 1-2 entry LI         line    31 file /Users/tianyuanzhang/Documents/Source/psi4_2018/psi4-bin-icpc-debug/share/psi4/basis/sto-3g.gbs 


Reading options from the FORTE block
Calling plugin forte.so.



  Forte
  ----------------------------------------------------------------------------
  A suite of quantum chemistry methods for strongly correlated electrons

    git branch: correct_performance_tests - git commit: 9e2c4285

  Developed by:
    Francesco A. Evangelista, Chenyang Li, Kevin P. Hannon,
    Jeffrey B. Schriber, Tianyuan Zhang, Chenxi Cai
  ----------------------------------------------------------------------------

  Size of Determinant class: 16

  ==> MO Space Information <==

  -------------------------------------------------------------------------
                       Ag   B1g   B2g   B3g    Au   B1u   B2u   B3u   Sum
  -------------------------------------------------------------------------
    FROZEN_DOCC         0     0     0     0     0     0     0     0     0
    RESTRICTED_DOCC     0     0     0     0     0     0     0     0     0
    ACTIVE             13     3     7     7     3    13     7     7    60
    RESTRICTED_UOCC     0     0     0     0     0     0     0     0     0
    FROZEN_UOCC         0     0     0     0     0     0     0     0     0
    Total              13     3     7     7     3    13     7     7    60
  -------------------------------------------------------------------------

  ==> Integral Transformation <==

  Number of molecular orbitals:               60
  Number of correlated molecular orbitals:    60
  Number of frozen occupied orbitals:          0
  Number of frozen unoccupied orbitals:        0

    Molecular point group: d2h
    Full point group: D_inf_h

    Geometry (in Angstrom), charge = 0, multiplicity = 1:

       Center              X                  Y                   Z               Mass       
    ------------   -----------------  -----------------  -----------------  -----------------
         LI           0.000000000000     0.000000000000    -1.000000000000     7.016004548000
         LI           0.000000000000     0.000000000000     1.000000000000     7.016004548000

  -AO BASIS SET INFORMATION:
    Name                   = CC-PVTZ
    Blend                  = CC-PVTZ
    Total number of shells = 20
    Number of primitives   = 68
    Number of AO           = 70
    Number of SO           = 60
    Maximum AM             = 3
    Spherical Harmonics    = TRUE

  -Contraction Scheme:
    Atom   Type   All Primitives // Shells:
   ------ ------ --------------------------
       1    LI     24s 7p 2d 1f // 4s 3p 2d 1f 
       2    LI     24s 7p 2d 1f // 4s 3p 2d 1f 

  ==> AO Basis Functions <==

    [ CC-PVTZ ]
    spherical
    ****
   LI   1
    S  11 1.00
                      5988.00000000           0.00013300
                       898.90000000           0.00102500
                       205.90000000           0.00527200
                        59.24000000           0.02092900
                        19.87000000           0.06634000
                         7.40600000           0.16577500
                         2.93000000           0.31503800
                         1.18900000           0.39352300
                         0.47980000           0.19087000
                         0.07509000           0.00541400
                         0.02832000          -0.00132800
    S  11 1.00
                      5988.00000000          -0.00002100
                       898.90000000          -0.00016100
                       205.90000000          -0.00082000
                        59.24000000          -0.00332600
                        19.87000000          -0.01051900
                         7.40600000          -0.02809700
                         2.93000000          -0.05593600
                         1.18900000          -0.09923700
                         0.47980000          -0.11218900
                         0.07509000           0.56788900
                         0.02832000           0.53038200
    S   1 1.00
                         0.07509000           1.00000000
    S   1 1.00
                         0.02832000           1.00000000
    P   5 1.00
                         3.26600000           0.00863000
                         0.65110000           0.04753800
                         0.16960000           0.20977200
                         0.05578000           0.52852200
                         0.02050000           0.38274400
    P   1 1.00
                         0.05578000           1.00000000
    P   1 1.00
                         0.02050000           1.00000000
    D   1 1.00
                         0.19000000           1.00000000
    D   1 1.00
                         0.07250000           1.00000000
    F   1 1.00
                         0.12700000           1.00000000
    ****


  Overall Conventional Integrals timings

	Presorting SO-basis two-electron integrals.
	Sorting File: SO Ints (nn|nn) nbuckets = 1
	Transforming the one-electron integrals and constructing Fock matrices
	Starting first half-transformation.
	Sorting half-transformed integrals.
	First half integral transformation complete.
	Starting second half-transformation.
	Two-electron integral transformation complete.

  Integral transformation done. 0.22362461 s
  Reading the two-electron integrals from disk
  Size of two-electron integrals:   0.289679 GB
  Conventional integrals take 1.03064576 s
  Number of active alpha electrons: 3
  Number of active beta electrons: 3
  Maximum reference space size: 1000
  |220000000000000000000000000000000200000000000000000000000000>

	  ---------------------------------------------------------
	    Projector Configuration Interaction HashVector implementation
	         by Francesco A. Evangelista and Tianyuan Zhang
	                      version Jul. 28 2017
	                       1 thread(s) (OMP)
	  ---------------------------------------------------------

  ==> Calculation Information <==

    Symmetry                                         0
    Multiplicity                                     1
    Number of roots                                  1
    Root used for properties                         0
    Maximum number of iterations                100000
    Energy estimation frequency                      1
    Number of threads                                1
    Time step (beta)                         1.000e+00
    Spawning threshold                       2.000e-05
    Initial guess spawning threshold         2.000e-04
    Convergence threshold                    1.000e-05
    Energy estimate tollerance               1.000e-06
    Generator type                          Wall-Chebyshev
    Shift the energy                                NO
    Use intermediate normalization                  NO
    Fast variational estimate                       NO
    Result perturbation analysis                    NO
    Using OpenMP                                   YES

  ==> Initial Guess <==     -14.843468891134 -1.484e+01

  Initial guess size = 3146

  Davidson-liu solver algorithm
  Generating determinants with N-1 electrons.

  Time spent building single lists: 0.013836 s
  Memory for single-hole lists: 0.115204 MB
  Memory for single-hole maps:  0.460815 MB
  Generating determinants with N-2 electrons.

  Memory for double-hole lists: 0.160034 MB
  Memory for double-hole maps:  0.533447 MB
  Initial guess space is incomplete.
  Trying to add 1 determinant(s).  1 determinant(s) added.
  Initial guess found 117 solutions with 2S+1 = 1 *
  Initial guess found 84 solutions with 2S+1 = 3  
  Adding guess 0 (multiplicity = 1.000000)
  Adding guess 1 (multiplicity = 1.000000)

  ==> Diagonalizing Hamiltonian <==

  ----------------------------------------
    Iter.      Avg. Energy       Delta_E
  ----------------------------------------
      1      -17.260967846825  -1.726e+01
      2      -17.287413241609  -2.645e-02
      3      -17.287890330239  -4.771e-04
      4      -17.287946283272  -5.595e-05
      5      -17.287955703754  -9.420e-06
      6      -17.287957120980  -1.417e-06
      7      -17.287957386984  -2.660e-07
      8      -17.287957430003  -4.302e-08
      9      -17.287957438041  -8.038e-09
     10      -17.287957439421  -1.380e-09
     11      -17.287957439685  -2.644e-10
     12      -17.287957439732  -4.616e-11
  ----------------------------------------
  The Davidson-Liu algorithm converged in 13 iterations.

  Initial guess energy (variational) =     -14.906660001077 Eh (root = 1)

  Most important contributions to the wave function:

    0       0.950725      0.903879           0 |2200000000000000000000000000000002000000000000000000000000000000>    -17.224766329789
    1      -0.107191       0.01149           1 |2000000000000000000000000000000002000000000000200000000000000000>    -17.005439036847
    2      -0.107191       0.01149           2 |2000000000000000000000000000000002000000000000000000020000000000>    -17.005439036847
    3     -0.0875195    0.00765966           3 |2000000000000000000000000000000002000000000000-+0000000000000000>    -16.954345373865
    4     -0.0875195    0.00765966           4 |2000000000000000000000000000000002000000000000+-0000000000000000>    -16.954345373865
    5     -0.0875195    0.00765966           5 |20000000000000000000000000000000020000000000000000000-+000000000>    -16.954345373865
    6     -0.0875195    0.00765966           6 |20000000000000000000000000000000020000000000000000000+-000000000>    -16.954345373865
    7     -0.0732678    0.00536817           7 |2000000000000000000000000000000002000000000000020000000000000000>    -16.895497108044
    8     -0.0732678    0.00536817           8 |2000000000000000000000000000000002000000000000000000002000000000>    -16.895497108044
    9     -0.0465809    0.00216978           9 |2000000000000000000000000000000002200000000000000000000000000000>    -16.965003701329

  Spin State: S^2 = 0.000, S = 0.000, singlet (from 7 determinants,95.75)

  ==> Estimate highest excitation energy <==
  Highest Excited determinant:
  |0000000000002000000000000000000000000000000022000000000000000000>
  Determinant Energy                    :  7.132875390612
  Highest Energy Gershgorin circle Est. :  20.093936083953

  ==> Characteristic Function <==
    f(x) = -1.949498e-05 * x^5 +1.705840e-04 * x^4 +5.970540e-03 * x^3 -3.918234e-02 * x^2 -3.428513e-01 * x +1.000000e+00
    with tau = 1.000000e+00, shift = 0.212340602783, range = 17.500298042515
    Initial guess: lambda_1= -14.906660001077
    Est. Highest eigenvalue=  20.093936083953

  ==> PCI Iterations <==

  --------------------------------------------------------------------------------------------------------------
    Steps  Beta/Eh      Ndets      NoffDiag     Proj. Energy/Eh     dEp/dt      Approx. Energy/Eh   dEv/dt
  --------------------------------------------------------------------------------------------------------------
        0     0.00     147427        682870     -14.907739506429 -1.080e-03     -14.910034639360 -3.089e-03
        1     1.00     167898        853280     -14.908096151111 -3.566e-04     -14.910183425388 -1.488e-04
        2     2.00     169284        850850     -14.908447221804 -3.511e-04     -14.910263040881 -7.962e-05
        3     3.00     169724        860178     -14.908720802593 -2.736e-04     -14.910334997937 -7.196e-05
        4     4.00     170046        862354     -14.908956774214 -2.360e-04     -14.910391264972 -5.627e-05
        5     5.00     170478        867604     -14.909156051329 -1.993e-04     -14.910447278710 -5.601e-05
        6     6.00     170812        869534     -14.909329553194 -1.735e-04     -14.910490984241 -4.371e-05
        7     7.00     171110        873968     -14.909481896211 -1.523e-04     -14.910530353255 -3.937e-05
        8     8.00     171328        875224     -14.909615724575 -1.338e-04     -14.910557653209 -2.730e-05
        9     9.00     171546        878650     -14.909732544678 -1.168e-04     -14.910586866521 -2.921e-05
       10    10.00     171744        879134     -14.909835872714 -1.033e-04     -14.910610812841 -2.395e-05
       11    11.00     171906        881622     -14.909928546641 -9.267e-05     -14.910629645326 -1.883e-05
       12    12.00     172084        882242     -14.910011213290 -8.267e-05     -14.910646104031 -1.646e-05
       13    13.00     172260        884570     -14.910084491644 -7.328e-05     -14.910663984661 -1.788e-05
       14    14.00     172454        885098     -14.910151557489 -6.707e-05     -14.910678307655 -1.432e-05
       15    15.00     172650        887180     -14.910210816399 -5.926e-05     -14.910690771246 -1.246e-05
       16    16.00     172764        887310     -14.910263895285 -5.308e-05     -14.910700483880 -9.713e-06
       17    17.00     172926        889314     -14.910310906480 -4.701e-05
  --------------------------------------------------------------------------------------------------------------

  Calculation converged.

  ==> Post-Iterations <==

  * Size of CI space                    = 172926
  * Number of off-diagonal elements     = 889314
  * Projector-CI Approximate Energy     =   -14.910700483880 Eh
  * Projector-CI Projective  Energy     =   -14.910310906480 Eh

  Most important contributions to the wave function:

    0       0.939519      0.882696           0 |2200000000000000000000000000000002000000000000000000000000000000>    -17.224766329789
    1       -0.11923     0.0142158           1 |2000000000000000000000000000000002000000000000200000000000000000>    -17.005439036847
    2       -0.11923     0.0142158           2 |2000000000000000000000000000000002000000000000000000020000000000>    -17.005439036847
    3     -0.0978825    0.00958098           3 |2000000000000000000000000000000002000000000000+-0000000000000000>    -16.954345373865
    4     -0.0978825    0.00958098           4 |2000000000000000000000000000000002000000000000-+0000000000000000>    -16.954345373865
    5     -0.0978825    0.00958098           5 |20000000000000000000000000000000020000000000000000000+-000000000>    -16.954345373865
    6     -0.0978825    0.00958098           6 |20000000000000000000000000000000020000000000000000000-+000000000>    -16.954345373865
    7     -0.0813538    0.00661844           7 |2000000000000000000000000000000002000000000000020000000000000000>    -16.895497108044
    8     -0.0813538    0.00661844           8 |2000000000000000000000000000000002000000000000000000002000000000>    -16.895497108044
    9      -0.048089    0.00231255           9 |2000000000000000000000000000000002200000000000000000000000000000>    -16.965003701329

  Spin State: S^2 = -0.000, S = 0.000, singlet (from 9 determinants,96.27)
  Projector-CI (bitset) steps finished in  : 39.126737 s

  Variational energy estimated with 172926 determinants to meet the max error 0.000000e+00

  ==> Computing Coupling Lists <==
  --------------------------------
        α          0.249978 s
        β          0.251605 s
        αα         0.170236 s
        ββ         0.177117 s
        αβ         0.496281 s
  --------------------------------
  * Projector-CI Variational Energy     =   -14.910557776072 Eh
  * Projector-CI Var. Corr.  Energy     =    -0.067088884938 Eh
  * 1st order perturbation   Energy     =     0.000142707808 Eh

  Projector-CI (bitset) ran in  : 42.233984 s	PCI energy........................................................PASSED

    Psi4 stopped on: Wednesday, 22 August 2018 06:56PM
    Psi4 wall time for execution: 0:00:48.89

*** Psi4 exiting successfully. Buy a developer a beer!
