
    -----------------------------------------------------------------------
          Psi4: An Open-Source Ab Initio Electronic Structure Package
                               Psi4 1.8a1.dev5 

                         Git: Rev {master} 4d94910 


    D. G. A. Smith, L. A. Burns, A. C. Simmonett, R. M. Parrish,
    M. C. Schieber, R. Galvelis, P. Kraus, H. Kruse, R. Di Remigio,
    A. Alenaizan, A. M. James, S. Lehtola, J. P. Misiewicz, M. Scheurer,
    R. A. Shaw, J. B. Schriber, Y. Xie, Z. L. Glick, D. A. Sirianni,
    J. S. O'Brien, J. M. Waldrop, A. Kumar, E. G. Hohenstein,
    B. P. Pritchard, B. R. Brooks, H. F. Schaefer III, A. Yu. Sokolov,
    K. Patkowski, A. E. DePrince III, U. Bozkaya, R. A. King,
    F. A. Evangelista, J. M. Turney, T. D. Crawford, C. D. Sherrill,
    J. Chem. Phys. 152(18) 184108 (2020). https://doi.org/10.1063/5.0006002

                            Additional Code Authors
    E. T. Seidl, C. L. Janssen, E. F. Valeev, M. L. Leininger,
    J. F. Gonthier, R. M. Richard, H. R. McAlexander, M. Saitow, X. Wang,
    P. Verma, M. H. Lechner, A. Jiang, S. Behnle, A. G. Heide,
    M. F. Herbst, and D. L. Poole

             Previous Authors, Complete List of Code Contributors,
                       and Citations for Specific Modules
    https://github.com/psi4/psi4/blob/master/codemeta.json
    https://github.com/psi4/psi4/graphs/contributors
    http://psicode.org/psi4manual/master/introduction.html#citing-psifour

    -----------------------------------------------------------------------


    Psi4 started on: Sunday, 15 January 2023 11:29PM

    Process ID: 204
    Host:       CHE-FEVANGE-01i
    PSIDATADIR: /Users/fevange/Source/psi4/objdir-Release/stage/share/psi4
    Memory:     500.0 MiB
    Threads:    1
    
  ==> Input File <==

--------------------------------------------------------------------------
import forte

refmcscf     = -15.569761360884 #TEST
refdsrgpt2   = -15.627184888271 #TEST

molecule {
  0 1
  BE        0.000000000000     0.000000000000     0.000000000000
  H         0.000000000000     1.390000000000     2.500000000000
  H         0.000000000000    -1.390000000000     2.500000000000
  units bohr
  no_reorient
}

set globals{
   scf_type             pk
   d_convergence        6 
   e_convergence        12
}

basis {
spherical
****
Be     0
S   6   1.00
   1267.070000     0.001940
    190.356000     0.014786
     43.295900     0.071795
     12.144200     0.236348
      3.809230     0.471763
      1.268470     0.355183
S   3   1.00
      5.693880    -0.028876
      1.555630    -0.177565
      0.171855     1.071630
S   1   1.00
      0.057181     1.000000
P   2   1.00
      1.555630     0.144045
      0.171855     0.949692
P   1   1.00
      5.693880     1.000000
****
H      0
S   3   1.00
     19.240600     0.032828
      2.899200     0.231208
      0.653400     0.817238
S   1   1.00
      0.177600     1.000000
****
}

set forte{
   job_type             mcscf_two_step
   active_space_solver  fci
   restricted_docc      [2,0,0,0]
   active               [1,0,0,1]
   casscf_e_convergence 12
   root_sym             0
   nroot                1
}

scf_energy,scf_wfn = energy('forte', return_wfn = True)
compare_values(refmcscf,scf_energy,10,"MCSCF energy") #TEST

set forte{
   job_type             newdriver
   active_space_solver  fci
   correlation_solver   three-dsrg-mrpt2
   restricted_docc      [2,0,0,0]
   active               [1,0,0,1]
   root_sym             0
   nroot                1
   dsrg_s               1.0e10
   int_type             cholesky
   cholesky_tolerance   1e-14
   print_denom2         true
}

energy('forte', ref_wfn = scf_wfn)
compare_values(refdsrgpt2,variable("CURRENT ENERGY"),10,"DSRG-MRPT2 energy") #TEST
--------------------------------------------------------------------------

Scratch directory: /tmp/

  Forte
  ----------------------------------------------------------------------------
  A suite of quantum chemistry methods for strongly correlated electrons

    git branch: master - git commit: 4225e1f0

  Developed by:
    Francesco A. Evangelista, Chenyang Li, Kevin P. Hannon,
    Jeffrey B. Schriber, Tianyuan Zhang, Chenxi Cai,
    Nan He, Nicholas Stair, Shuhe Wang, Renke Huang
  ----------------------------------------------------------------------------

  Size of Determinant class: 128 bits

  Preparing forte objects from a Psi4 Wavefunction object
  No reference wave function provided for Forte. Computing SCF orbitals using Psi4 ...

*** tstart() called on CHE-FEVANGE-01i
*** at Sun Jan 15 23:29:07 2023

   => Loading Basis Set <=

    Name: ANONYMOUS6D6137FB
    Role: ORBITAL
    Keyword: BASIS
    atoms 1   entry BE         line     5 inputblock anonymous6d6137fb 
    atoms 2-3 entry H          line    25 inputblock anonymous6d6137fb 


         ---------------------------------------------------------
                                   SCF
               by Justin Turney, Rob Parrish, Andy Simmonett
                          and Daniel G. A. Smith
                              RHF Reference
                        1 Threads,    500 MiB Core
         ---------------------------------------------------------

  ==> Geometry <==

    Molecular point group: c2v
    Full point group: C2v

    Geometry (in Bohr), charge = 0, multiplicity = 1:

       Center              X                  Y                   Z               Mass       
    ------------   -----------------  -----------------  -----------------  -----------------
         BE           0.000000000000     0.000000000000    -0.456946083786     9.012183065000
         H           -0.000000000000     1.390000000000     2.043053916214     1.007825032230
         H            0.000000000000    -1.390000000000     2.043053916214     1.007825032230

  Running in c2v symmetry.

  Rotational constants: A =     15.45786  B =      5.84735  C =      4.24251 [cm^-1]
  Rotational constants: A = 463415.11676  B = 175299.21065  C = 127187.22704 [MHz]
  Nuclear repulsion =    3.156487659063052

  Charge       = 0
  Multiplicity = 1
  Electrons    = 6
  Nalpha       = 3
  Nbeta        = 3

  ==> Algorithm <==

  SCF Algorithm Type is PK.
  DIIS enabled.
  MOM disabled.
  Fractional occupation disabled.
  Guess Type is SAD.
  Energy threshold   = 1.00e-12
  Density threshold  = 1.00e-06
  Integral threshold = 1.00e-12

  ==> Primary Basis <==

  Basis Set: ANONYMOUS6D6137FB
    Blend: ANONYMOUS6D6137FB
    Number of shells: 9
    Number of basis functions: 13
    Number of Cartesian functions: 13
    Spherical Harmonics?: true
    Max angular momentum: 1

  ==> Integral Setup <==

  Using in-core PK algorithm.
   Calculation information:
      Number of atoms:                   3
      Number of AO shells:               9
      Number of primitives:             21
      Number of atomic orbitals:        13
      Number of basis functions:        13

      Integral cutoff                 1.00e-12
      Number of threads:                 1

  Performing in-core PK
  Using 8372 doubles for integral storage.
  We computed 1035 shell quartets total.
  Whereas there are 1035 unique shell quartets.

  ==> DiskJK: Disk-Based J/K Matrices <==

    J tasked:                  Yes
    K tasked:                  Yes
    wK tasked:                  No
    Memory [MiB]:              375
    Schwarz Cutoff:          1E-12

    OpenMP threads:              1

  Minimum eigenvalue in the overlap matrix is 9.9525368827E-02.
  Reciprocal condition number of the overlap matrix is 3.4316955989E-02.
    Using symmetric orthogonalization.

  ==> Pre-Iterations <==

  SCF Guess: Superposition of Atomic Densities via on-the-fly atomic UHF (no occupation information).

   -------------------------
    Irrep   Nso     Nmo    
   -------------------------
     A1         7       7 
     A2         0       0 
     B1         2       2 
     B2         4       4 
   -------------------------
    Total      13      13
   -------------------------

  ==> Iterations <==

                        Total Energy        Delta E     RMS |[F,P]|

   @RHF iter SAD:   -15.07250505830336   -1.50725e+01   0.00000e+00 
   @RHF iter   1:   -15.51862674309169   -4.46122e-01   2.04143e-02 ADIIS/DIIS
   @RHF iter   2:   -15.56221406111648   -4.35873e-02   2.74378e-03 ADIIS/DIIS
   @RHF iter   3:   -15.56276088785826   -5.46827e-04   8.24450e-04 ADIIS/DIIS
   @RHF iter   4:   -15.56286420062847   -1.03313e-04   1.85093e-04 ADIIS/DIIS
   @RHF iter   5:   -15.56287198391566   -7.78329e-06   4.20179e-05 DIIS
   @RHF iter   6:   -15.56287237352119   -3.89606e-07   4.63720e-06 DIIS
   @RHF iter   7:   -15.56287237681271   -3.29152e-09   3.45157e-07 DIIS
   @RHF iter   8:   -15.56287237683222   -1.95151e-11   2.92751e-08 DIIS
   @RHF iter   9:   -15.56287237683231   -8.70415e-14   2.48330e-09 DIIS
  Energy and wave function converged.


  ==> Post-Iterations <==

    Orbital Energies [Eh]
    ---------------------

    Doubly Occupied:                                                      

       1A1    -4.745154     2A1    -0.496862     1B2    -0.252144  

    Virtual:                                                              

       3A1    -0.004524     1B1     0.147520     4A1     0.268817  
       2B2     0.280798     5A1     0.399681     3B2     1.190648  
       6A1     1.301378     2B1     8.956704     4B2     9.007371  
       7A1     9.098579  

    Final Occupation by Irrep:
             A1    A2    B1    B2 
    DOCC [     2,    0,    0,    1 ]
    NA   [     2,    0,    0,    1 ]
    NB   [     2,    0,    0,    1 ]

  @RHF Final Energy:   -15.56287237683231

   => Energetics <=

    Nuclear Repulsion Energy =              3.1564876590630520
    One-Electron Energy =                 -26.4504019992847859
    Two-Electron Energy =                   7.7310419633894218
    Total Energy =                        -15.5628723768323098

Computation Completed


Properties will be evaluated at   0.000000,   0.000000,   0.000000 [a0]

Properties computed using the SCF density matrix


 Multipole Moments:

 ------------------------------------------------------------------------------------
     Multipole            Electronic (a.u.)      Nuclear  (a.u.)        Total (a.u.)
 ------------------------------------------------------------------------------------

 L = 1.  Multiply by 2.5417464519 to convert [e a0] to [Debye]
 Dipole X            :          0.0000000            0.0000000            0.0000000
 Dipole Y            :          0.0000000            0.0000000            0.0000000
 Dipole Z            :         -3.9654409            2.2583235           -1.7071175
 Magnitude           :                                                    1.7071175

 ------------------------------------------------------------------------------------

*** tstop() called on CHE-FEVANGE-01i at Sun Jan 15 23:29:07 2023
Module time:
	user time   =       0.13 seconds =       0.00 minutes
	system time =       0.03 seconds =       0.00 minutes
	total time  =          0 seconds =       0.00 minutes
Total time:
	user time   =       0.13 seconds =       0.00 minutes
	system time =       0.03 seconds =       0.00 minutes
	total time  =          0 seconds =       0.00 minutes

  Read options for space RESTRICTED_DOCC
  Read options for space ACTIVE
  Read options for space RESTRICTED_DOCC

  ==> MO Space Information <==

  -------------------------------------------------
                       A1    A2    B1    B2   Sum
  -------------------------------------------------
    FROZEN_DOCC         0     0     0     0     0
    RESTRICTED_DOCC     2     0     0     0     2
    GAS1                1     0     0     1     2
    GAS2                0     0     0     0     0
    GAS3                0     0     0     0     0
    GAS4                0     0     0     0     0
    GAS5                0     0     0     0     0
    GAS6                0     0     0     0     0
    RESTRICTED_UOCC     4     0     2     3     9
    FROZEN_UOCC         0     0     0     0     0
    Total               7     0     2     4    13
  -------------------------------------------------   => Loading Basis Set <=

    Name: STO-3G
    Role: ORBITAL
    Keyword: MINAO_BASIS
    atoms 1   entry BE         line    41 file /Users/fevange/Source/psi4/objdir-Release/stage/share/psi4/basis/sto-3g.gbs 
    atoms 2-3 entry H          line    19 file /Users/fevange/Source/psi4/objdir-Release/stage/share/psi4/basis/sto-3g.gbs 


  Forte will use psi4 integrals

  ==> Primary Basis Set Summary <==

  Basis Set: ANONYMOUS6D6137FB
    Blend: ANONYMOUS6D6137FB
    Number of shells: 9
    Number of basis functions: 13
    Number of Cartesian functions: 13
    Spherical Harmonics?: true
    Max angular momentum: 1


  JK created using conventional PK integrals
  Using in-core PK algorithm.
   Calculation information:
      Number of atoms:                   3
      Number of AO shells:               9
      Number of primitives:             21
      Number of atomic orbitals:        13
      Number of basis functions:        13

      Integral cutoff                 1.00e-12
      Number of threads:                 1

  Performing in-core PK
  Using 8372 doubles for integral storage.
  We computed 1035 shell quartets total.
  Whereas there are 1035 unique shell quartets.

  ==> DiskJK: Disk-Based J/K Matrices <==

    J tasked:                  Yes
    K tasked:                  Yes
    wK tasked:                  No
    Memory [MiB]:              400
    Schwarz Cutoff:          1E-12

    OpenMP threads:              1



  ==> Integral Transformation <==

  Number of molecular orbitals:                         13
  Number of correlated molecular orbitals:              13
  Number of frozen occupied orbitals:                    0
  Number of frozen unoccupied orbitals:                  0
  Two-electron integral type:                 Conventional


  Skip integral allocation and transformation for AO-driven CASSCF.

          -----------------------------------------------------------
                  Multi-Configurational Self Consistent Field
                Two-Step Approximate Second-Order AO Algorithm
            written by Chenyang Li, Kevin P. Hannon, and Shuhe Wang
          -----------------------------------------------------------


  ==> Calculation Information <==

    Integral type                               CONVENTIONAL
    CI solver type                                       FCI
    Final orbital type                             CANONICAL
    Derivative type                                     NONE
    Optimize orbitals                                   TRUE
    Include internal rotations                         FALSE
    Debug printing                                     FALSE
    Energy convergence                             1.000e-12
    Gradient convergence                           1.000e-07
    Max value for rotation                         2.000e-01
    Printing level                                         1
    Max number of macro iterations                       100
    Max number of micro iterations                        40
    Min number of micro iterations                         6
    DIIS start                                            15
    Min DIIS vectors                                       3
    Max DIIS vectors                                       8
    Frequency of DIIS extrapolation                        1


  ==> Independent Orbital Rotations <==

    ORBITAL SPACES                        A1     A2     B1     B2
    -------------------------------------------------------------
             ACTIVE / RESTRICTED_DOCC      2      0      0      0
    RESTRICTED_UOCC /          ACTIVE      4      0      0      3
    RESTRICTED_UOCC / RESTRICTED_DOCC      8      0      0      0
    -------------------------------------------------------------

  ==> Summary of Active Space Solver Input <==

    Irrep.  Multi.(2ms)      N
    --------------------------
       A1      1  (  0)      1
    --------------------------
    N: number of roots
    ms: spin z component
    Total number of roots:   1
    --------------------------


  ==> String Lists <==

  Number of alpha electrons     = 1
  Number of beta electrons      = 1
  Number of alpha strings       = 2
  Number of beta strings        = 2
  Timing for strings        =      0.000 s
  Timing for NN strings     =      0.000 s
  Timing for VO strings     =      0.000 s
  Timing for OO strings     =      0.000 s
  Timing for VVOO strings   =      0.000 s
  Timing for VOVO strings   =      0.000 s
  Timing for 1-hole strings =      0.000 s
  Timing for 2-hole strings =      0.000 s
  Timing for 3-hole strings =      0.000 s
  Total timing              =      0.000 s

  ==> FCI Solver <==

    Number of determinants                           2
    Symmetry                                         0
    Multiplicity                                     1
    Number of roots                                  1
    Target root                                      0
    Trial vectors per root                          10

  Allocating memory for the Hamiltonian algorithm. Size: 2 x 1 x 1.   Memory: 0.000000 GB

  ==> FCI Initial Guess <==

  ---------------------------------------------
    Root            Energy     <S^2>   Spin
  ---------------------------------------------
      0      -15.565395299383  0.000  singlet
      1      -15.401487332583  0.000  singlet
  ---------------------------------------------
  Timing for initial guess  =      0.000 s


  ==> Diagonalizing Hamiltonian <==

  Energy   convergence: 1.00e-12
  Residual convergence: 1.00e-06
  -----------------------------------------------------
    Iter.      Avg. Energy       Delta_E     Res. Norm
  -----------------------------------------------------
      1      -15.565395299383  -1.557e+01  +1.557e+01
      2      -15.565395299383  +0.000e+00  +3.615e-15
  -----------------------------------------------------
  The Davidson-Liu algorithm converged in 3 iterations.

  ==> Root No. 0 <==

    0 2     -0.99227400
    2 0      0.12406576

    Total Energy:     -15.565395299383, <S^2>: -0.000000

  ==> Energy Summary <==

    Multi.(2ms)  Irrep.  No.               Energy      <S^2>
    --------------------------------------------------------
       1  (  0)    A1     0      -15.565395299383  -0.000000
    --------------------------------------------------------

  ==> Computing RDMs for Root No. 0 <==

    Timing for 1-RDM: 0.000 s

  ==> NATURAL ORBITALS <==

        1B2     1.969215      1A1     0.030785  


  ==> Permanent Dipole Moments [e a0] for Singlet (Ms = 0) A1 <==

       State           DM_X           DM_Y           DM_Z           |DM|
    --------------------------------------------------------------------
         0A1    -0.00000000     0.00000000    -1.63108431     1.63108431
    --------------------------------------------------------------------

  ==> Computing RDMs for Root No. 0 <==

    Timing for 1-RDM: 0.000 s
    Timing for 2-RDM: 0.000 s

  ==> NATURAL ORBITALS <==

        1B2     1.969215      1A1     0.030785  


  ==> Optimizing Orbitals for Current RDMs <==

    L-BFGS Iter:  1; fx =  -15.567939329700007; g_norm = 1.105617e-02; step = 1.000e+00
    L-BFGS Iter:  2; fx =  -15.569016722217746; g_norm = 6.799508e-03; step = 5.918e-01
    L-BFGS Iter:  3; fx =  -15.569045980274636; g_norm = 3.296018e-03; step = 1.000e+00
    L-BFGS Iter:  4; fx =  -15.569049859137934; g_norm = 1.606860e-03; step = 1.000e+00
    L-BFGS Iter:  5; fx =  -15.569050881124646; g_norm = 6.757486e-04; step = 1.000e+00
    L-BFGS Iter:  6; fx =  -15.569050976449123; g_norm = 6.757486e-04; step = 1.000e+00

  ==> MCSCF Macro Iter. 1 <==

             Energy CI (  Delta E  )         Energy Opt. (  Delta E  )  E_OPT - E_CI   Orbital RMS  Micro  DIIS
      -15.565395299383 (-1.5565e+01)    -15.569050976449 (-1.5569e+01)   -3.6557e-03    4.4030e-03    6/N

  ==> Summary of Active Space Solver Input <==

    Irrep.  Multi.(2ms)      N
    --------------------------
       A1      1  (  0)      1
    --------------------------
    N: number of roots
    ms: spin z component
    Total number of roots:   1
    --------------------------


  ==> String Lists <==

  Number of alpha electrons     = 1
  Number of beta electrons      = 1
  Number of alpha strings       = 2
  Number of beta strings        = 2
  Timing for strings        =      0.000 s
  Timing for NN strings     =      0.000 s
  Timing for VO strings     =      0.000 s
  Timing for OO strings     =      0.000 s
  Timing for VVOO strings   =      0.000 s
  Timing for VOVO strings   =      0.000 s
  Timing for 1-hole strings =      0.000 s
  Timing for 2-hole strings =      0.000 s
  Timing for 3-hole strings =      0.000 s
  Total timing              =      0.000 s

  ==> FCI Solver <==

    Number of determinants                           2
    Symmetry                                         0
    Multiplicity                                     1
    Number of roots                                  1
    Target root                                      0
    Trial vectors per root                          10

  Allocating memory for the Hamiltonian algorithm. Size: 2 x 1 x 1.   Memory: 0.000000 GB

  ==> FCI Initial Guess <==

  ---------------------------------------------
    Root            Energy     <S^2>   Spin
  ---------------------------------------------
      0      -15.569477099459  0.000  singlet
      1      -15.325776749646  0.000  singlet
  ---------------------------------------------
  Timing for initial guess  =      0.000 s


  ==> Diagonalizing Hamiltonian <==

  Energy   convergence: 7.31e-05
  Residual convergence: 2.20e-05
  -----------------------------------------------------
    Iter.      Avg. Energy       Delta_E     Res. Norm
  -----------------------------------------------------
      1      -15.569477099459  -1.557e+01  +1.557e+01
      2      -15.569477099459  +0.000e+00  +1.831e-15
  -----------------------------------------------------
  The Davidson-Liu algorithm converged in 3 iterations.

  ==> Root No. 0 <==

    0 2     -0.98621820
    2 0      0.16544988

    Total Energy:     -15.569477099459, <S^2>: 0.000000

  ==> Energy Summary <==

    Multi.(2ms)  Irrep.  No.               Energy      <S^2>
    --------------------------------------------------------
       1  (  0)    A1     0      -15.569477099459   0.000000
    --------------------------------------------------------

  ==> Computing RDMs for Root No. 0 <==

    Timing for 1-RDM: 0.000 s

  ==> NATURAL ORBITALS <==

        1B2     1.945253      1A1     0.054747  


  ==> Permanent Dipole Moments [e a0] for Singlet (Ms = 0) A1 <==

       State           DM_X           DM_Y           DM_Z           |DM|
    --------------------------------------------------------------------
         0A1    -0.00000000     0.00000000    -1.57190024     1.57190024
    --------------------------------------------------------------------

  ==> Computing RDMs for Root No. 0 <==

    Timing for 1-RDM: 0.000 s
    Timing for 2-RDM: 0.000 s

  ==> NATURAL ORBITALS <==

        1B2     1.945253      1A1     0.054747  


  ==> Optimizing Orbitals for Current RDMs <==

    L-BFGS Iter:  1; fx =  -15.569620988768037; g_norm = 3.632023e-03; step = 1.000e+00
    L-BFGS Iter:  2; fx =  -15.569645126877488; g_norm = 1.008266e-03; step = 1.000e+00
    L-BFGS Iter:  3; fx =  -15.569645483959073; g_norm = 3.021047e-04; step = 1.000e+00
    L-BFGS Iter:  4; fx =  -15.569645535033089; g_norm = 6.878893e-05; step = 1.000e+00
    L-BFGS Iter:  5; fx =  -15.569645536031084; g_norm = 2.290667e-05; step = 1.000e+00
    L-BFGS Iter:  6; fx =  -15.569645536164632; g_norm = 2.290667e-05; step = 1.000e+00

  ==> MCSCF Macro Iter. 2 <==

             Energy CI (  Delta E  )         Energy Opt. (  Delta E  )  E_OPT - E_CI   Orbital RMS  Micro  DIIS
      -15.569477099459 (-4.0818e-03)    -15.569645536165 (-5.9456e-04)   -1.6844e-04    1.6434e-04    6/N

  ==> Summary of Active Space Solver Input <==

    Irrep.  Multi.(2ms)      N
    --------------------------
       A1      1  (  0)      1
    --------------------------
    N: number of roots
    ms: spin z component
    Total number of roots:   1
    --------------------------


  ==> String Lists <==

  Number of alpha electrons     = 1
  Number of beta electrons      = 1
  Number of alpha strings       = 2
  Number of beta strings        = 2
  Timing for strings        =      0.000 s
  Timing for NN strings     =      0.000 s
  Timing for VO strings     =      0.000 s
  Timing for OO strings     =      0.000 s
  Timing for VVOO strings   =      0.000 s
  Timing for VOVO strings   =      0.000 s
  Timing for 1-hole strings =      0.000 s
  Timing for 2-hole strings =      0.000 s
  Timing for 3-hole strings =      0.000 s
  Total timing              =      0.000 s

  ==> FCI Solver <==

    Number of determinants                           2
    Symmetry                                         0
    Multiplicity                                     1
    Number of roots                                  1
    Target root                                      0
    Trial vectors per root                          10

  Allocating memory for the Hamiltonian algorithm. Size: 2 x 1 x 1.   Memory: 0.000000 GB

  ==> FCI Initial Guess <==

  ---------------------------------------------
    Root            Energy     <S^2>   Spin
  ---------------------------------------------
      0      -15.569727342768  0.000  singlet
      1      -15.366962360358  0.000  singlet
  ---------------------------------------------
  Timing for initial guess  =      0.000 s


  ==> Diagonalizing Hamiltonian <==

  Energy   convergence: 3.37e-06
  Residual convergence: 1.00e-06
  -----------------------------------------------------
    Iter.      Avg. Energy       Delta_E     Res. Norm
  -----------------------------------------------------
      1      -15.569727342768  -1.557e+01  +1.557e+01
      2      -15.569727342768  +0.000e+00  +1.986e-15
  -----------------------------------------------------
  The Davidson-Liu algorithm converged in 3 iterations.

  ==> Root No. 0 <==

    0 2     -0.98269597
    2 0      0.18522587

    Total Energy:     -15.569727342768, <S^2>: 0.000000

  ==> Energy Summary <==

    Multi.(2ms)  Irrep.  No.               Energy      <S^2>
    --------------------------------------------------------
       1  (  0)    A1     0      -15.569727342768   0.000000
    --------------------------------------------------------

  ==> Computing RDMs for Root No. 0 <==

    Timing for 1-RDM: 0.000 s

  ==> NATURAL ORBITALS <==

        1B2     1.931383      1A1     0.068617  


  ==> Permanent Dipole Moments [e a0] for Singlet (Ms = 0) A1 <==

       State           DM_X           DM_Y           DM_Z           |DM|
    --------------------------------------------------------------------
         0A1    -0.00000000     0.00000000    -1.53764372     1.53764372
    --------------------------------------------------------------------

  ==> Computing RDMs for Root No. 0 <==

    Timing for 1-RDM: 0.000 s
    Timing for 2-RDM: 0.000 s

  ==> NATURAL ORBITALS <==

        1B2     1.931383      1A1     0.068617  


  ==> Optimizing Orbitals for Current RDMs <==

    L-BFGS Iter:  1; fx =  -15.569747595996029; g_norm = 1.556160e-03; step = 1.000e+00
    L-BFGS Iter:  2; fx =  -15.569751225345966; g_norm = 3.897655e-04; step = 1.000e+00
    L-BFGS Iter:  3; fx =  -15.569751286019230; g_norm = 1.207416e-04; step = 1.000e+00
    L-BFGS Iter:  4; fx =  -15.569751295407832; g_norm = 3.197117e-05; step = 1.000e+00
    L-BFGS Iter:  5; fx =  -15.569751295642687; g_norm = 1.249973e-05; step = 1.000e+00
    L-BFGS Iter:  6; fx =  -15.569751295691814; g_norm = 1.249973e-05; step = 1.000e+00

  ==> MCSCF Macro Iter. 3 <==

             Energy CI (  Delta E  )         Energy Opt. (  Delta E  )  E_OPT - E_CI   Orbital RMS  Micro  DIIS
      -15.569727342768 (-2.5024e-04)    -15.569751295692 (-1.0576e-04)   -2.3953e-05    2.6637e-06    6/N

  ==> Summary of Active Space Solver Input <==

    Irrep.  Multi.(2ms)      N
    --------------------------
       A1      1  (  0)      1
    --------------------------
    N: number of roots
    ms: spin z component
    Total number of roots:   1
    --------------------------


  ==> String Lists <==

  Number of alpha electrons     = 1
  Number of beta electrons      = 1
  Number of alpha strings       = 2
  Number of beta strings        = 2
  Timing for strings        =      0.000 s
  Timing for NN strings     =      0.000 s
  Timing for VO strings     =      0.000 s
  Timing for OO strings     =      0.000 s
  Timing for VVOO strings   =      0.000 s
  Timing for VOVO strings   =      0.000 s
  Timing for 1-hole strings =      0.000 s
  Timing for 2-hole strings =      0.000 s
  Timing for 3-hole strings =      0.000 s
  Total timing              =      0.000 s

  ==> FCI Solver <==

    Number of determinants                           2
    Symmetry                                         0
    Multiplicity                                     1
    Number of roots                                  1
    Target root                                      0
    Trial vectors per root                          10

  Allocating memory for the Hamiltonian algorithm. Size: 2 x 1 x 1.   Memory: 0.000000 GB

  ==> FCI Initial Guess <==

  ---------------------------------------------
    Root            Energy     <S^2>   Spin
  ---------------------------------------------
      0      -15.569758782148  0.000  singlet
      1      -15.378372239211  0.000  singlet
  ---------------------------------------------
  Timing for initial guess  =      0.000 s


  ==> Diagonalizing Hamiltonian <==

  Energy   convergence: 4.79e-07
  Residual convergence: 1.00e-06
  -----------------------------------------------------
    Iter.      Avg. Energy       Delta_E     Res. Norm
  -----------------------------------------------------
      1      -15.569758782148  -1.557e+01  +1.557e+01
      2      -15.569758782148  +0.000e+00  +1.986e-15
  -----------------------------------------------------
  The Davidson-Liu algorithm converged in 3 iterations.

  ==> Root No. 0 <==

    0 2     -0.98151829
    2 0      0.19136838

    Total Energy:     -15.569758782148, <S^2>: 0.000000

  ==> Energy Summary <==

    Multi.(2ms)  Irrep.  No.               Energy      <S^2>
    --------------------------------------------------------
       1  (  0)    A1     0      -15.569758782148   0.000000
    --------------------------------------------------------

  ==> Computing RDMs for Root No. 0 <==

    Timing for 1-RDM: 0.000 s

  ==> NATURAL ORBITALS <==

        1B2     1.926756      1A1     0.073244  


  ==> Permanent Dipole Moments [e a0] for Singlet (Ms = 0) A1 <==

       State           DM_X           DM_Y           DM_Z           |DM|
    --------------------------------------------------------------------
         0A1    -0.00000000     0.00000000    -1.52621709     1.52621709
    --------------------------------------------------------------------

  ==> Computing RDMs for Root No. 0 <==

    Timing for 1-RDM: 0.000 s
    Timing for 2-RDM: 0.000 s

  ==> NATURAL ORBITALS <==

        1B2     1.926756      1A1     0.073244  


  ==> Optimizing Orbitals for Current RDMs <==

    L-BFGS Iter:  1; fx =  -15.569760395351892; g_norm = 4.702786e-04; step = 1.000e+00
    L-BFGS Iter:  2; fx =  -15.569760692839258; g_norm = 1.123119e-04; step = 1.000e+00
    L-BFGS Iter:  3; fx =  -15.569760698032612; g_norm = 3.540493e-05; step = 1.000e+00
    L-BFGS Iter:  4; fx =  -15.569760698868878; g_norm = 1.019663e-05; step = 1.000e+00
    L-BFGS Iter:  5; fx =  -15.569760698894299; g_norm = 4.384622e-06; step = 1.000e+00
    L-BFGS Iter:  6; fx =  -15.569760698901078; g_norm = 4.384622e-06; step = 1.000e+00

  ==> MCSCF Macro Iter. 4 <==

             Energy CI (  Delta E  )         Energy Opt. (  Delta E  )  E_OPT - E_CI   Orbital RMS  Micro  DIIS
      -15.569758782148 (-3.1439e-05)    -15.569760698901 (-9.4032e-06)   -1.9168e-06    1.9759e-06    6/N

  ==> Summary of Active Space Solver Input <==

    Irrep.  Multi.(2ms)      N
    --------------------------
       A1      1  (  0)      1
    --------------------------
    N: number of roots
    ms: spin z component
    Total number of roots:   1
    --------------------------


  ==> String Lists <==

  Number of alpha electrons     = 1
  Number of beta electrons      = 1
  Number of alpha strings       = 2
  Number of beta strings        = 2
  Timing for strings        =      0.000 s
  Timing for NN strings     =      0.000 s
  Timing for VO strings     =      0.000 s
  Timing for OO strings     =      0.000 s
  Timing for VVOO strings   =      0.000 s
  Timing for VOVO strings   =      0.000 s
  Timing for 1-hole strings =      0.000 s
  Timing for 2-hole strings =      0.000 s
  Timing for 3-hole strings =      0.000 s
  Total timing              =      0.000 s

  ==> FCI Solver <==

    Number of determinants                           2
    Symmetry                                         0
    Multiplicity                                     1
    Number of roots                                  1
    Target root                                      0
    Trial vectors per root                          10

  Allocating memory for the Hamiltonian algorithm. Size: 2 x 1 x 1.   Memory: 0.000000 GB

  ==> FCI Initial Guess <==

  ---------------------------------------------
    Root            Energy     <S^2>   Spin
  ---------------------------------------------
      0      -15.569761198023  0.000  singlet
      1      -15.381272213611  0.000  singlet
  ---------------------------------------------
  Timing for initial guess  =      0.000 s


  ==> Diagonalizing Hamiltonian <==

  Energy   convergence: 3.83e-08
  Residual convergence: 1.00e-06
  -----------------------------------------------------
    Iter.      Avg. Energy       Delta_E     Res. Norm
  -----------------------------------------------------
      1      -15.569761198023  -1.557e+01  +1.557e+01
      2      -15.569761198023  +0.000e+00  +0.000e+00
  -----------------------------------------------------
  The Davidson-Liu algorithm converged in 3 iterations.

  ==> Root No. 0 <==

    0 2     -0.98120558
    2 0      0.19296532

    Total Energy:     -15.569761198023, <S^2>: 0.000000

  ==> Energy Summary <==

    Multi.(2ms)  Irrep.  No.               Energy      <S^2>
    --------------------------------------------------------
       1  (  0)    A1     0      -15.569761198023   0.000000
    --------------------------------------------------------

  ==> Computing RDMs for Root No. 0 <==

    Timing for 1-RDM: 0.000 s

  ==> NATURAL ORBITALS <==

        1B2     1.925529      1A1     0.074471  


  ==> Permanent Dipole Moments [e a0] for Singlet (Ms = 0) A1 <==

       State           DM_X           DM_Y           DM_Z           |DM|
    --------------------------------------------------------------------
         0A1    -0.00000000     0.00000000    -1.52318531     1.52318531
    --------------------------------------------------------------------

  ==> Computing RDMs for Root No. 0 <==

    Timing for 1-RDM: 0.000 s
    Timing for 2-RDM: 0.000 s

  ==> NATURAL ORBITALS <==

        1B2     1.925529      1A1     0.074471  


  ==> Optimizing Orbitals for Current RDMs <==

    L-BFGS Iter:  1; fx =  -15.569761301231388; g_norm = 1.214747e-04; step = 1.000e+00
    L-BFGS Iter:  2; fx =  -15.569761320417490; g_norm = 2.860767e-05; step = 1.000e+00
    L-BFGS Iter:  3; fx =  -15.569761320756694; g_norm = 9.078911e-06; step = 1.000e+00
    L-BFGS Iter:  4; fx =  -15.569761320812082; g_norm = 2.684738e-06; step = 1.000e+00
    L-BFGS Iter:  5; fx =  -15.569761320813887; g_norm = 1.183173e-06; step = 1.000e+00
    L-BFGS Iter:  6; fx =  -15.569761320814392; g_norm = 1.183173e-06; step = 1.000e+00

  ==> MCSCF Macro Iter. 5 <==

             Energy CI (  Delta E  )         Energy Opt. (  Delta E  )  E_OPT - E_CI   Orbital RMS  Micro  DIIS
      -15.569761198023 (-2.4159e-06)    -15.569761320814 (-6.2191e-07)   -1.2279e-07    7.7658e-07    6/N

  ==> Summary of Active Space Solver Input <==

    Irrep.  Multi.(2ms)      N
    --------------------------
       A1      1  (  0)      1
    --------------------------
    N: number of roots
    ms: spin z component
    Total number of roots:   1
    --------------------------


  ==> String Lists <==

  Number of alpha electrons     = 1
  Number of beta electrons      = 1
  Number of alpha strings       = 2
  Number of beta strings        = 2
  Timing for strings        =      0.000 s
  Timing for NN strings     =      0.000 s
  Timing for VO strings     =      0.000 s
  Timing for OO strings     =      0.000 s
  Timing for VVOO strings   =      0.000 s
  Timing for VOVO strings   =      0.000 s
  Timing for 1-hole strings =      0.000 s
  Timing for 2-hole strings =      0.000 s
  Timing for 3-hole strings =      0.000 s
  Total timing              =      0.000 s

  ==> FCI Solver <==

    Number of determinants                           2
    Symmetry                                         0
    Multiplicity                                     1
    Number of roots                                  1
    Target root                                      0
    Trial vectors per root                          10

  Allocating memory for the Hamiltonian algorithm. Size: 2 x 1 x 1.   Memory: 0.000000 GB

  ==> FCI Initial Guess <==

  ---------------------------------------------
    Root            Energy     <S^2>   Spin
  ---------------------------------------------
      0      -15.569761351128  0.000  singlet
      1      -15.381984825587  0.000  singlet
  ---------------------------------------------
  Timing for initial guess  =      0.000 s


  ==> Diagonalizing Hamiltonian <==

  Energy   convergence: 2.46e-09
  Residual convergence: 1.00e-06
  -----------------------------------------------------
    Iter.      Avg. Energy       Delta_E     Res. Norm
  -----------------------------------------------------
      1      -15.569761351128  -1.557e+01  +1.557e+01
      2      -15.569761351128  +0.000e+00  +1.831e-15
  -----------------------------------------------------
  The Davidson-Liu algorithm converged in 3 iterations.

  ==> Root No. 0 <==

    0 2     -0.98112797
    2 0      0.19335954

    Total Energy:     -15.569761351128, <S^2>: 0.000000

  ==> Energy Summary <==

    Multi.(2ms)  Irrep.  No.               Energy      <S^2>
    --------------------------------------------------------
       1  (  0)    A1     0      -15.569761351128   0.000000
    --------------------------------------------------------

  ==> Computing RDMs for Root No. 0 <==

    Timing for 1-RDM: 0.000 s

  ==> NATURAL ORBITALS <==

        1B2     1.925224      1A1     0.074776  


  ==> Permanent Dipole Moments [e a0] for Singlet (Ms = 0) A1 <==

       State           DM_X           DM_Y           DM_Z           |DM|
    --------------------------------------------------------------------
         0A1    -0.00000000     0.00000000    -1.52243301     1.52243301
    --------------------------------------------------------------------

  ==> Computing RDMs for Root No. 0 <==

    Timing for 1-RDM: 0.000 s
    Timing for 2-RDM: 0.000 s

  ==> NATURAL ORBITALS <==

        1B2     1.925224      1A1     0.074776  


  ==> Optimizing Orbitals for Current RDMs <==

    L-BFGS Iter:  1; fx =  -15.569761357330057; g_norm = 2.994048e-05; step = 1.000e+00
    L-BFGS Iter:  2; fx =  -15.569761358485371; g_norm = 7.025747e-06; step = 1.000e+00
    L-BFGS Iter:  3; fx =  -15.569761358505863; g_norm = 2.233755e-06; step = 1.000e+00
    L-BFGS Iter:  4; fx =  -15.569761358509215; g_norm = 6.650370e-07; step = 1.000e+00
    L-BFGS Iter:  5; fx =  -15.569761358509329; g_norm = 2.947854e-07; step = 1.000e+00
    L-BFGS Iter:  6; fx =  -15.569761358509362; g_norm = 2.947854e-07; step = 1.000e+00

  ==> MCSCF Macro Iter. 6 <==

             Energy CI (  Delta E  )         Energy Opt. (  Delta E  )  E_OPT - E_CI   Orbital RMS  Micro  DIIS
      -15.569761351128 (-1.5310e-07)    -15.569761358509 (-3.7695e-08)   -7.3816e-09    2.1547e-07    6/N

  ==> Summary of Active Space Solver Input <==

    Irrep.  Multi.(2ms)      N
    --------------------------
       A1      1  (  0)      1
    --------------------------
    N: number of roots
    ms: spin z component
    Total number of roots:   1
    --------------------------


  ==> String Lists <==

  Number of alpha electrons     = 1
  Number of beta electrons      = 1
  Number of alpha strings       = 2
  Number of beta strings        = 2
  Timing for strings        =      0.000 s
  Timing for NN strings     =      0.000 s
  Timing for VO strings     =      0.000 s
  Timing for OO strings     =      0.000 s
  Timing for VVOO strings   =      0.000 s
  Timing for VOVO strings   =      0.000 s
  Timing for 1-hole strings =      0.000 s
  Timing for 2-hole strings =      0.000 s
  Timing for 3-hole strings =      0.000 s
  Total timing              =      0.000 s

  ==> FCI Solver <==

    Number of determinants                           2
    Symmetry                                         0
    Multiplicity                                     1
    Number of roots                                  1
    Target root                                      0
    Trial vectors per root                          10

  Allocating memory for the Hamiltonian algorithm. Size: 2 x 1 x 1.   Memory: 0.000000 GB

  ==> FCI Initial Guess <==

  ---------------------------------------------
    Root            Energy     <S^2>   Spin
  ---------------------------------------------
      0      -15.569761360307  0.000  singlet
      1      -15.382158252020  0.000  singlet
  ---------------------------------------------
  Timing for initial guess  =      0.000 s


  ==> Diagonalizing Hamiltonian <==

  Energy   convergence: 1.48e-10
  Residual convergence: 1.00e-06
  -----------------------------------------------------
    Iter.      Avg. Energy       Delta_E     Res. Norm
  -----------------------------------------------------
      1      -15.569761360307  -1.557e+01  +1.557e+01
      2      -15.569761360307  +0.000e+00  +3.553e-15
  -----------------------------------------------------
  The Davidson-Liu algorithm converged in 3 iterations.

  ==> Root No. 0 <==

    0 2     -0.98110903
    2 0      0.19345558

    Total Energy:     -15.569761360307, <S^2>: -0.000000

  ==> Energy Summary <==

    Multi.(2ms)  Irrep.  No.               Energy      <S^2>
    --------------------------------------------------------
       1  (  0)    A1     0      -15.569761360307  -0.000000
    --------------------------------------------------------

  ==> Computing RDMs for Root No. 0 <==

    Timing for 1-RDM: 0.000 s

  ==> NATURAL ORBITALS <==

        1B2     1.925150      1A1     0.074850  


  ==> Permanent Dipole Moments [e a0] for Singlet (Ms = 0) A1 <==

       State           DM_X           DM_Y           DM_Z           |DM|
    --------------------------------------------------------------------
         0A1    -0.00000000     0.00000000    -1.52224950     1.52224950
    --------------------------------------------------------------------

  ==> Computing RDMs for Root No. 0 <==

    Timing for 1-RDM: 0.000 s
    Timing for 2-RDM: 0.000 s

  ==> NATURAL ORBITALS <==

        1B2     1.925150      1A1     0.074850  


  ==> Optimizing Orbitals for Current RDMs <==

    L-BFGS Iter:  1; fx =  -15.569761360673837; g_norm = 7.291309e-06; step = 1.000e+00
    L-BFGS Iter:  2; fx =  -15.569761360742200; g_norm = 1.709445e-06; step = 1.000e+00
    L-BFGS Iter:  3; fx =  -15.569761360743417; g_norm = 5.437432e-07; step = 1.000e+00
    L-BFGS Iter:  4; fx =  -15.569761360743623; g_norm = 1.621533e-07; step = 1.000e+00
    L-BFGS Iter:  5; fx =  -15.569761360743623; g_norm = 7.197584e-08; step = 1.000e+00

  ==> MCSCF Macro Iter. 7 <==

             Energy CI (  Delta E  )         Energy Opt. (  Delta E  )  E_OPT - E_CI   Orbital RMS  Micro  DIIS
      -15.569761360307 (-9.1792e-09)    -15.569761360744 (-2.2343e-09)   -4.3664e-10    5.4039e-08    5/Y

  ==> Summary of Active Space Solver Input <==

    Irrep.  Multi.(2ms)      N
    --------------------------
       A1      1  (  0)      1
    --------------------------
    N: number of roots
    ms: spin z component
    Total number of roots:   1
    --------------------------


  ==> String Lists <==

  Number of alpha electrons     = 1
  Number of beta electrons      = 1
  Number of alpha strings       = 2
  Number of beta strings        = 2
  Timing for strings        =      0.000 s
  Timing for NN strings     =      0.000 s
  Timing for VO strings     =      0.000 s
  Timing for OO strings     =      0.000 s
  Timing for VVOO strings   =      0.000 s
  Timing for VOVO strings   =      0.000 s
  Timing for 1-hole strings =      0.000 s
  Timing for 2-hole strings =      0.000 s
  Timing for 3-hole strings =      0.000 s
  Total timing              =      0.000 s

  ==> FCI Solver <==

    Number of determinants                           2
    Symmetry                                         0
    Multiplicity                                     1
    Number of roots                                  1
    Target root                                      0
    Trial vectors per root                          10

  Allocating memory for the Hamiltonian algorithm. Size: 2 x 1 x 1.   Memory: 0.000000 GB

  ==> FCI Initial Guess <==

  ---------------------------------------------
    Root            Energy     <S^2>   Spin
  ---------------------------------------------
      0      -15.569761360850  0.000  singlet
      1      -15.382200377101  0.000  singlet
  ---------------------------------------------
  Timing for initial guess  =      0.000 s


  ==> Diagonalizing Hamiltonian <==

  Energy   convergence: 8.73e-12
  Residual convergence: 1.00e-06
  -----------------------------------------------------
    Iter.      Avg. Energy       Delta_E     Res. Norm
  -----------------------------------------------------
      1      -15.569761360850  -1.557e+01  +1.557e+01
      2      -15.569761360850  +0.000e+00  +1.831e-15
  -----------------------------------------------------
  The Davidson-Liu algorithm converged in 3 iterations.

  ==> Root No. 0 <==

    0 2     -0.98110444
    2 0      0.19347891

    Total Energy:     -15.569761360850, <S^2>: 0.000000

  ==> Energy Summary <==

    Multi.(2ms)  Irrep.  No.               Energy      <S^2>
    --------------------------------------------------------
       1  (  0)    A1     0      -15.569761360850   0.000000
    --------------------------------------------------------

  ==> Computing RDMs for Root No. 0 <==

    Timing for 1-RDM: 0.000 s

  ==> NATURAL ORBITALS <==

        1B2     1.925132      1A1     0.074868  


  ==> Permanent Dipole Moments [e a0] for Singlet (Ms = 0) A1 <==

       State           DM_X           DM_Y           DM_Z           |DM|
    --------------------------------------------------------------------
         0A1    -0.00000000     0.00000000    -1.52220492     1.52220492
    --------------------------------------------------------------------

  ==> Computing RDMs for Root No. 0 <==

    Timing for 1-RDM: 0.000 s
    Timing for 2-RDM: 0.000 s

  ==> NATURAL ORBITALS <==

        1B2     1.925132      1A1     0.074868  


  ==> Optimizing Orbitals for Current RDMs <==

    L-BFGS Iter:  1; fx =  -15.569761360871224; g_norm = 1.776357e-06; step = 1.000e+00
    L-BFGS Iter:  2; fx =  -15.569761360875255; g_norm = 4.208923e-07; step = 1.000e+00
    L-BFGS Iter:  3; fx =  -15.569761360875329; g_norm = 1.356727e-07; step = 1.000e+00
    L-BFGS Iter:  4; fx =  -15.569761360875340; g_norm = 4.128893e-08; step = 1.000e+00

  ==> MCSCF Macro Iter. 8 <==

             Energy CI (  Delta E  )         Energy Opt. (  Delta E  )  E_OPT - E_CI   Orbital RMS  Micro  DIIS
      -15.569761360850 (-5.4264e-10)    -15.569761360875 (-1.3172e-10)   -2.5711e-11    1.0259e-08    4/Y

  ==> Summary of Active Space Solver Input <==

    Irrep.  Multi.(2ms)      N
    --------------------------
       A1      1  (  0)      1
    --------------------------
    N: number of roots
    ms: spin z component
    Total number of roots:   1
    --------------------------


  ==> String Lists <==

  Number of alpha electrons     = 1
  Number of beta electrons      = 1
  Number of alpha strings       = 2
  Number of beta strings        = 2
  Timing for strings        =      0.000 s
  Timing for NN strings     =      0.000 s
  Timing for VO strings     =      0.000 s
  Timing for OO strings     =      0.000 s
  Timing for VVOO strings   =      0.000 s
  Timing for VOVO strings   =      0.000 s
  Timing for 1-hole strings =      0.000 s
  Timing for 2-hole strings =      0.000 s
  Timing for 3-hole strings =      0.000 s
  Total timing              =      0.000 s

  ==> FCI Solver <==

    Number of determinants                           2
    Symmetry                                         0
    Multiplicity                                     1
    Number of roots                                  1
    Target root                                      0
    Trial vectors per root                          10

  Allocating memory for the Hamiltonian algorithm. Size: 2 x 1 x 1.   Memory: 0.000000 GB

  ==> FCI Initial Guess <==

  ---------------------------------------------
    Root            Energy     <S^2>   Spin
  ---------------------------------------------
      0      -15.569761360882  0.000  singlet
      1      -15.382210590934  0.000  singlet
  ---------------------------------------------
  Timing for initial guess  =      0.000 s


  ==> Diagonalizing Hamiltonian <==

  Energy   convergence: 1.00e-12
  Residual convergence: 1.00e-06
  -----------------------------------------------------
    Iter.      Avg. Energy       Delta_E     Res. Norm
  -----------------------------------------------------
      1      -15.569761360882  -1.557e+01  +1.557e+01
      2      -15.569761360882  +0.000e+00  +1.986e-15
  -----------------------------------------------------
  The Davidson-Liu algorithm converged in 3 iterations.

  ==> Root No. 0 <==

    0 2     -0.98110332
    2 0      0.19348457

    Total Energy:     -15.569761360882, <S^2>: 0.000000

  ==> Energy Summary <==

    Multi.(2ms)  Irrep.  No.               Energy      <S^2>
    --------------------------------------------------------
       1  (  0)    A1     0      -15.569761360882   0.000000
    --------------------------------------------------------

  ==> Computing RDMs for Root No. 0 <==

    Timing for 1-RDM: 0.000 s

  ==> NATURAL ORBITALS <==

        1B2     1.925127      1A1     0.074873  


  ==> Permanent Dipole Moments [e a0] for Singlet (Ms = 0) A1 <==

       State           DM_X           DM_Y           DM_Z           |DM|
    --------------------------------------------------------------------
         0A1    -0.00000000     0.00000000    -1.52219410     1.52219410
    --------------------------------------------------------------------

  ==> Computing RDMs for Root No. 0 <==

    Timing for 1-RDM: 0.000 s
    Timing for 2-RDM: 0.000 s

  ==> NATURAL ORBITALS <==

        1B2     1.925127      1A1     0.074873  


  ==> Optimizing Orbitals for Current RDMs <==

    L-BFGS Iter:  1; fx =  -15.569761360882854; g_norm = 4.339490e-07; step = 1.000e+00
    L-BFGS Iter:  2; fx =  -15.569761360883078; g_norm = 1.047642e-07; step = 1.000e+00
    L-BFGS Iter:  3; fx =  -15.569761360883088; g_norm = 3.426146e-08; step = 1.000e+00

  ==> MCSCF Macro Iter. 9 <==

             Energy CI (  Delta E  )         Energy Opt. (  Delta E  )  E_OPT - E_CI   Orbital RMS  Micro  DIIS
      -15.569761360882 (-3.1957e-11)    -15.569761360883 (-7.7485e-12)   -1.5028e-12    1.3294e-08    3/Y

  ==> Summary of Active Space Solver Input <==

    Irrep.  Multi.(2ms)      N
    --------------------------
       A1      1  (  0)      1
    --------------------------
    N: number of roots
    ms: spin z component
    Total number of roots:   1
    --------------------------


  ==> String Lists <==

  Number of alpha electrons     = 1
  Number of beta electrons      = 1
  Number of alpha strings       = 2
  Number of beta strings        = 2
  Timing for strings        =      0.000 s
  Timing for NN strings     =      0.000 s
  Timing for VO strings     =      0.000 s
  Timing for OO strings     =      0.000 s
  Timing for VVOO strings   =      0.000 s
  Timing for VOVO strings   =      0.000 s
  Timing for 1-hole strings =      0.000 s
  Timing for 2-hole strings =      0.000 s
  Timing for 3-hole strings =      0.000 s
  Total timing              =      0.000 s

  ==> FCI Solver <==

    Number of determinants                           2
    Symmetry                                         0
    Multiplicity                                     1
    Number of roots                                  1
    Target root                                      0
    Trial vectors per root                          10

  Allocating memory for the Hamiltonian algorithm. Size: 2 x 1 x 1.   Memory: 0.000000 GB

  ==> FCI Initial Guess <==

  ---------------------------------------------
    Root            Energy     <S^2>   Spin
  ---------------------------------------------
      0      -15.569761360883  0.000  singlet
      1      -15.382213061866  0.000  singlet
  ---------------------------------------------
  Timing for initial guess  =      0.000 s


  ==> Diagonalizing Hamiltonian <==

  Energy   convergence: 1.00e-12
  Residual convergence: 1.00e-06
  -----------------------------------------------------
    Iter.      Avg. Energy       Delta_E     Res. Norm
  -----------------------------------------------------
      1      -15.569761360883  -1.557e+01  +1.557e+01
      2      -15.569761360883  +0.000e+00  +4.441e-16
  -----------------------------------------------------
  The Davidson-Liu algorithm converged in 3 iterations.

  ==> Root No. 0 <==

    0 2     -0.98110305
    2 0      0.19348594

    Total Energy:     -15.569761360883, <S^2>: 0.000000

  ==> Energy Summary <==

    Multi.(2ms)  Irrep.  No.               Energy      <S^2>
    --------------------------------------------------------
       1  (  0)    A1     0      -15.569761360883   0.000000
    --------------------------------------------------------

  ==> Computing RDMs for Root No. 0 <==

    Timing for 1-RDM: 0.000 s

  ==> NATURAL ORBITALS <==

        1B2     1.925126      1A1     0.074874  


  ==> Permanent Dipole Moments [e a0] for Singlet (Ms = 0) A1 <==

       State           DM_X           DM_Y           DM_Z           |DM|
    --------------------------------------------------------------------
         0A1    -0.00000000     0.00000000    -1.52219148     1.52219148
    --------------------------------------------------------------------

  ==> Computing RDMs for Root No. 0 <==

    Timing for 1-RDM: 0.000 s
    Timing for 2-RDM: 0.000 s

  ==> NATURAL ORBITALS <==

        1B2     1.925126      1A1     0.074874  


  ==> Optimizing Orbitals for Current RDMs <==

    L-BFGS Iter:  1; fx =  -15.569761360883527; g_norm = 1.130659e-07; step = 1.000e+00
    L-BFGS Iter:  2; fx =  -15.569761360883540; g_norm = 2.372447e-08; step = 1.000e+00

  ==> MCSCF Macro Iter. 10 <==

             Energy CI (  Delta E  )         Energy Opt. (  Delta E  )  E_OPT - E_CI   Orbital RMS  Micro  DIIS
      -15.569761360883 (-1.8687e-12)    -15.569761360884 (-4.5119e-13)   -8.5265e-14    5.6068e-09    2/Y

  ==> Summary of Active Space Solver Input <==

    Irrep.  Multi.(2ms)      N
    --------------------------
       A1      1  (  0)      1
    --------------------------
    N: number of roots
    ms: spin z component
    Total number of roots:   1
    --------------------------


  ==> String Lists <==

  Number of alpha electrons     = 1
  Number of beta electrons      = 1
  Number of alpha strings       = 2
  Number of beta strings        = 2
  Timing for strings        =      0.000 s
  Timing for NN strings     =      0.000 s
  Timing for VO strings     =      0.000 s
  Timing for OO strings     =      0.000 s
  Timing for VVOO strings   =      0.000 s
  Timing for VOVO strings   =      0.000 s
  Timing for 1-hole strings =      0.000 s
  Timing for 2-hole strings =      0.000 s
  Timing for 3-hole strings =      0.000 s
  Total timing              =      0.000 s

  ==> FCI Solver <==

    Number of determinants                           2
    Symmetry                                         0
    Multiplicity                                     1
    Number of roots                                  1
    Target root                                      0
    Trial vectors per root                          10

  Allocating memory for the Hamiltonian algorithm. Size: 2 x 1 x 1.   Memory: 0.000000 GB

  ==> FCI Initial Guess <==

  ---------------------------------------------
    Root            Energy     <S^2>   Spin
  ---------------------------------------------
      0      -15.569761360884  0.000  singlet
      1      -15.382213652426  0.000  singlet
  ---------------------------------------------
  Timing for initial guess  =      0.000 s


  ==> Diagonalizing Hamiltonian <==

  Energy   convergence: 1.00e-12
  Residual convergence: 1.00e-06
  -----------------------------------------------------
    Iter.      Avg. Energy       Delta_E     Res. Norm
  -----------------------------------------------------
      1      -15.569761360884  -1.557e+01  +1.557e+01
      2      -15.569761360884  +0.000e+00  +1.831e-15
  -----------------------------------------------------
  The Davidson-Liu algorithm converged in 3 iterations.

  ==> Root No. 0 <==

    0 2     -0.98110298
    2 0      0.19348627

    Total Energy:     -15.569761360884, <S^2>: 0.000000

  ==> Energy Summary <==

    Multi.(2ms)  Irrep.  No.               Energy      <S^2>
    --------------------------------------------------------
       1  (  0)    A1     0      -15.569761360884   0.000000
    --------------------------------------------------------

  ==> Computing RDMs for Root No. 0 <==

    Timing for 1-RDM: 0.000 s

  ==> NATURAL ORBITALS <==

        1B2     1.925126      1A1     0.074874  


  ==> Permanent Dipole Moments [e a0] for Singlet (Ms = 0) A1 <==

       State           DM_X           DM_Y           DM_Z           |DM|
    --------------------------------------------------------------------
         0A1    -0.00000000     0.00000000    -1.52219085     1.52219085
    --------------------------------------------------------------------

  ==> Computing RDMs for Root No. 0 <==

    Timing for 1-RDM: 0.000 s
    Timing for 2-RDM: 0.000 s

  ==> NATURAL ORBITALS <==

        1B2     1.925126      1A1     0.074874  


  ==> Optimizing Orbitals for Current RDMs <==


  ==> MCSCF Macro Iter. 11 <==

             Energy CI (  Delta E  )         Energy Opt. (  Delta E  )  E_OPT - E_CI   Orbital RMS  Micro  DIIS
      -15.569761360884 (-1.0481e-13)    -15.569761360884 (-1.9540e-14)    0.0000e+00    1.4176e-08    0/Y

  A miracle has come to pass: MCSCF iterations have converged!

  ==> MCSCF Iteration Summary <==

                      Energy CI                    Energy Orbital
           ------------------------------  ------------------------------
    Iter.        Total Energy       Delta        Total Energy       Delta  Orb. Grad.  Micro
    ----------------------------------------------------------------------------------------
       1     -15.565395299383  0.0000e+00    -15.569050976449  0.0000e+00  4.4030e-03     6
       2     -15.569477099459 -4.0818e-03    -15.569645536165 -5.9456e-04  1.6434e-04     6
       3     -15.569727342768 -2.5024e-04    -15.569751295692 -1.0576e-04  2.6637e-06     6
       4     -15.569758782148 -3.1439e-05    -15.569760698901 -9.4032e-06  1.9759e-06     6
       5     -15.569761198023 -2.4159e-06    -15.569761320814 -6.2191e-07  7.7658e-07     6
       6     -15.569761351128 -1.5310e-07    -15.569761358509 -3.7695e-08  2.1547e-07     6
       7     -15.569761360307 -9.1792e-09    -15.569761360744 -2.2343e-09  5.4039e-08     5
       8     -15.569761360850 -5.4264e-10    -15.569761360875 -1.3172e-10  1.0259e-08     4
       9     -15.569761360882 -3.1957e-11    -15.569761360883 -7.7485e-12  1.3294e-08     3
      10     -15.569761360883 -1.8687e-12    -15.569761360884 -4.5119e-13  5.6068e-09     2
      11     -15.569761360884 -1.0481e-13    -15.569761360884 -1.9540e-14  1.4176e-08     0
    ----------------------------------------------------------------------------------------

  ==> Summary of Active Space Solver Input <==

    Irrep.  Multi.(2ms)      N
    --------------------------
       A1      1  (  0)      1
    --------------------------
    N: number of roots
    ms: spin z component
    Total number of roots:   1
    --------------------------


  ==> String Lists <==

  Number of alpha electrons     = 1
  Number of beta electrons      = 1
  Number of alpha strings       = 2
  Number of beta strings        = 2
  Timing for strings        =      0.000 s
  Timing for NN strings     =      0.000 s
  Timing for VO strings     =      0.000 s
  Timing for OO strings     =      0.000 s
  Timing for VVOO strings   =      0.000 s
  Timing for VOVO strings   =      0.000 s
  Timing for 1-hole strings =      0.000 s
  Timing for 2-hole strings =      0.000 s
  Timing for 3-hole strings =      0.000 s
  Total timing              =      0.000 s

  ==> FCI Solver <==

    Number of determinants                           2
    Symmetry                                         0
    Multiplicity                                     1
    Number of roots                                  1
    Target root                                      0
    Trial vectors per root                          10

  Allocating memory for the Hamiltonian algorithm. Size: 2 x 1 x 1.   Memory: 0.000000 GB

  ==> FCI Initial Guess <==

  ---------------------------------------------
    Root            Energy     <S^2>   Spin
  ---------------------------------------------
      0      -15.569761360884  0.000  singlet
      1      -15.382213652426  0.000  singlet
  ---------------------------------------------
  Timing for initial guess  =      0.000 s


  ==> Diagonalizing Hamiltonian <==

  Energy   convergence: 1.00e-12
  Residual convergence: 1.00e-06
  -----------------------------------------------------
    Iter.      Avg. Energy       Delta_E     Res. Norm
  -----------------------------------------------------
      1      -15.569761360884  -1.557e+01  +1.557e+01
      2      -15.569761360884  +0.000e+00  +1.831e-15
  -----------------------------------------------------
  The Davidson-Liu algorithm converged in 3 iterations.

  ==> Root No. 0 <==

    0 2     -0.98110298
    2 0      0.19348627

    Total Energy:     -15.569761360884, <S^2>: 0.000000

  ==> Energy Summary <==

    Multi.(2ms)  Irrep.  No.               Energy      <S^2>
    --------------------------------------------------------
       1  (  0)    A1     0      -15.569761360884   0.000000
    --------------------------------------------------------

  ==> Computing RDMs for Root No. 0 <==

    Timing for 1-RDM: 0.000 s

  ==> NATURAL ORBITALS <==

        1B2     1.925126      1A1     0.074874  


  ==> Permanent Dipole Moments [e a0] for Singlet (Ms = 0) A1 <==

       State           DM_X           DM_Y           DM_Z           |DM|
    --------------------------------------------------------------------
         0A1    -0.00000000     0.00000000    -1.52219085     1.52219085
    --------------------------------------------------------------------

  ==> Computing RDMs for Root No. 0 <==

    Timing for 1-RDM: 0.000 s

  ==> NATURAL ORBITALS <==

        1B2     1.925126      1A1     0.074874  


  ==> Semicanonicalize Orbitals <==

    MIX INACTIVE ORBITALS   ...... FALSE
    MIX GAS ACTIVE ORBITALS ...... FALSE
    FROZEN_DOCC     ...  CANONICAL
    FROZEN_UOCC     ...  CANONICAL
    GAS1            ...  CANONICAL
    RESTRICTED_DOCC ...  CANONICAL
    RESTRICTED_UOCC ...  CANONICAL

    Off-Diag. Elements       Max           2-Norm
    ------------------------------------------------
    GAS1                 0.0000000000   0.0000000000
    RESTRICTED_DOCC      0.0000659915   0.0000933261
    RESTRICTED_UOCC      0.0514397888   0.0790721970
    ------------------------------------------------
  Timing for orbital canonicalization:                        0.000 s.

  Time to prepare integrals:        0.005 seconds
  Time to run job          :        0.024 seconds
  Total                    :        0.029 seconds
    MCSCF energy..........................................................................PASSED

Scratch directory: /tmp/

  Forte
  ----------------------------------------------------------------------------
  A suite of quantum chemistry methods for strongly correlated electrons

    git branch: master - git commit: 4225e1f0

  Developed by:
    Francesco A. Evangelista, Chenyang Li, Kevin P. Hannon,
    Jeffrey B. Schriber, Tianyuan Zhang, Chenxi Cai,
    Nan He, Nicholas Stair, Shuhe Wang, Renke Huang
  ----------------------------------------------------------------------------

  Size of Determinant class: 128 bits

  Preparing forte objects from a Psi4 Wavefunction object
  Read options for space RESTRICTED_DOCC
  Read options for space ACTIVE
  Read options for space RESTRICTED_DOCC

  ==> MO Space Information <==

  -------------------------------------------------
                       A1    A2    B1    B2   Sum
  -------------------------------------------------
    FROZEN_DOCC         0     0     0     0     0
    RESTRICTED_DOCC     2     0     0     0     2
    GAS1                1     0     0     1     2
    GAS2                0     0     0     0     0
    GAS3                0     0     0     0     0
    GAS4                0     0     0     0     0
    GAS5                0     0     0     0     0
    GAS6                0     0     0     0     0
    RESTRICTED_UOCC     4     0     2     3     9
    FROZEN_UOCC         0     0     0     0     0
    Total               7     0     2     4    13
  -------------------------------------------------   => Loading Basis Set <=

    Name: ANONYMOUS6D6137FB
    Role: ORBITAL
    Keyword: BASIS
    atoms 1   entry BE         line     5 inputblock anonymous6d6137fb 
    atoms 2-3 entry H          line    25 inputblock anonymous6d6137fb 


  Checking orbital orthonormality against current geometry ... Done (OK)

   => Loading Basis Set <=

    Name: STO-3G
    Role: ORBITAL
    Keyword: MINAO_BASIS
    atoms 1   entry BE         line    41 file /Users/fevange/Source/psi4/objdir-Release/stage/share/psi4/basis/sto-3g.gbs 
    atoms 2-3 entry H          line    19 file /Users/fevange/Source/psi4/objdir-Release/stage/share/psi4/basis/sto-3g.gbs 


  Forte will use psi4 integrals

  ==> Primary Basis Set Summary <==

  Basis Set: ANONYMOUS6D6137FB
    Blend: ANONYMOUS6D6137FB
    Number of shells: 9
    Number of basis functions: 13
    Number of Cartesian functions: 13
    Spherical Harmonics?: true
    Max angular momentum: 1


  JK created using Cholesky integrals
  ==> CDJK: Cholesky-decomposed J/K Matrices <==

    J tasked:                     Yes
    K tasked:                     Yes
    wK tasked:                     No
    OpenMP threads:                 1
    Integrals threads:              1
    Memory [MiB]:                 400
    Algorithm:                   Core
    Integral Cache:              NONE
    Schwarz Cutoff:             1E-12
    Cholesky tolerance:      1.00E-14
    No. Cholesky vectors:          88



  ==> Integral Transformation <==

  Number of molecular orbitals:                         13
  Number of correlated molecular orbitals:              13
  Number of frozen occupied orbitals:                    0
  Number of frozen unoccupied orbitals:                  0
  Two-electron integral type:              Cholesky decomposition


  Computing the Cholesky Vectors 

  Computing CD Integrals
  Timing for cholesky transformation:                         0.005 s.
  Need 118.98 KB to store CD integrals in core

  Number of Cholesky vectors required for 1.000e-14 tolerance: 88

  Timing for freezing core and virtual orbitals:              0.000 s.
  Timing for computing Cholesky integrals:                    0.006 s.

  ==> Summary of Active Space Solver Input <==

    Irrep.  Multi.(2ms)      N
    --------------------------
       A1      1  (  0)      1
    --------------------------
    N: number of roots
    ms: spin z component
    Total number of roots:   1
    --------------------------


  ==> String Lists <==

  Number of alpha electrons     = 1
  Number of beta electrons      = 1
  Number of alpha strings       = 2
  Number of beta strings        = 2
  Timing for strings        =      0.000 s
  Timing for NN strings     =      0.000 s
  Timing for VO strings     =      0.000 s
  Timing for OO strings     =      0.000 s
  Timing for VVOO strings   =      0.000 s
  Timing for VOVO strings   =      0.000 s
  Timing for 1-hole strings =      0.000 s
  Timing for 2-hole strings =      0.000 s
  Timing for 3-hole strings =      0.000 s
  Total timing              =      0.000 s

  ==> FCI Solver <==

    Number of determinants                           2
    Symmetry                                         0
    Multiplicity                                     1
    Number of roots                                  1
    Target root                                      0
    Trial vectors per root                          10

  Allocating memory for the Hamiltonian algorithm. Size: 2 x 1 x 1.   Memory: 0.000000 GB

  ==> FCI Initial Guess <==

  ---------------------------------------------
    Root            Energy     <S^2>   Spin
  ---------------------------------------------
      0      -15.569761360884  0.000  singlet
      1      -15.382213652426  0.000  singlet
  ---------------------------------------------
  Timing for initial guess  =      0.000 s


  ==> Diagonalizing Hamiltonian <==

  Energy   convergence: 1.00e-12
  Residual convergence: 1.00e-06
  -----------------------------------------------------
    Iter.      Avg. Energy       Delta_E     Res. Norm
  -----------------------------------------------------
      1      -15.569761360884  -1.557e+01  +1.557e+01
      2      -15.569761360884  +0.000e+00  +4.441e-16
  -----------------------------------------------------
  The Davidson-Liu algorithm converged in 3 iterations.

  ==> Root No. 0 <==

    0 2     -0.98110298
    2 0      0.19348627

    Total Energy:     -15.569761360884, <S^2>: 0.000000

  ==> Energy Summary <==

    Multi.(2ms)  Irrep.  No.               Energy      <S^2>
    --------------------------------------------------------
       1  (  0)    A1     0      -15.569761360884   0.000000
    --------------------------------------------------------

  ==> Computing RDMs for Root No. 0 <==

    Timing for 1-RDM: 0.000 s

  ==> NATURAL ORBITALS <==

        1B2     1.925126      1A1     0.074874  


  ==> Permanent Dipole Moments [e a0] for Singlet (Ms = 0) A1 <==

       State           DM_X           DM_Y           DM_Z           |DM|
    --------------------------------------------------------------------
         0A1     0.00000000     0.00000000    -1.55403750     1.55403750
    --------------------------------------------------------------------

  ==> Computing RDMs for Root No. 0 <==

    Timing for 1-RDM: 0.000 s
    Timing for 2-RDM: 0.000 s
    Timing for 3-RDM: 0.000 s

  ==> NATURAL ORBITALS <==

        1B2     1.925126      1A1     0.074874  


  ==> Semicanonicalize Orbitals <==

    MIX INACTIVE ORBITALS   ...... FALSE
    MIX GAS ACTIVE ORBITALS ...... FALSE
    FROZEN_DOCC     ...  CANONICAL
    FROZEN_UOCC     ...  CANONICAL
    GAS1            ...  CANONICAL
    RESTRICTED_DOCC ...  CANONICAL
    RESTRICTED_UOCC ...  CANONICAL

    Off-Diag. Elements       Max           2-Norm
    ------------------------------------------------
    GAS1                 0.0000000000   0.0000000000
    RESTRICTED_DOCC      0.0000000000   0.0000000000
    RESTRICTED_UOCC      0.0000000000   0.0000000000
    ------------------------------------------------
  Orbitals are already semicanonicalized.
  Timing for orbital canonicalization:                        0.000 s.

  ==> Multireference Driven Similarity Renormalization Group <==

    Computing Fock matrix and cleaning JK ........... Done
    Reading DSRG options ............................ Done
    Setting ambit MO space .......................... Done
    Preparing tensors for density cumulants ......... Done
    Filling Fock matrix from ForteIntegrals ......... Done

                  --------------------------------------------
                      Density Fitted / Cholesky Decomposed
                    MR-DSRG Second-Order Perturbation Theory
                      Kevin Hannon and Chenyang (York) Li
                                 1 thread (OMP)
                  --------------------------------------------

    References:
      u-DSRG-MRPT2:      J. Chem. Theory Comput. 2015, 11, 2097.
      DF/CD-DSRG-MRPT2:  J. Chem. Phys. 2016, 144, 204111.
      (pr-)DSRG-MRPT2:   J. Chem. Phys. 2017, 146, 124132.


  ==> Calculation Information <==

    Psi4 ref_type                                           
    Integral type                                   CHOLESKY
    Source operator                                 STANDARD
    CCVV algorithm                                 FLY_AMBIT
    CCVV source                                       NORMAL
    Reference relaxation                                NONE
    State type                                STATE-SPECIFIC
    form Hbar3                                         FALSE
    Flow parameter                                 1.000e+10
    Taylor expansion threshold                     1.000e-03
    Cholesky tolerance                             1.000e-14


  ==> Checking Semicanonical Orbitals <==

    Block             Fa Max         Fa Mean           Fb Max         Fb Mean
    -------------------------------------------------------------------------
    CORE        0.0000000000    0.0000000000     0.0000000000    0.0000000000
    VIRTUAL     0.0000000000    0.0000000000     0.0000000000    0.0000000000
    GAS1        0.0000000000    0.0000000000     0.0000000000    0.0000000000
    -------------------------------------------------------------------------
    Orbitals are semi-canonicalized.

  ==> Computing DSRG-MRPT2 Energy <==

  Reference Energy = -15.569761360883563
    Computing T2                             ...... Done. Timing        0.000250 s
    Renormalizing V                          ...... Done. Timing        0.000090 s
    Computing T1                             ...... Done. Timing        0.000380 s
    Renormalizing F                          ...... Done. Timing        0.000472 s
    Computing <[F, T1]>                      ...... Done. Timing        0.000139 s
    Computing <[F, T2]>                      ...... Done. Timing        0.000372 s
    Computing <[V, T1]>                      ...... Done. Timing        0.000397 s
    Computing <[V, T2]> 4HH                  ...... Done. Timing        0.000657 s
    Computing <V, T2]> 4PP                   ...... Done. Timing        0.000632 s
    Computing [V, T2] 4PH                    ...... Done. Timing        0.002704 s
    Computing [V, T2] 3                     ...... Done. Timing        0.001413 s
    Computing <[V, T2]> (C_2)^4 (no ccvv)    ...... Done. Timing        0.002169 s
    Computing <[V, T2]> (C_2)^4 ccvv         ...... Done. Timing        0.000173 s
  Eccvv: -0.0234416979

  ==> DSRG-MRPT2 (DF/CD) Energy Summary <==

    E0 (reference)                 =    -15.569761360883563
    <[F, T1]>                      =     -0.006866421299813
    <[F, T2]>                      =      0.003999663870736
    <[V, T1]>                      =      0.006866415135161
    <[V, T2]> C_4 (C_2)^2 HH       =      0.002566546505049
    <[V, T2]> C_4 (C_2)^2 PP       =      0.003883719665154
    <[V, T2]> C_4 (C_2)^2 PH       =     -0.012940869512802
    <[V, T2]> C_6 C_2              =      0.001856674990695
    <[V, T2]> (C_2)^4              =     -0.056789256741541
    <[V, T2]>                      =     -0.061423185093446
    DSRG-MRPT2 correlation energy  =     -0.057423527387362
    DSRG-MRPT2 total energy        =    -15.627184888270925
    max(T1)                        =      0.419524557298439
    ||T1||                         =      0.715771747086922

  ==> Total Timings (s) for Computing Commutators <==

             [H1, T1]    [H1, T2]    [H2, T1]    [H2, T2]
    -----------------------------------------------------
    -> C0       0.000       0.000       0.000       0.006
    -> C1       0.000       0.000       0.000       0.000
    -> C2                   0.000       0.000       0.000
    -----------------------------------------------------


  Time to prepare integrals:        0.014 seconds
  Time to run job          :        0.015 seconds
  Total                    :        0.029 seconds
    DSRG-MRPT2 energy.....................................................................PASSED

    Psi4 stopped on: Sunday, 15 January 2023 11:29PM
    Psi4 wall time for execution: 0:00:00.30

*** Psi4 exiting successfully. Buy a developer a beer!
