
    -----------------------------------------------------------------------
          Psi4: An Open-Source Ab Initio Electronic Structure Package
                               Psi4 1.2a1.dev704 

                         Git: Rev {master} a7fc050 


    R. M. Parrish, L. A. Burns, D. G. A. Smith, A. C. Simmonett,
    A. E. DePrince III, E. G. Hohenstein, U. Bozkaya, A. Yu. Sokolov,
    R. Di Remigio, R. M. Richard, J. F. Gonthier, A. M. James,
    H. R. McAlexander, A. Kumar, M. Saitow, X. Wang, B. P. Pritchard,
    P. Verma, H. F. Schaefer III, K. Patkowski, R. A. King, E. F. Valeev,
    F. A. Evangelista, J. M. Turney, T. D. Crawford, and C. D. Sherrill,
    J. Chem. Theory Comput. 13(7) pp 3185--3197 (2017).
    (doi: 10.1021/acs.jctc.7b00174)

    -----------------------------------------------------------------------


    Psi4 started on: Monday, 04 December 2017 12:19PM

    Process ID:  33720
    PSIDATADIR: /Users/york/src/psi4new/psi4/share/psi4
    Memory:     500.0 MiB
    Threads:    1
    
  ==> Input File <==

--------------------------------------------------------------------------
#! Generated using commit GITCOMMIT

import forte

refmcscf     = -15.569761360883527 #TEST
refdsrgpt2   = -15.627184888920119 #TEST

molecule {
  0 1
  BE        0.000000000000     0.000000000000     0.000000000000
  H         0.000000000000     1.390000000000     2.500000000000
  H         0.000000000000    -1.390000000000     2.500000000000
  units bohr
  no_reorient
}

set globals{
   reference            twocon
   scf_type             pk
   d_convergence        12
   e_convergence        15
}

set mcscf{
   docc                 [2,0,0,0]
   socc                 [1,0,0,1]
   maxiter              1000
}

set forte{
   job_type             three-dsrg-mrpt2
   restricted_docc      [2,0,0,0]
   active               [1,0,0,1]
   root_sym             0
   nroot                1
   dsrg_s               1.0e10
   dsrgpt               true
   int_type             cholesky
   cholesky_tolerance   1e-14
   PRINT_DENOM2          true
   cas_type fci
}

basis {
spherical
****
Be     0
S   6   1.00
   1267.070000     0.001940
    190.356000     0.014786
     43.295900     0.071795
     12.144200     0.236348
      3.809230     0.471763
      1.268470     0.355183
S   3   1.00
      5.693880    -0.028876
      1.555630    -0.177565
      0.171855     1.071630
S   1   1.00
      0.057181     1.000000
P   2   1.00
      1.555630     0.144045
      0.171855     0.949692
P   1   1.00
      5.693880     1.000000
****
H      0
S   3   1.00
     19.240600     0.032828
      2.899200     0.231208
      0.653400     0.817238
S   1   1.00
      0.177600     1.000000
****
}

scf_energy,scf_wfn = energy('mcscf', return_wfn = True)
compare_values(refmcscf,get_variable("CURRENT ENERGY"),10,"MCSCF energy") #TEST

energy('forte', ref_wfn = scf_wfn)
compare_values(refdsrgpt2,get_variable("CURRENT ENERGY"),10,"DSRG-MRPT2 energy") #TEST
--------------------------------------------------------------------------
   => Loading Basis Set <=

    Name: ANONYMOUSBBEFB69F
    Role: ORBITAL
    Keyword: BASIS
    atoms 1   entry BE         line     5 inputblock anonymousbbefb69f 
    atoms 2-3 entry H          line    25 inputblock anonymousbbefb69f 


*** tstart() called on yorks-mac.wireless.emory.edu
*** at Mon Dec  4 12:19:09 2017


         ------------------------------------------
           MCSCF: a self-consistent field program
            written by Francesco A. Evangelista
         ------------------------------------------

  MOs per irrep:                                      A1  A2  B1  B2 Total
  ----------------------------------------------------------------------------
  Total                                                7    0    2    4    13
  Doubly Occupied                                      2    0    0    0     2
  Active/Singly Occupied                               1    0    0    1     2
  ----------------------------------------------------------------------------

  Running an SCF calculation
  TWOCON MOs = [2 (A1),9 (B2)]

  Generated 91 pairs
  Distributed as [41 A1][8 A2][14 B1][28 B2]
  batch   0 pq = [       0,      41] index = [               0,             861]

  Allocated the PK matrix (861 elements) 
  Allocated the  K matrix (861 elements) 
  Reading the two-electron integrals to form PK and K ... 
  batch   0 ... done.


  =========================================================================================
         Cycle          Energy               D(Energy)            D(Density)            DIIS
  ===========================================================================================
  Setting level shift to 0.000 S
  @SCF    0      -15.095964782460     -15.095964782460       0.124371451250
    ci      = [ 0.00000000, 0.00000000]
    ci_grad = [ 0.00000000, 0.00000000]
  Setting level shift to 0.000 S
  @SCF    1      -15.480358046822      -0.384393264362       0.111190852968
    ci      = [ 0.00000000, 0.00000000]
    ci_grad = [ 0.00000000, 0.00000000]
  Setting level shift to 0.000 S
  @SCF    2      -15.477580816090       0.002777230732       0.009809199882
    ci      = [ 0.00000000, 0.00000000]
    ci_grad = [ 0.00000000, 0.00000000]
  Setting level shift to 0.000 S
  @SCF    3      -15.486632816077      -0.009051999987       0.002695266879
    ci      = [ 0.00000000, 0.00000000]
    ci_grad = [ 0.00000000, 0.00000000]
  Setting level shift to 0.000 S
  @SCF    4      -15.484559645649       0.002073170428       0.001179184163
    ci      = [ 0.00000000, 0.00000000]
    ci_grad = [ 0.00000000, 0.00000000]
  Setting level shift to 0.000 S
  @SCF    5      -15.485650291580      -0.001090645932       0.000460182618
    ci      = [ 0.00000000, 0.00000000]
    ci_grad = [ 0.00000000, 0.00000000]
  Setting level shift to 0.000 S
  @SCF    6      -15.485321117370       0.000329174210       0.000242730310
    ci      = [ 0.00000000, 0.00000000]
    ci_grad = [ 0.00000000, 0.00000000]
  Setting level shift to 0.000 S/E
  @SCF    7      -15.485449121809      -0.000128004439       0.000152659311
    ci      = [ 0.00000000, 0.00000000]
    ci_grad = [ 0.00000000, 0.00000000]
  Setting level shift to 0.000 S/E
  @SCF    8      -15.485425950509       0.000023171300       0.000064713898
    ci      = [ 0.00000000, 0.00000000]
    ci_grad = [ 0.00000000, 0.00000000]
  Setting level shift to 0.000 S/E
  @SCF    9      -15.485425888149       0.000000062360       0.000000035875
    ci      = [-0.23788765, 0.97129268]
    ci_grad = [ 0.00000000, 0.00000000]
  Setting level shift to 0.000 S/E
  @SCF   10      -15.485425886222       0.000000001927       0.000000001209
    ci      = [-0.23788765, 0.97129268]
    ci_grad = [ 0.00000000, 0.00000000]
  Setting level shift to 0.000 S/E
  @SCF   11      -15.485425888496      -0.000000002274       0.000000000376
    ci      = [-0.23788765, 0.97129268]
    ci_grad = [ 0.00000000,-0.00000000]
  Setting level shift to 0.000 S/E
  @SCF   12      -15.485425888640      -0.000000000144       0.000000000121
    ci      = [-0.23788765, 0.97129268]
    ci_grad = [ 0.00000000,-0.00000000]
  Setting level shift to 0.000 S/E
  @SCF   13      -15.485425888137       0.000000000503       0.000000000122
    ci      = [-0.23788765, 0.97129268]
    ci_grad = [-0.00000000, 0.00000000]
  Setting level shift to 0.000 S/E
  @SCF   14      -15.485425887105       0.000000001032       0.000000000495
    ci      = [-0.23788765, 0.97129268]
    ci_grad = [-0.00000000, 0.00000000]
  Setting level shift to 0.000 S/E
  @SCF   15      -15.485425889042      -0.000000001937       0.000000000674
    ci      = [-0.23788765, 0.97129268]
    ci_grad = [ 0.00000000,-0.00000000]
  Setting level shift to 0.000 S/E
  @SCF   16      -15.485425889587      -0.000000000545       0.000000000301
    ci      = [-0.23788765, 0.97129268]
    ci_grad = [-0.00000000,-0.00000000]
  Setting level shift to 0.000 S/E
  @SCF   17      -15.546849544721      -0.061423655134       0.029298362933
    ci      = [-0.23788765, 0.97129268]
    ci_grad = [ 0.01303300,-0.06002859]
  Setting level shift to 0.000 S/E
  @SCF   18      -15.567069779001      -0.020220234280       0.012812667189
    ci      = [-0.23788765, 0.97129268]
    ci_grad = [-0.00320712,-0.02116617]
  Setting level shift to 0.000 S/E
  @SCF   19      -15.568864824354      -0.001795045353       0.005347695485
    ci      = [-0.23788765, 0.97129268]
    ci_grad = [-0.00573388,-0.00299458]
  Setting level shift to 0.000 S/E
  @SCF   20      -15.569131572836      -0.000266748483       0.002524043786
    ci      = [-0.23788765, 0.97129268]
    ci_grad = [-0.00585200,-0.00146920]
  Setting level shift to 0.000 S/E
  @SCF   21      -15.569266775665      -0.000135202829       0.002537370721
    ci      = [-0.23788765, 0.97129268]
    ci_grad = [-0.00541628,-0.00126343]
  Setting level shift to 0.000 S/E
  @SCF   22      -15.569415386160      -0.000148610495       0.003365229651
    ci      = [-0.23788765, 0.97129268]
    ci_grad = [-0.00516697,-0.00123576]
  Setting level shift to 0.000 S/E
  @SCF   23      -15.569558018074      -0.000142631913       0.003996775119
    ci      = [-0.23788765, 0.97129268]
    ci_grad = [-0.00529839,-0.00125696]
  Setting level shift to 0.000 S/E
  @SCF   24      -15.569662712237      -0.000104694163       0.004506757304
    ci      = [-0.23788765, 0.97129268]
    ci_grad = [-0.00604480,-0.00135627]
  Setting level shift to 0.000 S/E
  @SCF   25      -15.569684079889      -0.000021367652       0.001710714232
    ci      = [-0.23788765, 0.97129268]
    ci_grad = [-0.00614310,-0.00128964]
  Setting level shift to 0.000 S/E
  @SCF   26      -15.569687081888      -0.000003001999       0.000151574755
    ci      = [-0.20202699, 0.97937995]
    ci_grad = [-0.00617466,-0.00127678]
  Setting level shift to 0.000 S/E
  @SCF   27      -15.569702489853      -0.000015407965       0.002022131811
    ci      = [-0.20202699, 0.97937995]
    ci_grad = [-0.00004016,-0.00002400]
  Setting level shift to 0.000 S/E
  @SCF   28      -15.569706719964      -0.000004230111       0.000141160298
    ci      = [-0.20152089, 0.97948422]
    ci_grad = [-0.00008666,-0.00002215]
  Setting level shift to 0.000 S/E
  @SCF   29      -15.569712512369      -0.000005792405       0.000238685403
    ci      = [-0.20114213, 0.97956207]
    ci_grad = [-0.00006461,-0.00001918]
  Setting level shift to 0.000 S/E
  @SCF   30      -15.569742352333      -0.000029839964       0.002079489227
    ci      = [-0.20114213, 0.97956207]
    ci_grad = [-0.00045761,-0.00012315]
  Setting level shift to 0.000 S/E
  @SCF   31      -15.569746575871      -0.000004223538       0.000334670711
    ci      = [-0.19789647, 0.98022293]
    ci_grad = [-0.00058221,-0.00012185]
  Setting level shift to 0.000 S/E
  @SCF   32      -15.569750888559      -0.000004312688       0.000437334392
    ci      = [-0.19713601, 0.98037615]
    ci_grad = [-0.00013678,-0.00003190]
  Setting level shift to 0.000 S/E
  @SCF   33      -15.569757092271      -0.000006203712       0.000961956859
    ci      = [-0.19549678, 0.98070434]
    ci_grad = [-0.00030026,-0.00006618]
  Setting level shift to 0.000 S/E
  @SCF   34      -15.569758736587      -0.000001644316       0.002532319531
    ci      = [-0.19165921, 0.98146154]
    ci_grad = [-0.00073202,-0.00014462]
  Setting level shift to 0.000 S/E
  @SCF   35      -15.569759478563      -0.000000741976       0.000163500985
    ci      = [-0.19195103, 0.98140450]
    ci_grad = [ 0.00005566, 0.00001013]
  Setting level shift to 0.000 S/E
  @SCF   36      -15.569758223962       0.000001254600       0.000733356183
    ci      = [-0.19119705, 0.98155167]
    ci_grad = [-0.00014473,-0.00002691]
  Setting level shift to 0.000 S/E
  @SCF   37      -15.569760454617      -0.000002230654       0.000601569043
    ci      = [-0.19232001, 0.98133227]
    ci_grad = [ 0.00021336, 0.00003954]
  Setting level shift to 0.000 S/E
  @SCF   38      -15.569760726050      -0.000000271433       0.000139369227
    ci      = [-0.19253939, 0.98128924]
    ci_grad = [ 0.00004157, 0.00000788]
  Setting level shift to 0.000 S/E
  @SCF   39      -15.569761046057      -0.000000320007       0.000177854681
    ci      = [-0.19286880, 0.98122456]
    ci_grad = [ 0.00006220, 0.00001190]
  Setting level shift to 0.000 S/E
  @SCF   40      -15.569761341354      -0.000000295296       0.000383352197
    ci      = [-0.19363982, 0.98107269]
    ci_grad = [ 0.00014442, 0.00002820]
  Setting level shift to 0.000 S/E
  @SCF   41      -15.569761299646       0.000000041708       0.000069811346
    ci      = [-0.19379787, 0.98104148]
    ci_grad = [ 0.00002954, 0.00000588]
  Setting level shift to 0.000 S/E
  @SCF   42      -15.569761285643       0.000000014003       0.000021247947
    ci      = [-0.19383020, 0.98103509]
    ci_grad = [ 0.00000604, 0.00000121]
  Setting level shift to 0.000 S/E
  @SCF   43      -15.569761344873      -0.000000059230       0.000119177754
    ci      = [-0.19363235, 0.98107416]
    ci_grad = [-0.00003704,-0.00000737]
  Setting level shift to 0.000 S/E
  @SCF   44      -15.569761335946       0.000000008927       0.000023708007
    ci      = [-0.19367386, 0.98106597]
    ci_grad = [ 0.00000777, 0.00000154]
  Setting level shift to 0.000 S/E
  @SCF   45      -15.569761337618      -0.000000001671       0.000204358276
    ci      = [-0.19329273, 0.98114113]
    ci_grad = [-0.00007161,-0.00001411]
  Setting level shift to 0.000 S/E
  @SCF   46      -15.569761354343      -0.000000016725       0.000055150249
    ci      = [-0.19338704, 0.98112255]
    ci_grad = [ 0.00001771, 0.00000347]
  Setting level shift to 0.000 S/E
  @SCF   47      -15.569761348285       0.000000006059       0.000025376469
    ci      = [-0.19334343, 0.98113114]
    ci_grad = [-0.00000819,-0.00000161]
  Setting level shift to 0.000 S/E
  @SCF   48      -15.569761360649      -0.000000012365       0.000084774524
    ci      = [-0.19347634, 0.98110494]
    ci_grad = [ 0.00002493, 0.00000490]
  Setting level shift to 0.000 S/E
  @SCF   49      -15.569761360666      -0.000000000017       0.000004461203
    ci      = [-0.19347641, 0.98110493]
    ci_grad = [ 0.00000001, 0.00000000]
  Setting level shift to 0.000 S/E
  @SCF   50      -15.569761360367       0.000000000299       0.000021998294
    ci      = [-0.19351202, 0.98109790]
    ci_grad = [ 0.00000668, 0.00000132]
  Setting level shift to 0.000 S/E
  @SCF   51      -15.569761360740      -0.000000000373       0.000010990016
    ci      = [-0.19350060, 0.98110016]
    ci_grad = [-0.00000214,-0.00000042]
  Setting level shift to 0.000 S/E
  @SCF   52      -15.569761360818      -0.000000000078       0.000003462811
    ci      = [-0.19349606, 0.98110105]
    ci_grad = [-0.00000085,-0.00000017]
  Setting level shift to 0.000 S/E
  @SCF   53      -15.569761360882      -0.000000000064       0.000006032392
    ci      = [-0.19348647, 0.98110294]
    ci_grad = [-0.00000180,-0.00000035]
  Setting level shift to 0.000 S/E
  @SCF   54      -15.569761360882      -0.000000000000       0.000000796692
    ci      = [-0.19348542, 0.98110315]
    ci_grad = [-0.00000020,-0.00000004]
  Setting level shift to 0.000 S/E
  @SCF   55      -15.569761360874       0.000000000008       0.000002352345
    ci      = [-0.19348244, 0.98110374]
    ci_grad = [-0.00000056,-0.00000011]
  Setting level shift to 0.000 S/E
  @SCF   56      -15.569761360883      -0.000000000009       0.000002001402
    ci      = [-0.19348580, 0.98110308]
    ci_grad = [ 0.00000063, 0.00000012]
  Setting level shift to 0.000 S/E
  @SCF   57      -15.569761360883       0.000000000000       0.000000244324
    ci      = [-0.19348546, 0.98110314]
    ci_grad = [-0.00000006,-0.00000001]
  Setting level shift to 0.000 S/E
  @SCF   58      -15.569761360883      -0.000000000000       0.000000296396
    ci      = [-0.19348597, 0.98110304]
    ci_grad = [ 0.00000010, 0.00000002]
  Setting level shift to 0.000 S/E
  @SCF   59      -15.569761360883      -0.000000000000       0.000000015621
    ci      = [-0.19348600, 0.98110304]
    ci_grad = [ 0.00000001, 0.00000000]
  Setting level shift to 0.000 S/E
  @SCF   60      -15.569761360883      -0.000000000000       0.000000079958
    ci      = [-0.19348614, 0.98110301]
    ci_grad = [ 0.00000003, 0.00000001]
  Setting level shift to 0.000 S/E
  @SCF   61      -15.569761360884      -0.000000000000       0.000000058537
    ci      = [-0.19348624, 0.98110299]
    ci_grad = [ 0.00000002, 0.00000000]
  Setting level shift to 0.000 S/E
  @SCF   62      -15.569761360884      -0.000000000000       0.000000019584
    ci      = [-0.19348627, 0.98110298]
    ci_grad = [ 0.00000001, 0.00000000]
  Setting level shift to 0.000 S/E
  @SCF   63      -15.569761360884       0.000000000000       0.000000031637
    ci      = [-0.19348633, 0.98110297]
    ci_grad = [ 0.00000001, 0.00000000]
  Setting level shift to 0.000 S/E
  @SCF   64      -15.569761360884      -0.000000000000       0.000000022020
    ci      = [-0.19348636, 0.98110296]
    ci_grad = [ 0.00000001, 0.00000000]
  Setting level shift to 0.000 S/E
  @SCF   65      -15.569761360884       0.000000000000       0.000000010502
    ci      = [-0.19348638, 0.98110296]
    ci_grad = [ 0.00000000, 0.00000000]
  Setting level shift to 0.000 S/E
  @SCF   66      -15.569761360884      -0.000000000000       0.000000004516
    ci      = [-0.19348638, 0.98110296]
    ci_grad = [-0.00000000,-0.00000000]
  Setting level shift to 0.000 S/E
  @SCF   67      -15.569761360884       0.000000000000       0.000000001279
    ci      = [-0.19348638, 0.98110296]
    ci_grad = [ 0.00000000, 0.00000000]
  Setting level shift to 0.000 S/E
  @SCF   68      -15.569761360884      -0.000000000000       0.000000002135
    ci      = [-0.19348637, 0.98110296]
    ci_grad = [-0.00000000,-0.00000000]
  Setting level shift to 0.000 S/E
  @SCF   69      -15.569761360883       0.000000000000       0.000000000813
    ci      = [-0.19348638, 0.98110296]
    ci_grad = [ 0.00000000, 0.00000000]
  Setting level shift to 0.000 S/E
  @SCF   70      -15.569761360884      -0.000000000000       0.000000000516
    ci      = [-0.19348637, 0.98110296]
    ci_grad = [-0.00000000,-0.00000000]
  Setting level shift to 0.000 S/E
  @SCF   71      -15.569761360884       0.000000000000       0.000000000059
    ci      = [-0.19348637, 0.98110296]
    ci_grad = [-0.00000000,-0.00000000]
  Setting level shift to 0.000 S/E
  @SCF   72      -15.569761360884      -0.000000000000       0.000000000107
    ci      = [-0.19348637, 0.98110296]
    ci_grad = [-0.00000000,-0.00000000]
  Setting level shift to 0.000 S/E
  @SCF   73      -15.569761360884       0.000000000000       0.000000000045
    ci      = [-0.19348637, 0.98110296]
    ci_grad = [-0.00000000,-0.00000000]
  Setting level shift to 0.000 S/E
  @SCF   74      -15.569761360884       0.000000000000       0.000000000113
    ci      = [-0.19348637, 0.98110296]
    ci_grad = [-0.00000000,-0.00000000]
  Setting level shift to 0.000 S/E
  @SCF   75      -15.569761360884      -0.000000000000       0.000000000031
    ci      = [-0.19348637, 0.98110296]
    ci_grad = [-0.00000000,-0.00000000]
  Setting level shift to 0.000 S/E
  @SCF   76      -15.569761360884       0.000000000000       0.000000000036
    ci      = [-0.19348637, 0.98110296]
    ci_grad = [ 0.00000000, 0.00000000]
  Setting level shift to 0.000 S/E
  @SCF   77      -15.569761360884       0.000000000000       0.000000000008
    ci      = [-0.19348637, 0.98110296]
    ci_grad = [-0.00000000,-0.00000000]
  Setting level shift to 0.000 S/E
  @SCF   78      -15.569761360884       0.000000000000       0.000000000034
    ci      = [-0.19348637, 0.98110296]
    ci_grad = [ 0.00000000, 0.00000000]
  Setting level shift to 0.000 S/E
  @SCF   79      -15.569761360884      -0.000000000000       0.000000000015
    ci      = [-0.19348637, 0.98110296]
    ci_grad = [-0.00000000,-0.00000000]
  Setting level shift to 0.000 S/E
  @SCF   80      -15.569761360884       0.000000000000       0.000000000009
    ci      = [-0.19348637, 0.98110296]
    ci_grad = [ 0.00000000, 0.00000000]
  Setting level shift to 0.000 S/E
  @SCF   81      -15.569761360884      -0.000000000000       0.000000000008
    ci      = [-0.19348637, 0.98110296]
    ci_grad = [-0.00000000,-0.00000000]
  Setting level shift to 0.000 S/E
  @SCF   82      -15.569761360884       0.000000000000       0.000000000000
    ci      = [-0.19348637, 0.98110296]
    ci_grad = [ 0.00000000, 0.00000000]
  Setting level shift to 0.000 S/E
  @SCF   83      -15.569761360884      -0.000000000000       0.000000000001
    ci      = [-0.19348637, 0.98110296]
    ci_grad = [-0.00000000,-0.00000000]
  Setting level shift to 0.000 S/E
  @SCF   84      -15.569761360884       0.000000000000       0.000000000000
    ci      = [-0.19348637, 0.98110296]
    ci_grad = [-0.00000000,-0.00000000]
  Setting level shift to 0.000 S/E
  @SCF   85      -15.569761360884       0.000000000000       0.000000000000
    ci      = [-0.19348637, 0.98110296]
    ci_grad = [-0.00000000,-0.00000000]
  Setting level shift to 0.000 S/E
  @SCF   86      -15.569761360884      -0.000000000000       0.000000000000
    ci      = [-0.19348637, 0.98110296]
    ci_grad = [ 0.00000000, 0.00000000]
  Setting level shift to 0.000 S/E
  @SCF   87      -15.569761360884      -0.000000000000       0.000000000000
    ci      = [-0.19348637, 0.98110296]
    ci_grad = [-0.00000000,-0.00000000]
  Setting level shift to 0.000 S/E
  @SCF   88      -15.569761360884       0.000000000000       0.000000000000
    ci      = [-0.19348637, 0.98110296]
    ci_grad = [ 0.00000000, 0.00000000]
  Setting level shift to 0.000 S/E
  @SCF   89      -15.569761360884       0.000000000000       0.000000000000
    ci      = [-0.19348637, 0.98110296]
    ci_grad = [-0.00000000, 0.00000000]
  Setting level shift to 0.000 S/E
  @SCF   90      -15.569761360884      -0.000000000000       0.000000000000
    ci      = [-0.19348637, 0.98110296]
    ci_grad = [-0.00000000,-0.00000000]
  Setting level shift to 0.000 S/E
  @SCF   91      -15.569761360884       0.000000000000       0.000000000000
    ci      = [-0.19348637, 0.98110296]
    ci_grad = [ 0.00000000, 0.00000000]
  Setting level shift to 0.000 S/E
  @SCF   92      -15.569761360884       0.000000000000       0.000000000000
    ci      = [-0.19348637, 0.98110296]
    ci_grad = [ 0.00000000, 0.00000000]
  Setting level shift to 0.000 S/E
  @SCF   93      -15.569761360884      -0.000000000000       0.000000000000
    ci      = [-0.19348637, 0.98110296]
    ci_grad = [ 0.00000000,-0.00000000]
  Setting level shift to 0.000 S/E
  @SCF   94      -15.569761360884       0.000000000000       0.000000000000
    ci      = [-0.19348637, 0.98110296]
    ci_grad = [-0.00000000, 0.00000000]
  Setting level shift to 0.000 S/E
  @SCF   95      -15.569761360884      -0.000000000000       0.000000000000
    ci      = [-0.19348637, 0.98110296]
    ci_grad = [ 0.00000000,-0.00000000]
  Setting level shift to 0.000 S/E
  @SCF   96      -15.569761360884      -0.000000000000       0.000000000000
    ci      = [-0.19348637, 0.98110296]
    ci_grad = [-0.00000000,-0.00000000]
  Setting level shift to 0.000 S/E
  @SCF   97      -15.569761360884       0.000000000000       0.000000000000
    ci      = [-0.19348637, 0.98110296]
    ci_grad = [-0.00000000, 0.00000000]
  Setting level shift to 0.000 S/E
  @SCF   98      -15.569761360884       0.000000000000       0.000000000000
    ci      = [-0.19348637, 0.98110296]
    ci_grad = [ 0.00000000, 0.00000000]
  =========================================================================================

      * SCF total energy   =     -15.569761360884


      CI coefficients  = [-0.193486374, 0.981102963]

  End of SCF
  MOs orthonormality check passed.

  Orbitals are canonicalized as:
  inactive (docc + uocc) : Fock(core)
  active   (actv)        : Fock(core)

  =========================================================================
  Eigenvalues (Eh)
  -------------------------------------------------------------------------
  Doubly occupied orbitals
      1     -4.739924  A1      2     -0.500747  A1
  Active orbitals
      3     -0.244890  B2      4      0.064261  A1
  Unoccupied orbitals
      5      0.148361  B1      6      0.264471  A1      7      0.280038  B2
      8      0.353880  A1      9      1.182543  B2     10      1.266276  A1
     11      8.962250  B1     12      9.012677  B2     13      9.103846  A1
  =========================================================================


  MCSCF Execution Completed.


*** tstop() called on yorks-mac.wireless.emory.edu at Mon Dec  4 12:19:09 2017
Module time:
	user time   =       0.07 seconds =       0.00 minutes
	system time =       0.03 seconds =       0.00 minutes
	total time  =          0 seconds =       0.00 minutes
Total time:
	user time   =       0.07 seconds =       0.00 minutes
	system time =       0.03 seconds =       0.00 minutes
	total time  =          0 seconds =       0.00 minutes
	MCSCF energy......................................................PASSED
   => Loading Basis Set <=

    Name: STO-3G
    Role: ORBITAL
    Keyword: MINAO_BASIS
    atoms 1   entry BE         line    41 file /Users/york/src/psi4new/psi4/share/psi4/basis/sto-3g.gbs 
    atoms 2-3 entry H          line    19 file /Users/york/src/psi4new/psi4/share/psi4/basis/sto-3g.gbs 


Reading options from the FORTE block
Calling plugin forte.so.



  Forte
  ----------------------------------------------------------------------------
  A suite of quantum chemistry methods for strongly correlated electrons

    git branch: master - git commit: 1c92254a

  Developed by:
    Francesco A. Evangelista, Chenyang Li, Kevin P. Hannon,
    Jeffrey B. Schriber, Tianyuan Zhang, Chenxi Cai
  ----------------------------------------------------------------------------

  Size of Determinant class: 32

  ==> MO Space Information <==

  Read options for space RESTRICTED_DOCC
  Read options for space ACTIVE
  -------------------------------------------------
                       A1    A2    B1    B2   Sum
  -------------------------------------------------
    FROZEN_DOCC         0     0     0     0     0
    RESTRICTED_DOCC     2     0     0     0     2
    ACTIVE              1     0     0     1     2
    RESTRICTED_UOCC     4     0     2     3     9
    FROZEN_UOCC         0     0     0     0     0
    Total               7     0     2     4    13
  -------------------------------------------------

  ==> Integral Transformation <==

  Number of molecular orbitals:               13
  Number of correlated molecular orbitals:    13
  Number of frozen occupied orbitals:          0
  Number of frozen unoccupied orbitals:        0

    Molecular point group: c2v
    Full point group: C2v

    Geometry (in Bohr), charge = 0, multiplicity = 1:

       Center              X                  Y                   Z               Mass       
    ------------   -----------------  -----------------  -----------------  -----------------
          BE          0.000000000000     0.000000000000    -0.456946119527     9.012182201000
           H         -0.000000000000     1.390000000000     2.043053880473     1.007825032070
           H          0.000000000000    -1.390000000000     2.043053880473     1.007825032070

  -AO BASIS SET INFORMATION:
    Name                   = ANONYMOUSBBEFB69F
    Blend                  = ANONYMOUSBBEFB69F
    Total number of shells = 9
    Number of primitives   = 21
    Number of AO           = 13
    Number of SO           = 13
    Maximum AM             = 1
    Spherical Harmonics    = TRUE

  -Contraction Scheme:
    Atom   Type   All Primitives // Shells:
   ------ ------ --------------------------
       1    BE     10s 3p // 3s 2p 
       2     H     4s // 2s 
       3     H     4s // 2s 

  ==> AO Basis Functions <==

    [ ANONYMOUSBBEFB69F ]
    spherical
    ****
   BE   1
    S   6 1.00
                      1267.07000000           0.00194000
                       190.35600000           0.01478600
                        43.29590000           0.07179500
                        12.14420000           0.23634800
                         3.80923000           0.47176300
                         1.26847000           0.35518300
    S   3 1.00
                         5.69388000          -0.02887600
                         1.55563000          -0.17756500
                         0.17185500           1.07163000
    S   1 1.00
                         0.05718100           1.00000000
    P   2 1.00
                         1.55563000           0.14404500
                         0.17185500           0.94969200
    P   1 1.00
                         5.69388000           1.00000000
    ****
    H   2
    S   3 1.00
                        19.24060000           0.03282800
                         2.89920000           0.23120800
                         0.65340000           0.81723800
    S   1 1.00
                         0.17760000           1.00000000
    ****


  Cholesky integrals time
 Computing the Cholesky Vectors 

    Computing CD Integrals               ......Done. Timing        0.033269 s
 Need 0.000111 GB to store cd integrals in core

 Number of cholesky vectors 88 to satisfy       0.000000000000 tolerance

  CholeskyIntegrals take 0.03956800

                -----------------------------------------------
                  String-based Full Configuration Interaction
                          by Francesco A. Evangelista
                -----------------------------------------------

  Number of electrons: 6
  Charge: 0
  Multiplicity: 1
  Davidson subspace max dim: 8
  Davidson subspace min dim: 2
  M_s: 0

  ==> String Lists <==

  Number of alpha electrons     = 1
  Number of beta electrons      = 1
  Number of alpha strings       = 2
  Number of beta strings        = 2
  Timing for strings        =      0.000 s
  Timing for NN strings     =      0.000 s
  Timing for VO strings     =      0.000 s
  Timing for OO strings     =      0.000 s
  Timing for VVOO strings   =      0.000 s
  Timing for VOVO strings   =      0.000 s
  Timing for 1-hole strings =      0.000 s
  Timing for 2-hole strings =      0.000 s
  Timing for 3-hole strings =      0.000 s
  Total timing              =      0.000 s

  ==> FCI Solver <==

    Number of determinants                           2
    Symmetry                                         0
    Multiplicity                                     1
    Number of roots                                  1
    Target root                                      0
    Trial vectors per root                          10

  Allocating memory for the Hamiltonian algorithm. Size: 2 x 1 x 1.   Memory: 0.000000 GB

  ==> FCI Initial Guess <==

  ---------------------------------------------
    Root            Energy     <S^2>   Spin
  ---------------------------------------------
      0      -15.569761360884  0.000  singlet
      1      -15.382213841537  0.000  singlet
  ---------------------------------------------
  Timing for initial guess  =      0.000 s

  ==> Diagonalizing Hamiltonian <==

  ----------------------------------------
    Iter.      Avg. Energy       Delta_E
  ----------------------------------------
      1      -15.569761360884  -1.557e+01
      2      -15.569761360884  -3.553e-15
      3      -15.569761360884  +0.000e+00
  ----------------------------------------
  The Davidson-Liu algorithm converged in 4 iterations.

  ==> Root No. 0 <==

    0 2     -0.98110296
    2 0      0.19348637

    Total Energy:       -15.569761360883524

  ==> Computing RDMs for Root No. 0 <==

    Timing for 1-RDM: 0.000 s
    Timing for 2-RDM: 0.000 s
    Timing for 3-RDM: 0.000 s

  ==> NATURAL ORBITALS <==

        1B2     1.925126      1A1     0.074874  


       -----------------------------------------------------------------
                            Semi-Canonical Orbitals
         Chenyang Li, Jeffrey B. Schriber and Francesco A. Evangelista
       -----------------------------------------------------------------

  Took 0.004189 s to build Fock matrix

  ==> Checking Fock Matrix Diagonal Blocks <==

    Off-Diag. Elements       Max           2-Norm
    ------------------------------------------------
    Fa actv              0.0000000000   0.0000000000
    Fb actv              0.0000000000   0.0000000000
    ------------------------------------------------
    Fa core              0.0000000000   0.0000000000
    Fb core              0.0000000000   0.0000000000
    ------------------------------------------------
    Fa virt              0.0000000000   0.0000000000
    Fb virt              0.0000000000   0.0000000000
    ------------------------------------------------
  Orbitals are already semicanonicalized.

  ==> Multireference Driven Similarity Renormalization Group <==

    Reading DSRG options ............................ Done
    Setting ambit MO space .......................... Done
    Preparing tensors for density cumulants ......... Done
    Building Fock matrix ............................ Done

                  --------------------------------------------
                      Density Fitted / Cholesky Decomposed
                    MR-DSRG Second-Order Perturbation Theory
                      Kevin Hannon and Chenyang (York) Li
                                    1 thread
                  --------------------------------------------

    References:
      u-DSRG-MRPT2:      J. Chem. Theory Comput. 2015, 11, 2097.
      DF/CD-DSRG-MRPT2:  J. Chem. Phys. 2016, 144, 204111.
      (pr-)DSRG-MRPT2:   J. Chem. Phys. 2017, 146, 124132.


  ==> Calculation Information <==

    Flow parameter                                 1.000e+10
    Taylor expansion threshold                     1.000e-03
    Cholesky tolerance                             1.000e-14
    Psi4 ref_type                                     TWOCON
    Integral type                                   CHOLESKY
    Source operator                                 STANDARD
    CCVV algorithm                                 FLY_AMBIT
    CCVV source                                       NORMAL
    Reference relaxation                                NONE
    State type                                STATE-SPECIFIC

  ==> Checking Semicanonical Orbitals <==

    Abs. max of Fock core, active, virtual blocks (Fij, i != j)
                  core          active         virtual
    --------------------------------------------------
    Fα    0.0000000000    0.0000000000    0.0000000000
    Fβ    0.0000000000    0.0000000000    0.0000000000
    --------------------------------------------------

    1-Norm of Fock core, active, virtual blocks (Fij, i != j)
                  core          active         virtual
    --------------------------------------------------
    Fα    0.0000000000    0.0000000000    0.0000000000
    Fβ    0.0000000000    0.0000000000    0.0000000000
    --------------------------------------------------

    Orbitals are semi-canonicalized.

  ==> Computing DSRG-MRPT2 Energy <==

  Reference Energy = -15.569761360883524
    Computing T2                             ...... Done. Timing        0.002518 s
    Renormalizing V                          ...... Done. Timing        0.001193 s
    Computing T1                             ...... Done. Timing        0.004225 s
    Renormalizing F                          ...... Done. Timing        0.005715 s
    Computing <[F, T1]>                      ...... Done. Timing        0.001929 s
    Computing <[F, T2]>                      ...... Done. Timing        0.004885 s
    Computing <[V, T1]>                      ...... Done. Timing        0.003483 s
    Computing <[V, T2]> 4HH                  ...... Done. Timing        0.005107 s
    Computing <V, T2]> 4PP                   ...... Done. Timing        0.005279 s
    Computing [V, T2] 4PH                    ...... Done. Timing        0.023047 s
    Computing [V, T2] λ3                     ...... Done. Timing        0.013362 s
    Computing <[V, T2]> (C_2)^4 (no ccvv)    ...... Done. Timing        0.022848 s
    Computing <[V, T2]> (C_2)^4 ccvv         ...... Done. Timing        0.002227 s
  Eccvv: -0.0234416990

  ==> DSRG-MRPT2 (DF/CD) Energy Summary <==

    E0 (reference)                 =    -15.569761360883524
    <[F, T1]>                      =     -0.006866409451500
    <[F, T2]>                      =      0.003999655607535
    <[V, T1]>                      =      0.006866409451501
    <[V, T2]> C_4 (C_2)^2 HH       =      0.002566546986887
    <[V, T2]> C_4 (C_2)^2 PP       =      0.003883716695534
    <[V, T2]> C_4 (C_2)^2 PH       =     -0.012940867510120
    <[V, T2]> C_6 C_2              =      0.001856678819003
    <[V, T2]> (C_2)^4              =     -0.056789258635431
    <[V, T2]>                      =     -0.061423183644128
    DSRG-MRPT2 correlation energy  =     -0.057423528036592
    DSRG-MRPT2 total energy        =    -15.627184888920116
    max(T1)                        =      0.419523822230485
    ||T1||                         =      0.715770273030156

  ==> Total Timings (s) for Computing Commutators <==

             [H1, T1]    [H1, T2]    [H2, T1]    [H2, T2]
    -----------------------------------------------------
    -> C0       0.002       0.005       0.004       0.059
    -> C1       0.000       0.000       0.000       0.000
    -> C2                   0.000       0.000       0.000
    -----------------------------------------------------

 CD/DF DSRG-MRPT2 took  0.13880 s.	DSRG-MRPT2 energy.................................................PASSED

*** Psi4 exiting successfully. Buy a developer a beer!
