
    -----------------------------------------------------------------------
          Psi4: An Open-Source Ab Initio Electronic Structure Package
                               Psi4 undefined 

                         Git: Rev {HEAD} f016cba 


    D. G. A. Smith, L. A. Burns, A. C. Simmonett, R. M. Parrish,
    M. C. Schieber, R. Galvelis, P. Kraus, H. Kruse, R. Di Remigio,
    A. Alenaizan, A. M. James, S. Lehtola, J. P. Misiewicz, M. Scheurer,
    R. A. Shaw, J. B. Schriber, Y. Xie, Z. L. Glick, D. A. Sirianni,
    J. S. O'Brien, J. M. Waldrop, A. Kumar, E. G. Hohenstein,
    B. P. Pritchard, B. R. Brooks, H. F. Schaefer III, A. Yu. Sokolov,
    K. Patkowski, A. E. DePrince III, U. Bozkaya, R. A. King,
    F. A. Evangelista, J. M. Turney, T. D. Crawford, C. D. Sherrill,
    J. Chem. Phys. 152(18) 184108 (2020). https://doi.org/10.1063/5.0006002

                            Additional Code Authors
    E. T. Seidl, C. L. Janssen, E. F. Valeev, M. L. Leininger,
    J. F. Gonthier, R. M. Richard, H. R. McAlexander, M. Saitow, X. Wang,
    P. Verma, M. H. Lechner, and A. Jiang

             Previous Authors, Complete List of Code Contributors,
                       and Citations for Specific Modules
    https://github.com/psi4/psi4/blob/master/codemeta.json
    https://github.com/psi4/psi4/graphs/contributors
    http://psicode.org/psi4manual/master/introduction.html#citing-psifour

    -----------------------------------------------------------------------


    Psi4 started on: Sunday, 16 January 2022 12:04AM

    Process ID: 17843
    Host:       Yorks-Mac.local
    PSIDATADIR: /Users/york/src/psi4new/psi4/share/psi4
    Memory:     500.0 MiB
    Threads:    1
    
  ==> Input File <==

--------------------------------------------------------------------------
import forte
dmrg_ref = -76.1265895352437

molecule H2O {
0 1
O   0.000000000   0.00   0.000000000
H   0.790689766   0.00   0.612217330
H  -0.790689766   0.00   0.612217330
units angstrom
}

set {
basis          cc-pvdz
reference      rhf
scf_type       direct
e_convergence  1e-12
d_convergence  1e-8
ints_tolerance 0.0
}

set forte{
job_type                  mcscf_two_step
casscf_ci_solver          dmrg
restricted_docc           [    1,    0,    0,    0 ]
active                    [    3,    0,    4,    2 ]
dmrg_sweep_states         [  200,  500, 1000, 1000 ]
dmrg_sweep_energy_conv    [ 1e-8, 1e-8, 1e-8, 1e-8 ]
dmrg_sweep_max_sweeps     [    5,    5,    5,  100 ]
dmrg_sweep_noise_prefac   [ 0.03, 0.03, 0.03,  0.0 ]
dmrg_sweep_dvdson_rtol    [ 1e-6, 1e-6, 1e-6, 1e-6 ]
}

dmrgscf = energy('forte')
compare_values(dmrg_ref, dmrgscf, 6, "DMRG-SCF Energy")
--------------------------------------------------------------------------

Scratch directory: /Users/york/scratch/psi4/

  Forte
  ----------------------------------------------------------------------------
  A suite of quantum chemistry methods for strongly correlated electrons

    git branch: dmrg-york - git commit: efc3d7bd

  Developed by:
    Francesco A. Evangelista, Chenyang Li, Kevin P. Hannon,
    Jeffrey B. Schriber, Tianyuan Zhang, Chenxi Cai,
    Nan He, Nicholas Stair, Shuhe Wang, Renke Huang
  ----------------------------------------------------------------------------

  Size of Determinant class: 128 bits

  Preparing forte objects from a Psi4 Wavefunction object
  No reference wave function provided for Forte. Computing SCF orbitals using Psi4 ...

*** tstart() called on Yorks-Mac.local
*** at Sun Jan 16 00:04:05 2022

   => Loading Basis Set <=

    Name: CC-PVDZ
    Role: ORBITAL
    Keyword: BASIS
    atoms 1   entry O          line   198 file /Users/york/src/psi4new/psi4/share/psi4/basis/cc-pvdz.gbs 
    atoms 2-3 entry H          line    22 file /Users/york/src/psi4new/psi4/share/psi4/basis/cc-pvdz.gbs 


         ---------------------------------------------------------
                                   SCF
               by Justin Turney, Rob Parrish, Andy Simmonett
                          and Daniel G. A. Smith
                              RHF Reference
                        1 Threads,    500 MiB Core
         ---------------------------------------------------------

  ==> Geometry <==

    Molecular point group: c2v
    Full point group: C2v

    Geometry (in Angstrom), charge = 0, multiplicity = 1:

       Center              X                  Y                   Z               Mass       
    ------------   -----------------  -----------------  -----------------  -----------------
         O            0.000000000000     0.000000000000    -0.068516224912    15.994914619570
         H            0.790689766000     0.000000000000     0.543701105088     1.007825032230
         H           -0.790689766000    -0.000000000000     0.543701105088     1.007825032230

  Running in c2v symmetry.

  Rotational constants: A =     25.12555  B =     13.37732  C =      8.72954 [cm^-1]
  Rotational constants: A = 753244.94854  B = 401041.97204  C = 261705.15684 [MHz]
  Nuclear repulsion =    8.801463937118291

  Charge       = 0
  Multiplicity = 1
  Electrons    = 10
  Nalpha       = 5
  Nbeta        = 5

  ==> Algorithm <==

  SCF Algorithm Type is DIRECT.
  DIIS enabled.
  MOM disabled.
  Fractional occupation disabled.
  Guess Type is SAD.
  Energy threshold   = 1.00e-12
  Density threshold  = 1.00e-08
  Integral threshold = 0.00e+00

  ==> Primary Basis <==

  Basis Set: CC-PVDZ
    Blend: CC-PVDZ
    Number of shells: 12
    Number of basis functions: 24
    Number of Cartesian functions: 25
    Spherical Harmonics?: true
    Max angular momentum: 2

   => Loading Basis Set <=

    Name: (CC-PVDZ AUX)
    Role: JKFIT
    Keyword: DF_BASIS_SCF
    atoms 1   entry O          line   221 file /Users/york/src/psi4new/psi4/share/psi4/basis/cc-pvdz-jkfit.gbs 
    atoms 2-3 entry H          line    51 file /Users/york/src/psi4new/psi4/share/psi4/basis/cc-pvdz-jkfit.gbs 

  Starting with a DF guess...

  ==> Integral Setup <==

  DFHelper Memory: AOs need 0.001 GiB; user supplied 0.366 GiB. Using in-core AOs.

  ==> MemDFJK: Density-Fitted J/K Matrices <==

    J tasked:                   Yes
    K tasked:                   Yes
    wK tasked:                   No
    OpenMP threads:               1
    Memory [MiB]:               375
    Algorithm:                 Core
    Schwarz Cutoff:           0E+00
    Mask sparsity (%):       0.0000
    Fitting Condition:        1E-10

   => Auxiliary Basis Set <=

  Basis Set: (CC-PVDZ AUX)
    Blend: CC-PVDZ-JKFIT
    Number of shells: 42
    Number of basis functions: 116
    Number of Cartesian functions: 131
    Spherical Harmonics?: true
    Max angular momentum: 3

  Minimum eigenvalue in the overlap matrix is 3.5782946599E-02.
  Reciprocal condition number of the overlap matrix is 1.1524666283E-02.
    Using symmetric orthogonalization.

  ==> Pre-Iterations <==

  SCF Guess: Superposition of Atomic Densities via on-the-fly atomic UHF (no occupation information).

   -------------------------
    Irrep   Nso     Nmo    
   -------------------------
     A1        11      11 
     A2         2       2 
     B1         7       7 
     B2         4       4 
   -------------------------
    Total      24      24
   -------------------------

  ==> Iterations <==

                           Total Energy        Delta E     RMS |[F,P]|

   @DF-RHF iter SAD:   -75.45137216481574   -7.54514e+01   0.00000e+00 
   @DF-RHF iter   1:   -75.94580094160716   -4.94429e-01   3.03025e-02 DIIS
   @DF-RHF iter   2:   -75.99964862373025   -5.38477e-02   1.81940e-02 DIIS
   @DF-RHF iter   3:   -76.02091627032490   -2.12676e-02   1.67012e-03 DIIS
   @DF-RHF iter   4:   -76.02136937397441   -4.53104e-04   4.20110e-04 DIIS
   @DF-RHF iter   5:   -76.02139620073673   -2.68268e-05   7.52795e-05 DIIS
   @DF-RHF iter   6:   -76.02139739512381   -1.19439e-06   1.16774e-05 DIIS
   @DF-RHF iter   7:   -76.02139742678253   -3.16587e-08   1.86515e-06 DIIS
   @DF-RHF iter   8:   -76.02139742769020   -9.07676e-10   4.57981e-07 DIIS
   @DF-RHF iter   9:   -76.02139742775226   -6.20588e-11   7.24940e-08 DIIS
   @DF-RHF iter  10:   -76.02139742775353   -1.26477e-12   6.28035e-09 DIIS
   @DF-RHF iter  11:   -76.02139742775356   -2.84217e-14   1.03626e-09 DIIS

  DF guess converged.

  ==> DirectJK: Integral-Direct J/K Matrices <==

    J tasked:                  Yes
    K tasked:                  Yes
    wK tasked:                  No
    Integrals threads:           1
    Screening Type:           CSAM
    Screening Cutoff:        0E+00
    Incremental Fock:           No

   @RHF iter  12:   -76.02141839534090   -7.60214e+01   1.26595e-05 DIIS
   @RHF iter  13:   -76.02141840860736   -1.32665e-08   2.00575e-06 DIIS
   @RHF iter  14:   -76.02141840900968   -4.02324e-10   4.20326e-07 DIIS
   @RHF iter  15:   -76.02141840902489   -1.52056e-11   1.34677e-07 DIIS
   @RHF iter  16:   -76.02141840902657   -1.67688e-12   4.82097e-08 DIIS
   @RHF iter  17:   -76.02141840902675   -1.84741e-13   4.68464e-09 DIIS
  Energy and wave function converged.


  ==> Post-Iterations <==

    Orbital Energies [Eh]
    ---------------------

    Doubly Occupied:                                                      

       1A1   -20.557846     2A1    -1.316180     1B1    -0.677073  
       3A1    -0.558726     1B2    -0.490383  

    Virtual:                                                              

       4A1     0.178011     2B1     0.249490     3B1     0.760274  
       5A1     0.816118     6A1     1.166182     2B2     1.198611  
       4B1     1.256467     7A1     1.452518     1A2     1.466082  
       3B2     1.667951     8A1     1.877149     5B1     1.889827  
       6B1     2.354901     9A1     2.388286     4B2     3.248785  
       2A2     3.297833    10A1     3.453879    11A1     3.821364  
       7B1     4.099041  

    Final Occupation by Irrep:
             A1    A2    B1    B2 
    DOCC [     3,    0,    1,    1 ]

  @RHF Final Energy:   -76.02141840902675

   => Energetics <=

    Nuclear Repulsion Energy =              8.8014639371182906
    One-Electron Energy =                -122.4453487519650423
    Two-Electron Energy =                  37.6224664058200133
    Total Energy =                        -76.0214184090267509

Computation Completed


Properties will be evaluated at   0.000000,   0.000000,   0.000000 [a0]

Properties computed using the SCF density matrix

  Nuclear Dipole Moment: [e a0]
     X:     0.0000      Y:     0.0000      Z:     1.0191

  Electronic Dipole Moment: [e a0]
     X:     0.0000      Y:     0.0000      Z:    -0.1947

  Dipole Moment: [e a0]
     X:     0.0000      Y:     0.0000      Z:     0.8244     Total:     0.8244

  Dipole Moment: [D]
     X:     0.0000      Y:     0.0000      Z:     2.0955     Total:     2.0955


*** tstop() called on Yorks-Mac.local at Sun Jan 16 00:04:06 2022
Module time:
	user time   =       0.77 seconds =       0.01 minutes
	system time =       0.04 seconds =       0.00 minutes
	total time  =          1 seconds =       0.02 minutes
Total time:
	user time   =       0.77 seconds =       0.01 minutes
	system time =       0.04 seconds =       0.00 minutes
	total time  =          1 seconds =       0.02 minutes

  Read options for space RESTRICTED_DOCC
  Read options for space ACTIVE
  Read options for space RESTRICTED_DOCC

  ==> MO Space Information <==

  -------------------------------------------------
                       A1    A2    B1    B2   Sum
  -------------------------------------------------
    FROZEN_DOCC         0     0     0     0     0
    RESTRICTED_DOCC     1     0     0     0     1
    GAS1                3     0     4     2     9
    GAS2                0     0     0     0     0
    GAS3                0     0     0     0     0
    GAS4                0     0     0     0     0
    GAS5                0     0     0     0     0
    GAS6                0     0     0     0     0
    RESTRICTED_UOCC     7     2     3     2    14
    FROZEN_UOCC         0     0     0     0     0
    Total              11     2     7     4    24
  -------------------------------------------------   => Loading Basis Set <=

    Name: STO-3G
    Role: ORBITAL
    Keyword: MINAO_BASIS
    atoms 1   entry O          line    81 file /Users/york/src/psi4new/psi4/share/psi4/basis/sto-3g.gbs 
    atoms 2-3 entry H          line    19 file /Users/york/src/psi4new/psi4/share/psi4/basis/sto-3g.gbs 


  Forte will use psi4 integrals

  ==> Primary Basis Set Summary <==

  Basis Set: CC-PVDZ
    Blend: CC-PVDZ
    Number of shells: 12
    Number of basis functions: 24
    Number of Cartesian functions: 25
    Spherical Harmonics?: true
    Max angular momentum: 2


  JK created using conventional PK integrals
  Using in-core PK algorithm.
   Calculation information:
      Number of atoms:                   3
      Number of AO shells:              12
      Number of primitives:             32
      Number of atomic orbitals:        25
      Number of basis functions:        24

      Integral cutoff                 0.00e+00
      Number of threads:                 1

  Performing in-core PK
  Using 90300 doubles for integral storage.
  We computed 3081 shell quartets total.
  Whereas there are 3081 unique shell quartets.

  ==> DiskJK: Disk-Based J/K Matrices <==

    J tasked:                  Yes
    K tasked:                  Yes
    wK tasked:                  No
    Memory [MiB]:              400
    Schwarz Cutoff:          0E+00

    OpenMP threads:              1



  ==> Integral Transformation <==

  Number of molecular orbitals:                         24
  Number of correlated molecular orbitals:              24
  Number of frozen occupied orbitals:                    0
  Number of frozen unoccupied orbitals:                  0
  Two-electron integral type:                 Conventional


  Skip integral allocation and transformation for AO-driven CASSCF.

          -----------------------------------------------------------
                  Multi-Configurational Self Consistent Field
                Two-Step Approximate Second-Order AO Algorithm
            written by Chenyang Li, Kevin P. Hannon, and Shuhe Wang
          -----------------------------------------------------------


  ==> Calculation Information <==

    Integral type                               CONVENTIONAL
    CI solver type                                      DMRG
    Final orbital type                             CANONICAL
    Derivative type                                     NONE
    Optimize orbitals                                   TRUE
    Include internal rotations                         FALSE
    Debug printing                                     FALSE
    Energy convergence                             1.000e-08
    Gradient convergence                           1.000e-07
    Max value for rotation                         2.000e-01
    Printing level                                         1
    Max number of macro iterations                       100
    Max number of micro iterations                        40
    Min number of micro iterations                         6
    DIIS start                                            15
    Min DIIS vectors                                       3
    Max DIIS vectors                                       8
    Frequency of DIIS extrapolation                        1


  ==> Independent Orbital Rotations <==

    ORBITAL SPACES                        A1     A2     B1     B2
    -------------------------------------------------------------
             ACTIVE / RESTRICTED_DOCC      3      0      0      0
    RESTRICTED_UOCC /          ACTIVE     21      0     12      4
    RESTRICTED_UOCC / RESTRICTED_DOCC      7      0      0      0
    -------------------------------------------------------------

  ==> Summary of Active Space Solver Input <==

    Irrep.  Multi.(2ms)      N
    --------------------------
       A1      1  (  0)      1
    --------------------------
    N: number of roots
    ms: spin z component
    Total number of roots:   1
    --------------------------


                    ----------------------------------------
                      Density Matrix Renormalization Group
                               Sebastian Wouters
                    ----------------------------------------
MPS files will be dumped to "/Users/york/src/forte/tests/methods/dmrgscf-2/1A1_CAS9"

   CheMPS2: a spin-adapted implementation of DMRG for ab initio quantum chemistry
   Copyright (C) 2013-2021 Sebastian Wouters

   This program is free software; you can redistribute it and/or modify
   it under the terms of the GNU General Public License as published by
   the Free Software Foundation; either version 2 of the License, or
   (at your option) any later version.

   This program is distributed in the hope that it will be useful,
   but WITHOUT ANY WARRANTY; without even the implied warranty of
   MERCHANTABILITY or FITNESS FOR A PARTICULAR PURPOSE.  See the
   GNU General Public License for more details.

   You should have received a copy of the GNU General Public License along
   with this program; if not, write to the Free Software Foundation, Inc.,
   51 Franklin Street, Fifth Floor, Boston, MA 02110-1301 USA.


  ==> Computing Energy for Singlet (Ms = 0) A1 <==

   Stats: nIt(DAVIDSON) = 10
Energy at sites (7, 8) is -71.8986648062271
   Stats: nIt(DAVIDSON) = 13
Energy at sites (6, 7) is -73.2824682162666
   Stats: nIt(DAVIDSON) = 19
Energy at sites (5, 6) is -74.5121989713303
   Stats: nIt(DAVIDSON) = 23
Energy at sites (4, 5) is -76.0784263954391
   Stats: nIt(DAVIDSON) = 1
Energy at sites (3, 4) is -76.0784263954391
   Stats: nIt(DAVIDSON) = 1
Energy at sites (2, 3) is -76.0784263954392
   Stats: nIt(DAVIDSON) = 1
Energy at sites (1, 2) is -76.0784263954391
******************************************************************
***  Information on left sweep 0 of instruction 0:
***     Elapsed wall time        = 0.305386 seconds
***       |--> S.join            = 0.000226 seconds
***       |--> S.solve           = 0.283816 seconds
***       |--> S.split           = 0.000614 seconds
***       |--> Tensor update     = 0.020613 seconds
***              |--> create     = 0.001241 seconds
***              |--> destroy    = 0.00041 seconds
***              |--> disk write = 0.00869 seconds
***              |--> disk read  = 0.006805 seconds
***              |--> calc       = 0.003453 seconds
***     Disk write bandwidth     = 65.1220183377985 MB/s
***     Disk read  bandwidth     = 83.5488772760149 MB/s
***     Minimum energy           = -76.0784263954392
***     Maximum discarded weight = 0
******************************************************************
   Stats: nIt(DAVIDSON) = 1
Energy at sites (0, 1) is -76.0784263954391
   Stats: nIt(DAVIDSON) = 1
Energy at sites (1, 2) is -76.0784263954391
   Stats: nIt(DAVIDSON) = 1
Energy at sites (2, 3) is -76.0784263954391
   Stats: nIt(DAVIDSON) = 1
Energy at sites (3, 4) is -76.0784263954391
   Stats: nIt(DAVIDSON) = 1
Energy at sites (4, 5) is -76.0784263954391
   Stats: nIt(DAVIDSON) = 1
Energy at sites (5, 6) is -76.0784263954391
   Stats: nIt(DAVIDSON) = 1
Energy at sites (6, 7) is -76.0784263954391
******************************************************************
***  Information on right sweep 0 of instruction 0:
***     Elapsed wall time        = 0.042679 seconds
***       |--> S.join            = 0.00021 seconds
***       |--> S.solve           = 0.0203 seconds
***       |--> S.split           = 0.000601 seconds
***       |--> Tensor update     = 0.021479 seconds
***              |--> create     = 0.001212 seconds
***              |--> destroy    = 0.000391 seconds
***              |--> disk write = 0.008386 seconds
***              |--> disk read  = 0.006351 seconds
***              |--> calc       = 0.005127 seconds
***     Disk write bandwidth     = 67.7975327764466 MB/s
***     Disk read  bandwidth     = 89.1057060865169 MB/s
***     Minimum energy           = -76.0784263954391
***     Maximum discarded weight = 0
***     Energy difference with respect to previous leftright sweep = 76.0784263954391
******************************************************************
   Stats: nIt(DAVIDSON) = 1
Energy at sites (7, 8) is -76.0784263954391
   Stats: nIt(DAVIDSON) = 1
Energy at sites (6, 7) is -76.0784263954391
   Stats: nIt(DAVIDSON) = 1
Energy at sites (5, 6) is -76.0784263954391
   Stats: nIt(DAVIDSON) = 1
Energy at sites (4, 5) is -76.0784263954391
   Stats: nIt(DAVIDSON) = 1
Energy at sites (3, 4) is -76.0784263954392
   Stats: nIt(DAVIDSON) = 1
Energy at sites (2, 3) is -76.0784263954391
   Stats: nIt(DAVIDSON) = 1
Energy at sites (1, 2) is -76.0784263954391
******************************************************************
***  Information on left sweep 1 of instruction 0:
***     Elapsed wall time        = 0.039667 seconds
***       |--> S.join            = 0.000216 seconds
***       |--> S.solve           = 0.020019 seconds
***       |--> S.split           = 0.000581 seconds
***       |--> Tensor update     = 0.018761 seconds
***              |--> create     = 0.001179 seconds
***              |--> destroy    = 0.000365 seconds
***              |--> disk write = 0.007486 seconds
***              |--> disk read  = 0.006267 seconds
***              |--> calc       = 0.003459 seconds
***     Disk write bandwidth     = 75.5958241190848 MB/s
***     Disk read  bandwidth     = 90.7212557624511 MB/s
***     Minimum energy           = -76.0784263954392
***     Maximum discarded weight = 0
******************************************************************
   Stats: nIt(DAVIDSON) = 1
Energy at sites (0, 1) is -76.0784263954391
   Stats: nIt(DAVIDSON) = 1
Energy at sites (1, 2) is -76.0784263954391
   Stats: nIt(DAVIDSON) = 1
Energy at sites (2, 3) is -76.0784263954391
   Stats: nIt(DAVIDSON) = 1
Energy at sites (3, 4) is -76.0784263954392
   Stats: nIt(DAVIDSON) = 1
Energy at sites (4, 5) is -76.0784263954391
   Stats: nIt(DAVIDSON) = 1
Energy at sites (5, 6) is -76.0784263954391
   Stats: nIt(DAVIDSON) = 1
Energy at sites (6, 7) is -76.0784263954391
******************************************************************
***  Information on right sweep 1 of instruction 0:
***     Elapsed wall time        = 0.039936 seconds
***       |--> S.join            = 0.0002 seconds
***       |--> S.solve           = 0.020154 seconds
***       |--> S.split           = 0.000575 seconds
***       |--> Tensor update     = 0.018947 seconds
***              |--> create     = 0.001175 seconds
***              |--> destroy    = 0.000349 seconds
***              |--> disk write = 0.007679 seconds
***              |--> disk read  = 0.006164 seconds
***              |--> calc       = 0.003574 seconds
***     Disk write bandwidth     = 74.039602795062 MB/s
***     Disk read  bandwidth     = 91.8089453853778 MB/s
***     Minimum energy           = -76.0784263954392
***     Maximum discarded weight = 0
***     Energy difference with respect to previous leftright sweep = 1.4210854715202e-14
******************************************************************
***  Information on completed instruction 0:
***     The reduced virtual dimension DSU(2)               = 200
***     The total number of reduced MPS variables          = 2565
***     Minimum energy encountered during all instructions = -76.0784263954392
***     Minimum energy encountered during the last sweep   = -76.0784263954392
***     Maximum discarded weight during the last sweep     = 0
******************************************************************
   Stats: nIt(DAVIDSON) = 1
Energy at sites (7, 8) is -76.0784263954391
   Stats: nIt(DAVIDSON) = 1
Energy at sites (6, 7) is -76.0784263954391
   Stats: nIt(DAVIDSON) = 1
Energy at sites (5, 6) is -76.0784263954391
   Stats: nIt(DAVIDSON) = 1
Energy at sites (4, 5) is -76.0784263954391
   Stats: nIt(DAVIDSON) = 1
Energy at sites (3, 4) is -76.0784263954392
   Stats: nIt(DAVIDSON) = 1
Energy at sites (2, 3) is -76.0784263954391
   Stats: nIt(DAVIDSON) = 1
Energy at sites (1, 2) is -76.0784263954391
******************************************************************
***  Information on left sweep 0 of instruction 1:
***     Elapsed wall time        = 0.040405 seconds
***       |--> S.join            = 0.000204 seconds
***       |--> S.solve           = 0.020062 seconds
***       |--> S.split           = 0.000579 seconds
***       |--> Tensor update     = 0.019499 seconds
***              |--> create     = 0.001191 seconds
***              |--> destroy    = 0.000386 seconds
***              |--> disk write = 0.007817 seconds
***              |--> disk read  = 0.00623 seconds
***              |--> calc       = 0.003867 seconds
***     Disk write bandwidth     = 72.3948240188651 MB/s
***     Disk read  bandwidth     = 91.2600497372843 MB/s
***     Minimum energy           = -76.0784263954392
***     Maximum discarded weight = 0
******************************************************************
   Stats: nIt(DAVIDSON) = 1
Energy at sites (0, 1) is -76.0784263954391
   Stats: nIt(DAVIDSON) = 1
Energy at sites (1, 2) is -76.0784263954391
   Stats: nIt(DAVIDSON) = 1
Energy at sites (2, 3) is -76.0784263954391
   Stats: nIt(DAVIDSON) = 1
Energy at sites (3, 4) is -76.0784263954392
   Stats: nIt(DAVIDSON) = 1
Energy at sites (4, 5) is -76.0784263954391
   Stats: nIt(DAVIDSON) = 1
Energy at sites (5, 6) is -76.0784263954391
   Stats: nIt(DAVIDSON) = 1
Energy at sites (6, 7) is -76.0784263954391
******************************************************************
***  Information on right sweep 0 of instruction 1:
***     Elapsed wall time        = 0.039438 seconds
***       |--> S.join            = 0.000195 seconds
***       |--> S.solve           = 0.019604 seconds
***       |--> S.split           = 0.000554 seconds
***       |--> Tensor update     = 0.019028 seconds
***              |--> create     = 0.001143 seconds
***              |--> destroy    = 0.000357 seconds
***              |--> disk write = 0.007737 seconds
***              |--> disk read  = 0.005776 seconds
***              |--> calc       = 0.004006 seconds
***     Disk write bandwidth     = 73.4845689367043 MB/s
***     Disk read  bandwidth     = 97.9761667859191 MB/s
***     Minimum energy           = -76.0784263954392
***     Maximum discarded weight = 0
***     Energy difference with respect to previous leftright sweep = 0
******************************************************************
***  Information on completed instruction 1:
***     The reduced virtual dimension DSU(2)               = 500
***     The total number of reduced MPS variables          = 2565
***     Minimum energy encountered during all instructions = -76.0784263954392
***     Minimum energy encountered during the last sweep   = -76.0784263954392
***     Maximum discarded weight during the last sweep     = 0
******************************************************************
   Stats: nIt(DAVIDSON) = 1
Energy at sites (7, 8) is -76.0784263954391
   Stats: nIt(DAVIDSON) = 1
Energy at sites (6, 7) is -76.0784263954391
   Stats: nIt(DAVIDSON) = 1
Energy at sites (5, 6) is -76.0784263954391
   Stats: nIt(DAVIDSON) = 1
Energy at sites (4, 5) is -76.0784263954391
   Stats: nIt(DAVIDSON) = 1
Energy at sites (3, 4) is -76.0784263954391
   Stats: nIt(DAVIDSON) = 1
Energy at sites (2, 3) is -76.0784263954391
   Stats: nIt(DAVIDSON) = 1
Energy at sites (1, 2) is -76.0784263954391
******************************************************************
***  Information on left sweep 0 of instruction 2:
***     Elapsed wall time        = 0.040208 seconds
***       |--> S.join            = 0.000201 seconds
***       |--> S.solve           = 0.019437 seconds
***       |--> S.split           = 0.000569 seconds
***       |--> Tensor update     = 0.01994 seconds
***              |--> create     = 0.001183 seconds
***              |--> destroy    = 0.000402 seconds
***              |--> disk write = 0.007809 seconds
***              |--> disk read  = 0.006248 seconds
***              |--> calc       = 0.004293 seconds
***     Disk write bandwidth     = 72.4689895448161 MB/s
***     Disk read  bandwidth     = 90.9971366618568 MB/s
***     Minimum energy           = -76.0784263954391
***     Maximum discarded weight = 0
******************************************************************
   Stats: nIt(DAVIDSON) = 1
Energy at sites (0, 1) is -76.0784263954391
   Stats: nIt(DAVIDSON) = 1
Energy at sites (1, 2) is -76.0784263954391
   Stats: nIt(DAVIDSON) = 1
Energy at sites (2, 3) is -76.0784263954391
   Stats: nIt(DAVIDSON) = 1
Energy at sites (3, 4) is -76.0784263954391
   Stats: nIt(DAVIDSON) = 1
Energy at sites (4, 5) is -76.0784263954391
   Stats: nIt(DAVIDSON) = 1
Energy at sites (5, 6) is -76.0784263954391
   Stats: nIt(DAVIDSON) = 1
Energy at sites (6, 7) is -76.0784263954391
******************************************************************
***  Information on right sweep 0 of instruction 2:
***     Elapsed wall time        = 0.041289 seconds
***       |--> S.join            = 0.000206 seconds
***       |--> S.solve           = 0.020245 seconds
***       |--> S.split           = 0.000589 seconds
***       |--> Tensor update     = 0.020169 seconds
***              |--> create     = 0.001171 seconds
***              |--> destroy    = 0.000396 seconds
***              |--> disk write = 0.008493 seconds
***              |--> disk read  = 0.006163 seconds
***              |--> calc       = 0.003933 seconds
***     Disk write bandwidth     = 66.9433780599648 MB/s
***     Disk read  bandwidth     = 91.8238421800209 MB/s
***     Minimum energy           = -76.0784263954391
***     Maximum discarded weight = 0
***     Energy difference with respect to previous leftright sweep = 1.4210854715202e-14
******************************************************************
***  Information on completed instruction 2:
***     The reduced virtual dimension DSU(2)               = 1000
***     The total number of reduced MPS variables          = 2565
***     Minimum energy encountered during all instructions = -76.0784263954392
***     Minimum energy encountered during the last sweep   = -76.0784263954391
***     Maximum discarded weight during the last sweep     = 0
******************************************************************
   Stats: nIt(DAVIDSON) = 1
Energy at sites (7, 8) is -76.0784263954391
   Stats: nIt(DAVIDSON) = 1
Energy at sites (6, 7) is -76.0784263954391
   Stats: nIt(DAVIDSON) = 1
Energy at sites (5, 6) is -76.0784263954391
   Stats: nIt(DAVIDSON) = 1
Energy at sites (4, 5) is -76.0784263954391
   Stats: nIt(DAVIDSON) = 1
Energy at sites (3, 4) is -76.0784263954391
   Stats: nIt(DAVIDSON) = 1
Energy at sites (2, 3) is -76.0784263954391
   Stats: nIt(DAVIDSON) = 1
Energy at sites (1, 2) is -76.0784263954391
******************************************************************
***  Information on left sweep 0 of instruction 3:
***     Elapsed wall time        = 0.040077 seconds
***       |--> S.join            = 0.00021 seconds
***       |--> S.solve           = 0.020299 seconds
***       |--> S.split           = 0.000591 seconds
***       |--> Tensor update     = 0.018914 seconds
***              |--> create     = 0.001214 seconds
***              |--> destroy    = 0.000381 seconds
***              |--> disk write = 0.007813 seconds
***              |--> disk read  = 0.006068 seconds
***              |--> calc       = 0.003428 seconds
***     Disk write bandwidth     = 72.431887796681 MB/s
***     Disk read  bandwidth     = 93.6964584481347 MB/s
***     Minimum energy           = -76.0784263954391
***     Maximum discarded weight = 0
******************************************************************
   Stats: nIt(DAVIDSON) = 1
Energy at sites (0, 1) is -76.0784263954391
   Stats: nIt(DAVIDSON) = 1
Energy at sites (1, 2) is -76.0784263954391
   Stats: nIt(DAVIDSON) = 1
Energy at sites (2, 3) is -76.0784263954391
   Stats: nIt(DAVIDSON) = 1
Energy at sites (3, 4) is -76.0784263954391
   Stats: nIt(DAVIDSON) = 1
Energy at sites (4, 5) is -76.0784263954391
   Stats: nIt(DAVIDSON) = 1
Energy at sites (5, 6) is -76.0784263954391
   Stats: nIt(DAVIDSON) = 1
Energy at sites (6, 7) is -76.0784263954391
******************************************************************
***  Information on right sweep 0 of instruction 3:
***     Elapsed wall time        = 0.040136 seconds
***       |--> S.join            = 0.000328 seconds
***       |--> S.solve           = 0.020301 seconds
***       |--> S.split           = 0.000582 seconds
***       |--> Tensor update     = 0.018859 seconds
***              |--> create     = 0.001221 seconds
***              |--> destroy    = 0.000386 seconds
***              |--> disk write = 0.007597 seconds
***              |--> disk read  = 0.006169 seconds
***              |--> calc       = 0.003481 seconds
***     Disk write bandwidth     = 74.8387666004056 MB/s
***     Disk read  bandwidth     = 91.7345338556442 MB/s
***     Minimum energy           = -76.0784263954391
***     Maximum discarded weight = 0
***     Energy difference with respect to previous leftright sweep = 0
******************************************************************
***  Information on completed instruction 3:
***     The reduced virtual dimension DSU(2)               = 1000
***     The total number of reduced MPS variables          = 2565
***     Minimum energy encountered during all instructions = -76.0784263954392
***     Minimum energy encountered during the last sweep   = -76.0784263954391
***     Maximum discarded weight during the last sweep     = 0
******************************************************************


  ==> Energy Summary <==

    Multi.(2ms)  Irrep.  No.               Energy      <S^2>
    --------------------------------------------------------
       1  (  0)    A1     0      -76.078426395439       n/a
    --------------------------------------------------------
   CheMPS2: a spin-adapted implementation of DMRG for ab initio quantum chemistry
   Copyright (C) 2013-2021 Sebastian Wouters

   This program is free software; you can redistribute it and/or modify
   it under the terms of the GNU General Public License as published by
   the Free Software Foundation; either version 2 of the License, or
   (at your option) any later version.

   This program is distributed in the hope that it will be useful,
   but WITHOUT ANY WARRANTY; without even the implied warranty of
   MERCHANTABILITY or FITNESS FOR A PARTICULAR PURPOSE.  See the
   GNU General Public License for more details.

   You should have received a copy of the GNU General Public License along
   with this program; if not, write to the Free Software Foundation, Inc.,
   51 Franklin Street, Fifth Floor, Boston, MA 02110-1301 USA.

Loaded MPS CheMPS2_MPS0.h5 converged y/n? : 0
********************************************
***  2-RDM and Correlations calculation  ***
********************************************
   N(N-1)                     = 56
   Double trace of DMRG 2-RDM = 56.0000000000001
   Econst + 0.5 * trace(2DM-A * Ham) = -76.0784263954392
   NOON of irrep A1 = [ 1.99776173754399 , 1.99036870294544 , 0.00854406046481405 ].
   NOON of irrep B1 = [ 1.97777534544082 , 0.0226532751666993 , 0.00285667093190532 , 0.000211984461422353 ].
   NOON of irrep B2 = [ 1.98549391280532 , 0.0143343102395949 ].
   Single-orbital entropies (Hamiltonian index order is used!) = [ 0.029520494715086 , 0.044189312802733 , 0.0541424824817675 , 0.0992445134247363 , 0.0645889994914388 , 0.0445559669345401 , 0.0372875931571336 , 0.0722699708292679 , 0.0717858873701799 ].
   Idistance(0) = 0.49983288196876
   Idistance(1) = 1.14276851597951
   Idistance(2) = 3.92109599976353
***************************************************
***  Timing information 2-RDM and Correlations  ***
***************************************************
***     Elapsed wall time        = 0.050072 seconds
***       |--> MPS gauge change  = 0.000378 seconds
***       |--> Diagram calc      = 0.003355 seconds
***       |--> Tensor update     = 0.046207 seconds
***              |--> create     = 0.002871 seconds
***              |--> destroy    = 0.000930000000000001 seconds
***              |--> disk write = 0.018782 seconds
***              |--> disk read  = 0.015584 seconds
***              |--> calc       = 0.008008 seconds
***     Disk write bandwidth     = 61.4901089640347 MB/s
***     Disk read  bandwidth     = 74.1085232650475 MB/s
***************************************************


  ==> Optimizing Orbitals for Current RDMs <==

    L-BFGS Iter:  1; fx =  -76.093327978940437; g_norm = 8.380659e-02; step = 2.808e-01
    L-BFGS Iter:  2; fx =  -76.102667373081900; g_norm = 6.955119e-02; step = 1.857e-01
    L-BFGS Iter:  3; fx =  -76.109426619543186; g_norm = 2.662015e-02; step = 4.915e-01
    L-BFGS Iter:  4; fx =  -76.111192672927885; g_norm = 1.267396e-02; step = 1.000e+00
    L-BFGS Iter:  5; fx =  -76.111425970780346; g_norm = 1.026923e-02; step = 1.000e+00
    L-BFGS Iter:  6; fx =  -76.111661368870656; g_norm = 1.026923e-02; step = 1.000e+00

  ==> MCSCF Macro Iter. 1 <==

             Energy CI (  Delta E  )         Energy Opt. (  Delta E  )  E_OPT - E_CI   Orbital RMS  Micro  DIIS
      -76.078426395439 (-7.6078e+01)    -76.111661368871 (-7.6112e+01)   -3.3235e-02    1.5467e-02    6/N

  ==> Summary of Active Space Solver Input <==

    Irrep.  Multi.(2ms)      N
    --------------------------
       A1      1  (  0)      1
    --------------------------
    N: number of roots
    ms: spin z component
    Total number of roots:   1
    --------------------------


                    ----------------------------------------
                      Density Matrix Renormalization Group
                               Sebastian Wouters
                    ----------------------------------------
MPS files will be dumped to "/Users/york/src/forte/tests/methods/dmrgscf-2/1A1_CAS9"

   CheMPS2: a spin-adapted implementation of DMRG for ab initio quantum chemistry
   Copyright (C) 2013-2021 Sebastian Wouters

   This program is free software; you can redistribute it and/or modify
   it under the terms of the GNU General Public License as published by
   the Free Software Foundation; either version 2 of the License, or
   (at your option) any later version.

   This program is distributed in the hope that it will be useful,
   but WITHOUT ANY WARRANTY; without even the implied warranty of
   MERCHANTABILITY or FITNESS FOR A PARTICULAR PURPOSE.  See the
   GNU General Public License for more details.

   You should have received a copy of the GNU General Public License along
   with this program; if not, write to the Free Software Foundation, Inc.,
   51 Franklin Street, Fifth Floor, Boston, MA 02110-1301 USA.

Loaded MPS CheMPS2_MPS0.h5 converged y/n? : 0

  ==> Computing Energy for Singlet (Ms = 0) A1 <==

   Stats: nIt(DAVIDSON) = 7
Energy at sites (7, 8) is -76.1138352725578
   Stats: nIt(DAVIDSON) = 8
Energy at sites (6, 7) is -76.1157463091728
   Stats: nIt(DAVIDSON) = 9
Energy at sites (5, 6) is -76.119217057675
   Stats: nIt(DAVIDSON) = 12
Energy at sites (4, 5) is -76.1229640473825
   Stats: nIt(DAVIDSON) = 1
Energy at sites (3, 4) is -76.1229640473825
   Stats: nIt(DAVIDSON) = 1
Energy at sites (2, 3) is -76.1229640473825
   Stats: nIt(DAVIDSON) = 1
Energy at sites (1, 2) is -76.1229640473825
******************************************************************
***  Information on left sweep 0 of instruction 0:
***     Elapsed wall time        = 0.17069 seconds
***       |--> S.join            = 0.000202 seconds
***       |--> S.solve           = 0.151594 seconds
***       |--> S.split           = 0.000599 seconds
***       |--> Tensor update     = 0.018205 seconds
***              |--> create     = 0.001265 seconds
***              |--> destroy    = 0.000371 seconds
***              |--> disk write = 0.007184 seconds
***              |--> disk read  = 0.006109 seconds
***              |--> calc       = 0.003269 seconds
***     Disk write bandwidth     = 78.7737109347813 MB/s
***     Disk read  bandwidth     = 93.0676231565365 MB/s
***     Minimum energy           = -76.1229640473825
***     Maximum discarded weight = 0
******************************************************************
   Stats: nIt(DAVIDSON) = 1
Energy at sites (0, 1) is -76.1229640473825
   Stats: nIt(DAVIDSON) = 1
Energy at sites (1, 2) is -76.1229640473825
   Stats: nIt(DAVIDSON) = 1
Energy at sites (2, 3) is -76.1229640473825
   Stats: nIt(DAVIDSON) = 1
Energy at sites (3, 4) is -76.1229640473825
   Stats: nIt(DAVIDSON) = 1
Energy at sites (4, 5) is -76.1229640473825
   Stats: nIt(DAVIDSON) = 1
Energy at sites (5, 6) is -76.1229640473824
   Stats: nIt(DAVIDSON) = 1
Energy at sites (6, 7) is -76.1229640473825
******************************************************************
***  Information on right sweep 0 of instruction 0:
***     Elapsed wall time        = 0.038217 seconds
***       |--> S.join            = 0.0002 seconds
***       |--> S.solve           = 0.019817 seconds
***       |--> S.split           = 0.000583 seconds
***       |--> Tensor update     = 0.017539 seconds
***              |--> create     = 0.001159 seconds
***              |--> destroy    = 0.000363 seconds
***              |--> disk write = 0.006886 seconds
***              |--> disk read  = 0.005871 seconds
***              |--> calc       = 0.003253 seconds
***     Disk write bandwidth     = 82.5660920510138 MB/s
***     Disk read  bandwidth     = 96.390791918833 MB/s
***     Minimum energy           = -76.1229640473825
***     Maximum discarded weight = 0
***     Energy difference with respect to previous leftright sweep = 76.1229640473825
******************************************************************
   Stats: nIt(DAVIDSON) = 1
Energy at sites (7, 8) is -76.1229640473825
   Stats: nIt(DAVIDSON) = 1
Energy at sites (6, 7) is -76.1229640473825
   Stats: nIt(DAVIDSON) = 1
Energy at sites (5, 6) is -76.1229640473824
   Stats: nIt(DAVIDSON) = 1
Energy at sites (4, 5) is -76.1229640473825
   Stats: nIt(DAVIDSON) = 1
Energy at sites (3, 4) is -76.1229640473825
   Stats: nIt(DAVIDSON) = 1
Energy at sites (2, 3) is -76.1229640473825
   Stats: nIt(DAVIDSON) = 1
Energy at sites (1, 2) is -76.1229640473825
******************************************************************
***  Information on left sweep 1 of instruction 0:
***     Elapsed wall time        = 0.040345 seconds
***       |--> S.join            = 0.000206 seconds
***       |--> S.solve           = 0.020243 seconds
***       |--> S.split           = 0.000599 seconds
***       |--> Tensor update     = 0.019227 seconds
***              |--> create     = 0.001308 seconds
***              |--> destroy    = 0.000377 seconds
***              |--> disk write = 0.007073 seconds
***              |--> disk read  = 0.006179 seconds
***              |--> calc       = 0.004282 seconds
***     Disk write bandwidth     = 80.0099447696124 MB/s
***     Disk read  bandwidth     = 92.0132885358927 MB/s
***     Minimum energy           = -76.1229640473825
***     Maximum discarded weight = 0
******************************************************************
   Stats: nIt(DAVIDSON) = 1
Energy at sites (0, 1) is -76.1229640473825
   Stats: nIt(DAVIDSON) = 1
Energy at sites (1, 2) is -76.1229640473825
   Stats: nIt(DAVIDSON) = 1
Energy at sites (2, 3) is -76.1229640473825
   Stats: nIt(DAVIDSON) = 1
Energy at sites (3, 4) is -76.1229640473825
   Stats: nIt(DAVIDSON) = 1
Energy at sites (4, 5) is -76.1229640473825
   Stats: nIt(DAVIDSON) = 1
Energy at sites (5, 6) is -76.1229640473825
   Stats: nIt(DAVIDSON) = 1
Energy at sites (6, 7) is -76.1229640473825
******************************************************************
***  Information on right sweep 1 of instruction 0:
***     Elapsed wall time        = 0.040352 seconds
***       |--> S.join            = 0.000198 seconds
***       |--> S.solve           = 0.020203 seconds
***       |--> S.split           = 0.000582 seconds
***       |--> Tensor update     = 0.019306 seconds
***              |--> create     = 0.001152 seconds
***              |--> destroy    = 0.000358 seconds
***              |--> disk write = 0.007551 seconds
***              |--> disk read  = 0.005828 seconds
***              |--> calc       = 0.004413 seconds
***     Disk write bandwidth     = 75.2946775080494 MB/s
***     Disk read  bandwidth     = 97.1019799854957 MB/s
***     Minimum energy           = -76.1229640473825
***     Maximum discarded weight = 0
***     Energy difference with respect to previous leftright sweep = 2.8421709430404e-14
******************************************************************
***  Information on completed instruction 0:
***     The reduced virtual dimension DSU(2)               = 200
***     The total number of reduced MPS variables          = 2565
***     Minimum energy encountered during all instructions = -76.1229640473825
***     Minimum energy encountered during the last sweep   = -76.1229640473825
***     Maximum discarded weight during the last sweep     = 0
******************************************************************
   Stats: nIt(DAVIDSON) = 1
Energy at sites (7, 8) is -76.1229640473825
   Stats: nIt(DAVIDSON) = 1
Energy at sites (6, 7) is -76.1229640473825
   Stats: nIt(DAVIDSON) = 1
Energy at sites (5, 6) is -76.1229640473825
   Stats: nIt(DAVIDSON) = 1
Energy at sites (4, 5) is -76.1229640473825
   Stats: nIt(DAVIDSON) = 1
Energy at sites (3, 4) is -76.1229640473825
   Stats: nIt(DAVIDSON) = 1
Energy at sites (2, 3) is -76.1229640473825
   Stats: nIt(DAVIDSON) = 1
Energy at sites (1, 2) is -76.1229640473825
******************************************************************
***  Information on left sweep 0 of instruction 1:
***     Elapsed wall time        = 0.039051 seconds
***       |--> S.join            = 0.000201 seconds
***       |--> S.solve           = 0.019737 seconds
***       |--> S.split           = 0.000582 seconds
***       |--> Tensor update     = 0.018473 seconds
***              |--> create     = 0.001159 seconds
***              |--> destroy    = 0.000358 seconds
***              |--> disk write = 0.007084 seconds
***              |--> disk read  = 0.006048 seconds
***              |--> calc       = 0.003811 seconds
***     Disk write bandwidth     = 79.8857057249391 MB/s
***     Disk read  bandwidth     = 94.0063012340081 MB/s
***     Minimum energy           = -76.1229640473825
***     Maximum discarded weight = 0
******************************************************************
   Stats: nIt(DAVIDSON) = 1
Energy at sites (0, 1) is -76.1229640473825
   Stats: nIt(DAVIDSON) = 1
Energy at sites (1, 2) is -76.1229640473825
   Stats: nIt(DAVIDSON) = 1
Energy at sites (2, 3) is -76.1229640473825
   Stats: nIt(DAVIDSON) = 1
Energy at sites (3, 4) is -76.1229640473825
   Stats: nIt(DAVIDSON) = 1
Energy at sites (4, 5) is -76.1229640473825
   Stats: nIt(DAVIDSON) = 1
Energy at sites (5, 6) is -76.1229640473825
   Stats: nIt(DAVIDSON) = 1
Energy at sites (6, 7) is -76.1229640473825
******************************************************************
***  Information on right sweep 0 of instruction 1:
***     Elapsed wall time        = 0.040124 seconds
***       |--> S.join            = 0.000197 seconds
***       |--> S.solve           = 0.019734 seconds
***       |--> S.split           = 0.000576 seconds
***       |--> Tensor update     = 0.019558 seconds
***              |--> create     = 0.001177 seconds
***              |--> destroy    = 0.000355 seconds
***              |--> disk write = 0.007706 seconds
***              |--> disk read  = 0.006007 seconds
***              |--> calc       = 0.004309 seconds
***     Disk write bandwidth     = 73.7801855519441 MB/s
***     Disk read  bandwidth     = 94.2084799992457 MB/s
***     Minimum energy           = -76.1229640473825
***     Maximum discarded weight = 0
***     Energy difference with respect to previous leftright sweep = 2.8421709430404e-14
******************************************************************
***  Information on completed instruction 1:
***     The reduced virtual dimension DSU(2)               = 500
***     The total number of reduced MPS variables          = 2565
***     Minimum energy encountered during all instructions = -76.1229640473825
***     Minimum energy encountered during the last sweep   = -76.1229640473825
***     Maximum discarded weight during the last sweep     = 0
******************************************************************
   Stats: nIt(DAVIDSON) = 1
Energy at sites (7, 8) is -76.1229640473825
   Stats: nIt(DAVIDSON) = 1
Energy at sites (6, 7) is -76.1229640473825
   Stats: nIt(DAVIDSON) = 1
Energy at sites (5, 6) is -76.1229640473825
   Stats: nIt(DAVIDSON) = 1
Energy at sites (4, 5) is -76.1229640473825
   Stats: nIt(DAVIDSON) = 1
Energy at sites (3, 4) is -76.1229640473825
   Stats: nIt(DAVIDSON) = 1
Energy at sites (2, 3) is -76.1229640473825
   Stats: nIt(DAVIDSON) = 1
Energy at sites (1, 2) is -76.1229640473825
******************************************************************
***  Information on left sweep 0 of instruction 2:
***     Elapsed wall time        = 0.03993 seconds
***       |--> S.join            = 0.000204 seconds
***       |--> S.solve           = 0.019765 seconds
***       |--> S.split           = 0.000677 seconds
***       |--> Tensor update     = 0.019224 seconds
***              |--> create     = 0.001225 seconds
***              |--> destroy    = 0.000379 seconds
***              |--> disk write = 0.007695 seconds
***              |--> disk read  = 0.005961 seconds
***              |--> calc       = 0.003953 seconds
***     Disk write bandwidth     = 73.5426042047393 MB/s
***     Disk read  bandwidth     = 95.3783106631909 MB/s
***     Minimum energy           = -76.1229640473825
***     Maximum discarded weight = 0
******************************************************************
   Stats: nIt(DAVIDSON) = 1
Energy at sites (0, 1) is -76.1229640473825
   Stats: nIt(DAVIDSON) = 1
Energy at sites (1, 2) is -76.1229640473825
   Stats: nIt(DAVIDSON) = 1
Energy at sites (2, 3) is -76.1229640473825
   Stats: nIt(DAVIDSON) = 1
Energy at sites (3, 4) is -76.1229640473825
   Stats: nIt(DAVIDSON) = 1
Energy at sites (4, 5) is -76.1229640473825
   Stats: nIt(DAVIDSON) = 1
Energy at sites (5, 6) is -76.1229640473825
   Stats: nIt(DAVIDSON) = 1
Energy at sites (6, 7) is -76.1229640473825
******************************************************************
***  Information on right sweep 0 of instruction 2:
***     Elapsed wall time        = 0.039656 seconds
***       |--> S.join            = 0.000201 seconds
***       |--> S.solve           = 0.020028 seconds
***       |--> S.split           = 0.000592 seconds
***       |--> Tensor update     = 0.018761 seconds
***              |--> create     = 0.001174 seconds
***              |--> destroy    = 0.000376 seconds
***              |--> disk write = 0.007213 seconds
***              |--> disk read  = 0.006012 seconds
***              |--> calc       = 0.003982 seconds
***     Disk write bandwidth     = 78.8229737783559 MB/s
***     Disk read  bandwidth     = 94.1301296333115 MB/s
***     Minimum energy           = -76.1229640473825
***     Maximum discarded weight = 0
***     Energy difference with respect to previous leftright sweep = 0
******************************************************************
***  Information on completed instruction 2:
***     The reduced virtual dimension DSU(2)               = 1000
***     The total number of reduced MPS variables          = 2565
***     Minimum energy encountered during all instructions = -76.1229640473825
***     Minimum energy encountered during the last sweep   = -76.1229640473825
***     Maximum discarded weight during the last sweep     = 0
******************************************************************
   Stats: nIt(DAVIDSON) = 1
Energy at sites (7, 8) is -76.1229640473825
   Stats: nIt(DAVIDSON) = 1
Energy at sites (6, 7) is -76.1229640473825
   Stats: nIt(DAVIDSON) = 1
Energy at sites (5, 6) is -76.1229640473825
   Stats: nIt(DAVIDSON) = 1
Energy at sites (4, 5) is -76.1229640473825
   Stats: nIt(DAVIDSON) = 1
Energy at sites (3, 4) is -76.1229640473825
   Stats: nIt(DAVIDSON) = 1
Energy at sites (2, 3) is -76.1229640473825
   Stats: nIt(DAVIDSON) = 1
Energy at sites (1, 2) is -76.1229640473825
******************************************************************
***  Information on left sweep 0 of instruction 3:
***     Elapsed wall time        = 0.042632 seconds
***       |--> S.join            = 0.000218 seconds
***       |--> S.solve           = 0.021337 seconds
***       |--> S.split           = 0.000667 seconds
***       |--> Tensor update     = 0.020312 seconds
***              |--> create     = 0.001326 seconds
***              |--> destroy    = 0.000447 seconds
***              |--> disk write = 0.007887 seconds
***              |--> disk read  = 0.006925 seconds
***              |--> calc       = 0.003714 seconds
***     Disk write bandwidth     = 71.7522935660541 MB/s
***     Disk read  bandwidth     = 82.1010988972247 MB/s
***     Minimum energy           = -76.1229640473825
***     Maximum discarded weight = 0
******************************************************************
   Stats: nIt(DAVIDSON) = 1
Energy at sites (0, 1) is -76.1229640473825
   Stats: nIt(DAVIDSON) = 1
Energy at sites (1, 2) is -76.1229640473825
   Stats: nIt(DAVIDSON) = 1
Energy at sites (2, 3) is -76.1229640473825
   Stats: nIt(DAVIDSON) = 1
Energy at sites (3, 4) is -76.1229640473825
   Stats: nIt(DAVIDSON) = 1
Energy at sites (4, 5) is -76.1229640473825
   Stats: nIt(DAVIDSON) = 1
Energy at sites (5, 6) is -76.1229640473825
   Stats: nIt(DAVIDSON) = 1
Energy at sites (6, 7) is -76.1229640473825
******************************************************************
***  Information on right sweep 0 of instruction 3:
***     Elapsed wall time        = 0.045318 seconds
***       |--> S.join            = 0.000245 seconds
***       |--> S.solve           = 0.022509 seconds
***       |--> S.split           = 0.000687 seconds
***       |--> Tensor update     = 0.021798 seconds
***              |--> create     = 0.001346 seconds
***              |--> destroy    = 0.00046 seconds
***              |--> disk write = 0.008749 seconds
***              |--> disk read  = 0.007195 seconds
***              |--> calc       = 0.004031 seconds
***     Disk write bandwidth     = 64.9845822223433 MB/s
***     Disk read  bandwidth     = 78.6532785761597 MB/s
***     Minimum energy           = -76.1229640473825
***     Maximum discarded weight = 0
***     Energy difference with respect to previous leftright sweep = 0
******************************************************************
***  Information on completed instruction 3:
***     The reduced virtual dimension DSU(2)               = 1000
***     The total number of reduced MPS variables          = 2565
***     Minimum energy encountered during all instructions = -76.1229640473825
***     Minimum energy encountered during the last sweep   = -76.1229640473825
***     Maximum discarded weight during the last sweep     = 0
******************************************************************


  ==> Energy Summary <==

    Multi.(2ms)  Irrep.  No.               Energy      <S^2>
    --------------------------------------------------------
       1  (  0)    A1     0      -76.122964047383       n/a
    --------------------------------------------------------
   CheMPS2: a spin-adapted implementation of DMRG for ab initio quantum chemistry
   Copyright (C) 2013-2021 Sebastian Wouters

   This program is free software; you can redistribute it and/or modify
   it under the terms of the GNU General Public License as published by
   the Free Software Foundation; either version 2 of the License, or
   (at your option) any later version.

   This program is distributed in the hope that it will be useful,
   but WITHOUT ANY WARRANTY; without even the implied warranty of
   MERCHANTABILITY or FITNESS FOR A PARTICULAR PURPOSE.  See the
   GNU General Public License for more details.

   You should have received a copy of the GNU General Public License along
   with this program; if not, write to the Free Software Foundation, Inc.,
   51 Franklin Street, Fifth Floor, Boston, MA 02110-1301 USA.

Loaded MPS CheMPS2_MPS0.h5 converged y/n? : 0
********************************************
***  2-RDM and Correlations calculation  ***
********************************************
   N(N-1)                     = 56
   Double trace of DMRG 2-RDM = 55.9999999999999
   Econst + 0.5 * trace(2DM-A * Ham) = -76.1229640473824
   NOON of irrep A1 = [ 1.99622885574974 , 1.97473593781088 , 0.0251910875658869 ].
   NOON of irrep B1 = [ 1.97212870069477 , 0.0281523892271008 , 0.00379054143578011 , 0.000322794513717238 ].
   NOON of irrep B2 = [ 1.98347104522436 , 0.0159786477777532 ].
   Single-orbital entropies (Hamiltonian index order is used!) = [ 0.0600479491381542 , 0.0932640497520026 , 0.117363593785501 , 0.124923529279715 , 0.0706389921552496 , 0.0633965821586896 , 0.0469068533759966 , 0.0841191414886934 , 0.082552811314375 ].
   Idistance(0) = 0.692314489620766
   Idistance(1) = 1.62223240911885
   Idistance(2) = 5.80896743837863
***************************************************
***  Timing information 2-RDM and Correlations  ***
***************************************************
***     Elapsed wall time        = 0.050695 seconds
***       |--> MPS gauge change  = 0.000403 seconds
***       |--> Diagram calc      = 0.003338 seconds
***       |--> Tensor update     = 0.046805 seconds
***              |--> create     = 0.002938 seconds
***              |--> destroy    = 0.000968000000000001 seconds
***              |--> disk write = 0.017972 seconds
***              |--> disk read  = 0.015351 seconds
***              |--> calc       = 0.009542 seconds
***     Disk write bandwidth     = 64.261474881065 MB/s
***     Disk read  bandwidth     = 75.2333546063774 MB/s
***************************************************


  ==> Optimizing Orbitals for Current RDMs <==

    L-BFGS Iter:  1; fx =  -76.123531042922934; g_norm = 1.143803e-02; step = 1.000e+00
    L-BFGS Iter:  2; fx =  -76.123660867936294; g_norm = 9.366616e-03; step = 1.000e+00
    L-BFGS Iter:  3; fx =  -76.123749806014672; g_norm = 4.954240e-03; step = 1.000e+00
    L-BFGS Iter:  4; fx =  -76.123873672785891; g_norm = 8.325299e-03; step = 1.000e+00
    L-BFGS Iter:  5; fx =  -76.123974983927326; g_norm = 8.600303e-03; step = 1.000e+00
    L-BFGS Iter:  6; fx =  -76.124100629820830; g_norm = 8.600303e-03; step = 1.000e+00

  ==> MCSCF Macro Iter. 2 <==

             Energy CI (  Delta E  )         Energy Opt. (  Delta E  )  E_OPT - E_CI   Orbital RMS  Micro  DIIS
      -76.122964047383 (-4.4538e-02)    -76.124100629821 (-1.2439e-02)   -1.1366e-03    1.8768e-03    6/N

  ==> Summary of Active Space Solver Input <==

    Irrep.  Multi.(2ms)      N
    --------------------------
       A1      1  (  0)      1
    --------------------------
    N: number of roots
    ms: spin z component
    Total number of roots:   1
    --------------------------


                    ----------------------------------------
                      Density Matrix Renormalization Group
                               Sebastian Wouters
                    ----------------------------------------
MPS files will be dumped to "/Users/york/src/forte/tests/methods/dmrgscf-2/1A1_CAS9"

   CheMPS2: a spin-adapted implementation of DMRG for ab initio quantum chemistry
   Copyright (C) 2013-2021 Sebastian Wouters

   This program is free software; you can redistribute it and/or modify
   it under the terms of the GNU General Public License as published by
   the Free Software Foundation; either version 2 of the License, or
   (at your option) any later version.

   This program is distributed in the hope that it will be useful,
   but WITHOUT ANY WARRANTY; without even the implied warranty of
   MERCHANTABILITY or FITNESS FOR A PARTICULAR PURPOSE.  See the
   GNU General Public License for more details.

   You should have received a copy of the GNU General Public License along
   with this program; if not, write to the Free Software Foundation, Inc.,
   51 Franklin Street, Fifth Floor, Boston, MA 02110-1301 USA.

Loaded MPS CheMPS2_MPS0.h5 converged y/n? : 0

  ==> Computing Energy for Singlet (Ms = 0) A1 <==

   Stats: nIt(DAVIDSON) = 5
Energy at sites (7, 8) is -76.1241207549117
   Stats: nIt(DAVIDSON) = 7
Energy at sites (6, 7) is -76.124189034822
   Stats: nIt(DAVIDSON) = 8
Energy at sites (5, 6) is -76.1243613316236
   Stats: nIt(DAVIDSON) = 10
Energy at sites (4, 5) is -76.1244847128626
   Stats: nIt(DAVIDSON) = 1
Energy at sites (3, 4) is -76.1244847128626
   Stats: nIt(DAVIDSON) = 1
Energy at sites (2, 3) is -76.1244847128626
   Stats: nIt(DAVIDSON) = 1
Energy at sites (1, 2) is -76.1244847128626
******************************************************************
***  Information on left sweep 0 of instruction 0:
***     Elapsed wall time        = 0.146898 seconds
***       |--> S.join            = 0.000206 seconds
***       |--> S.solve           = 0.127229 seconds
***       |--> S.split           = 0.000611 seconds
***       |--> Tensor update     = 0.01876 seconds
***              |--> create     = 0.00122 seconds
***              |--> destroy    = 0.000378 seconds
***              |--> disk write = 0.007485 seconds
***              |--> disk read  = 0.00601 seconds
***              |--> calc       = 0.003661 seconds
***     Disk write bandwidth     = 75.6059237615857 MB/s
***     Disk read  bandwidth     = 94.6006838374844 MB/s
***     Minimum energy           = -76.1244847128626
***     Maximum discarded weight = 0
******************************************************************
   Stats: nIt(DAVIDSON) = 1
Energy at sites (0, 1) is -76.1244847128626
   Stats: nIt(DAVIDSON) = 1
Energy at sites (1, 2) is -76.1244847128626
   Stats: nIt(DAVIDSON) = 1
Energy at sites (2, 3) is -76.1244847128626
   Stats: nIt(DAVIDSON) = 1
Energy at sites (3, 4) is -76.1244847128626
   Stats: nIt(DAVIDSON) = 1
Energy at sites (4, 5) is -76.1244847128626
   Stats: nIt(DAVIDSON) = 1
Energy at sites (5, 6) is -76.1244847128626
   Stats: nIt(DAVIDSON) = 1
Energy at sites (6, 7) is -76.1244847128626
******************************************************************
***  Information on right sweep 0 of instruction 0:
***     Elapsed wall time        = 0.03825 seconds
***       |--> S.join            = 0.000199 seconds
***       |--> S.solve           = 0.01993 seconds
***       |--> S.split           = 0.000579 seconds
***       |--> Tensor update     = 0.017464 seconds
***              |--> create     = 0.001169 seconds
***              |--> destroy    = 0.000349 seconds
***              |--> disk write = 0.006865 seconds
***              |--> disk read  = 0.00589 seconds
***              |--> calc       = 0.003184 seconds
***     Disk write bandwidth     = 82.8186613056491 MB/s
***     Disk read  bandwidth     = 96.0798538803852 MB/s
***     Minimum energy           = -76.1244847128626
***     Maximum discarded weight = 0
***     Energy difference with respect to previous leftright sweep = 76.1244847128626
******************************************************************
   Stats: nIt(DAVIDSON) = 1
Energy at sites (7, 8) is -76.1244847128626
   Stats: nIt(DAVIDSON) = 1
Energy at sites (6, 7) is -76.1244847128626
   Stats: nIt(DAVIDSON) = 1
Energy at sites (5, 6) is -76.1244847128626
   Stats: nIt(DAVIDSON) = 1
Energy at sites (4, 5) is -76.1244847128626
   Stats: nIt(DAVIDSON) = 1
Energy at sites (3, 4) is -76.1244847128626
   Stats: nIt(DAVIDSON) = 1
Energy at sites (2, 3) is -76.1244847128626
   Stats: nIt(DAVIDSON) = 1
Energy at sites (1, 2) is -76.1244847128626
******************************************************************
***  Information on left sweep 1 of instruction 0:
***     Elapsed wall time        = 0.041927 seconds
***       |--> S.join            = 0.00023 seconds
***       |--> S.solve           = 0.021009 seconds
***       |--> S.split           = 0.000623 seconds
***       |--> Tensor update     = 0.019983 seconds
***              |--> create     = 0.001319 seconds
***              |--> destroy    = 0.000412 seconds
***              |--> disk write = 0.007742 seconds
***              |--> disk read  = 0.006745 seconds
***              |--> calc       = 0.003756 seconds
***     Disk write bandwidth     = 73.0961430322228 MB/s
***     Disk read  bandwidth     = 84.2920844867726 MB/s
***     Minimum energy           = -76.1244847128626
***     Maximum discarded weight = 0
******************************************************************
   Stats: nIt(DAVIDSON) = 1
Energy at sites (0, 1) is -76.1244847128626
   Stats: nIt(DAVIDSON) = 1
Energy at sites (1, 2) is -76.1244847128626
   Stats: nIt(DAVIDSON) = 1
Energy at sites (2, 3) is -76.1244847128626
   Stats: nIt(DAVIDSON) = 1
Energy at sites (3, 4) is -76.1244847128626
   Stats: nIt(DAVIDSON) = 1
Energy at sites (4, 5) is -76.1244847128626
   Stats: nIt(DAVIDSON) = 1
Energy at sites (5, 6) is -76.1244847128626
   Stats: nIt(DAVIDSON) = 1
Energy at sites (6, 7) is -76.1244847128626
******************************************************************
***  Information on right sweep 1 of instruction 0:
***     Elapsed wall time        = 0.041803 seconds
***       |--> S.join            = 0.000206 seconds
***       |--> S.solve           = 0.020265 seconds
***       |--> S.split           = 0.000599 seconds
***       |--> Tensor update     = 0.020667 seconds
***              |--> create     = 0.001202 seconds
***              |--> destroy    = 0.000397 seconds
***              |--> disk write = 0.007976 seconds
***              |--> disk read  = 0.006317 seconds
***              |--> calc       = 0.004765 seconds
***     Disk write bandwidth     = 71.282611567613 MB/s
***     Disk read  bandwidth     = 89.5852998821385 MB/s
***     Minimum energy           = -76.1244847128626
***     Maximum discarded weight = 0
***     Energy difference with respect to previous leftright sweep = 0
******************************************************************
***  Information on completed instruction 0:
***     The reduced virtual dimension DSU(2)               = 200
***     The total number of reduced MPS variables          = 2565
***     Minimum energy encountered during all instructions = -76.1244847128626
***     Minimum energy encountered during the last sweep   = -76.1244847128626
***     Maximum discarded weight during the last sweep     = 0
******************************************************************
   Stats: nIt(DAVIDSON) = 1
Energy at sites (7, 8) is -76.1244847128626
   Stats: nIt(DAVIDSON) = 1
Energy at sites (6, 7) is -76.1244847128626
   Stats: nIt(DAVIDSON) = 1
Energy at sites (5, 6) is -76.1244847128626
   Stats: nIt(DAVIDSON) = 1
Energy at sites (4, 5) is -76.1244847128626
   Stats: nIt(DAVIDSON) = 1
Energy at sites (3, 4) is -76.1244847128626
   Stats: nIt(DAVIDSON) = 1
Energy at sites (2, 3) is -76.1244847128626
   Stats: nIt(DAVIDSON) = 1
Energy at sites (1, 2) is -76.1244847128626
******************************************************************
***  Information on left sweep 0 of instruction 1:
***     Elapsed wall time        = 0.041253 seconds
***       |--> S.join            = 0.000219 seconds
***       |--> S.solve           = 0.020278 seconds
***       |--> S.split           = 0.000605 seconds
***       |--> Tensor update     = 0.020082 seconds
***              |--> create     = 0.001223 seconds
***              |--> destroy    = 0.000427 seconds
***              |--> disk write = 0.008184 seconds
***              |--> disk read  = 0.006437 seconds
***              |--> calc       = 0.0038 seconds
***     Disk write bandwidth     = 69.1483796866409 MB/s
***     Disk read  bandwidth     = 88.3253238874136 MB/s
***     Minimum energy           = -76.1244847128626
***     Maximum discarded weight = 0
******************************************************************
   Stats: nIt(DAVIDSON) = 1
Energy at sites (0, 1) is -76.1244847128626
   Stats: nIt(DAVIDSON) = 1
Energy at sites (1, 2) is -76.1244847128626
   Stats: nIt(DAVIDSON) = 1
Energy at sites (2, 3) is -76.1244847128626
   Stats: nIt(DAVIDSON) = 1
Energy at sites (3, 4) is -76.1244847128626
   Stats: nIt(DAVIDSON) = 1
Energy at sites (4, 5) is -76.1244847128626
   Stats: nIt(DAVIDSON) = 1
Energy at sites (5, 6) is -76.1244847128626
   Stats: nIt(DAVIDSON) = 1
Energy at sites (6, 7) is -76.1244847128626
******************************************************************
***  Information on right sweep 0 of instruction 1:
***     Elapsed wall time        = 0.040001 seconds
***       |--> S.join            = 0.000204 seconds
***       |--> S.solve           = 0.020133 seconds
***       |--> S.split           = 0.000594 seconds
***       |--> Tensor update     = 0.019008 seconds
***              |--> create     = 0.001187 seconds
***              |--> destroy    = 0.000375 seconds
***              |--> disk write = 0.007196 seconds
***              |--> disk read  = 0.006156 seconds
***              |--> calc       = 0.004083 seconds
***     Disk write bandwidth     = 79.0091870293609 MB/s
***     Disk read  bandwidth     = 91.9282552559241 MB/s
***     Minimum energy           = -76.1244847128626
***     Maximum discarded weight = 0
***     Energy difference with respect to previous leftright sweep = 0
******************************************************************
***  Information on completed instruction 1:
***     The reduced virtual dimension DSU(2)               = 500
***     The total number of reduced MPS variables          = 2565
***     Minimum energy encountered during all instructions = -76.1244847128626
***     Minimum energy encountered during the last sweep   = -76.1244847128626
***     Maximum discarded weight during the last sweep     = 0
******************************************************************
   Stats: nIt(DAVIDSON) = 1
Energy at sites (7, 8) is -76.1244847128626
   Stats: nIt(DAVIDSON) = 1
Energy at sites (6, 7) is -76.1244847128626
   Stats: nIt(DAVIDSON) = 1
Energy at sites (5, 6) is -76.1244847128626
   Stats: nIt(DAVIDSON) = 1
Energy at sites (4, 5) is -76.1244847128626
   Stats: nIt(DAVIDSON) = 1
Energy at sites (3, 4) is -76.1244847128626
   Stats: nIt(DAVIDSON) = 1
Energy at sites (2, 3) is -76.1244847128626
   Stats: nIt(DAVIDSON) = 1
Energy at sites (1, 2) is -76.1244847128626
******************************************************************
***  Information on left sweep 0 of instruction 2:
***     Elapsed wall time        = 0.03969 seconds
***       |--> S.join            = 0.000211 seconds
***       |--> S.solve           = 0.020034 seconds
***       |--> S.split           = 0.000595 seconds
***       |--> Tensor update     = 0.01879 seconds
***              |--> create     = 0.001196 seconds
***              |--> destroy    = 0.000378 seconds
***              |--> disk write = 0.007257 seconds
***              |--> disk read  = 0.00634 seconds
***              |--> calc       = 0.00361 seconds
***     Disk write bandwidth     = 77.9813062361125 MB/s
***     Disk read  bandwidth     = 89.6766734800128 MB/s
***     Minimum energy           = -76.1244847128626
***     Maximum discarded weight = 0
******************************************************************
   Stats: nIt(DAVIDSON) = 1
Energy at sites (0, 1) is -76.1244847128626
   Stats: nIt(DAVIDSON) = 1
Energy at sites (1, 2) is -76.1244847128626
   Stats: nIt(DAVIDSON) = 1
Energy at sites (2, 3) is -76.1244847128626
   Stats: nIt(DAVIDSON) = 1
Energy at sites (3, 4) is -76.1244847128626
   Stats: nIt(DAVIDSON) = 1
Energy at sites (4, 5) is -76.1244847128626
   Stats: nIt(DAVIDSON) = 1
Energy at sites (5, 6) is -76.1244847128626
   Stats: nIt(DAVIDSON) = 1
Energy at sites (6, 7) is -76.1244847128626
******************************************************************
***  Information on right sweep 0 of instruction 2:
***     Elapsed wall time        = 0.040771 seconds
***       |--> S.join            = 0.000228 seconds
***       |--> S.solve           = 0.020897 seconds
***       |--> S.split           = 0.000607 seconds
***       |--> Tensor update     = 0.018972 seconds
***              |--> create     = 0.00119 seconds
***              |--> destroy    = 0.000396 seconds
***              |--> disk write = 0.00752900000000004 seconds
***              |--> disk read  = 0.006457 seconds
***              |--> calc       = 0.003389 seconds
***     Disk write bandwidth     = 75.5146911758903 MB/s
***     Disk read  bandwidth     = 87.642920761262 MB/s
***     Minimum energy           = -76.1244847128626
***     Maximum discarded weight = 0
***     Energy difference with respect to previous leftright sweep = 1.4210854715202e-14
******************************************************************
***  Information on completed instruction 2:
***     The reduced virtual dimension DSU(2)               = 1000
***     The total number of reduced MPS variables          = 2565
***     Minimum energy encountered during all instructions = -76.1244847128626
***     Minimum energy encountered during the last sweep   = -76.1244847128626
***     Maximum discarded weight during the last sweep     = 0
******************************************************************
   Stats: nIt(DAVIDSON) = 1
Energy at sites (7, 8) is -76.1244847128626
   Stats: nIt(DAVIDSON) = 1
Energy at sites (6, 7) is -76.1244847128626
   Stats: nIt(DAVIDSON) = 1
Energy at sites (5, 6) is -76.1244847128626
   Stats: nIt(DAVIDSON) = 1
Energy at sites (4, 5) is -76.1244847128626
   Stats: nIt(DAVIDSON) = 1
Energy at sites (3, 4) is -76.1244847128626
   Stats: nIt(DAVIDSON) = 1
Energy at sites (2, 3) is -76.1244847128626
   Stats: nIt(DAVIDSON) = 1
Energy at sites (1, 2) is -76.1244847128626
******************************************************************
***  Information on left sweep 0 of instruction 3:
***     Elapsed wall time        = 0.042104 seconds
***       |--> S.join            = 0.000215 seconds
***       |--> S.solve           = 0.020259 seconds
***       |--> S.split           = 0.000624 seconds
***       |--> Tensor update     = 0.020928 seconds
***              |--> create     = 0.001189 seconds
***              |--> destroy    = 0.000406 seconds
***              |--> disk write = 0.007776 seconds
***              |--> disk read  = 0.006419 seconds
***              |--> calc       = 0.005133 seconds
***     Disk write bandwidth     = 72.7765354109399 MB/s
***     Disk read  bandwidth     = 88.5730035618136 MB/s
***     Minimum energy           = -76.1244847128626
***     Maximum discarded weight = 0
******************************************************************
   Stats: nIt(DAVIDSON) = 1
Energy at sites (0, 1) is -76.1244847128626
   Stats: nIt(DAVIDSON) = 1
Energy at sites (1, 2) is -76.1244847128626
   Stats: nIt(DAVIDSON) = 1
Energy at sites (2, 3) is -76.1244847128626
   Stats: nIt(DAVIDSON) = 1
Energy at sites (3, 4) is -76.1244847128626
   Stats: nIt(DAVIDSON) = 1
Energy at sites (4, 5) is -76.1244847128626
   Stats: nIt(DAVIDSON) = 1
Energy at sites (5, 6) is -76.1244847128626
   Stats: nIt(DAVIDSON) = 1
Energy at sites (6, 7) is -76.1244847128626
******************************************************************
***  Information on right sweep 0 of instruction 3:
***     Elapsed wall time        = 0.04221 seconds
***       |--> S.join            = 0.000207 seconds
***       |--> S.solve           = 0.02011 seconds
***       |--> S.split           = 0.000611 seconds
***       |--> Tensor update     = 0.021207 seconds
***              |--> create     = 0.001188 seconds
***              |--> destroy    = 0.000395 seconds
***              |--> disk write = 0.007707 seconds
***              |--> disk read  = 0.006534 seconds
***              |--> calc       = 0.005377 seconds
***     Disk write bandwidth     = 73.7706124125186 MB/s
***     Disk read  bandwidth     = 86.6100917287219 MB/s
***     Minimum energy           = -76.1244847128626
***     Maximum discarded weight = 0
***     Energy difference with respect to previous leftright sweep = 0
******************************************************************
***  Information on completed instruction 3:
***     The reduced virtual dimension DSU(2)               = 1000
***     The total number of reduced MPS variables          = 2565
***     Minimum energy encountered during all instructions = -76.1244847128626
***     Minimum energy encountered during the last sweep   = -76.1244847128626
***     Maximum discarded weight during the last sweep     = 0
******************************************************************


  ==> Energy Summary <==

    Multi.(2ms)  Irrep.  No.               Energy      <S^2>
    --------------------------------------------------------
       1  (  0)    A1     0      -76.124484712863       n/a
    --------------------------------------------------------
   CheMPS2: a spin-adapted implementation of DMRG for ab initio quantum chemistry
   Copyright (C) 2013-2021 Sebastian Wouters

   This program is free software; you can redistribute it and/or modify
   it under the terms of the GNU General Public License as published by
   the Free Software Foundation; either version 2 of the License, or
   (at your option) any later version.

   This program is distributed in the hope that it will be useful,
   but WITHOUT ANY WARRANTY; without even the implied warranty of
   MERCHANTABILITY or FITNESS FOR A PARTICULAR PURPOSE.  See the
   GNU General Public License for more details.

   You should have received a copy of the GNU General Public License along
   with this program; if not, write to the Free Software Foundation, Inc.,
   51 Franklin Street, Fifth Floor, Boston, MA 02110-1301 USA.

Loaded MPS CheMPS2_MPS0.h5 converged y/n? : 0
********************************************
***  2-RDM and Correlations calculation  ***
********************************************
   N(N-1)                     = 56
   Double trace of DMRG 2-RDM = 56.0000000000001
   Econst + 0.5 * trace(2DM-A * Ham) = -76.1244847128627
   NOON of irrep A1 = [ 1.99602326624172 , 1.97321885510653 , 0.0268612105251446 ].
   NOON of irrep B1 = [ 1.97131166095642 , 0.0290247920226675 , 0.00352942773352286 , 0.000580884715554911 ].
   NOON of irrep B2 = [ 1.98342798311405 , 0.0160219195844063 ].
   Single-orbital entropies (Hamiltonian index order is used!) = [ 0.0605702768654654 , 0.100530243436404 , 0.123158927431175 , 0.128134690560094 , 0.0736517865972455 , 0.0639145942861954 , 0.047642981900229 , 0.0843823268314786 , 0.0828154697189338 ].
   Idistance(0) = 0.710395558305002
   Idistance(1) = 1.65079865256207
   Idistance(2) = 5.88393989903674
***************************************************
***  Timing information 2-RDM and Correlations  ***
***************************************************
***     Elapsed wall time        = 0.051774 seconds
***       |--> MPS gauge change  = 0.000388 seconds
***       |--> Diagram calc      = 0.003175 seconds
***       |--> Tensor update     = 0.048083 seconds
***              |--> create     = 0.002924 seconds
***              |--> destroy    = 0.000963000000000001 seconds
***              |--> disk write = 0.021305 seconds
***              |--> disk read  = 0.015417 seconds
***              |--> calc       = 0.007448 seconds
***     Disk write bandwidth     = 54.2082716058437 MB/s
***     Disk read  bandwidth     = 74.9112814790491 MB/s
***************************************************


  ==> Optimizing Orbitals for Current RDMs <==

    L-BFGS Iter:  1; fx =  -76.124574859570146; g_norm = 4.451448e-03; step = 1.000e+00
    L-BFGS Iter:  2; fx =  -76.124619043005538; g_norm = 4.593043e-03; step = 1.000e+00
[...]
      15     -76.126589534033 -3.1178e-09    -76.126589534682 -1.4134e-09  1.9223e-06     6
      16     -76.126589534887 -8.5487e-10    -76.126589535080 -3.9877e-10  8.9133e-07     6
      17     -76.126589535146 -2.5840e-10    -76.126589535199 -1.1872e-10  5.8862e-07     6
      18     -76.126589535217 -7.1068e-11    -76.126589535232 -3.2898e-11  2.1014e-07     6
      19     -76.126589535245 -2.7782e-11    -76.126589535245 -1.2932e-11  1.8382e-07     1
    ----------------------------------------------------------------------------------------

  ==> Semicanonicalize Orbitals <==

    MIX INACTIVE ORBITALS   ...... FALSE
    MIX GAS ACTIVE ORBITALS ...... FALSE
    FROZEN_DOCC     ...  CANONICAL
    FROZEN_UOCC     ...  CANONICAL
    GAS1            ...  CANONICAL
    RESTRICTED_DOCC ...  CANONICAL
    RESTRICTED_UOCC ...  CANONICAL

    Off-Diag. Elements       Max           2-Norm
    ------------------------------------------------
    GAS1                 1.0455701419   1.5440477185
    RESTRICTED_DOCC      0.0000000000   0.0000000000
    RESTRICTED_UOCC      0.3733921200   0.9120726788
    ------------------------------------------------
  Timing for orbital canonicalization:                        0.000 s.

  !!! WARNING: Final Active Orbitals Maybe Different from the Original !!!

    Based on projections of maximum overlap method:
          3A1 -> 4A1       RESTRICTED_UOCC
          3B1 -> 5B1       RESTRICTED_UOCC

  ==> Summary of Active Space Solver Input <==

    Irrep.  Multi.(2ms)      N
    --------------------------
       A1      1  (  0)      1
    --------------------------
    N: number of roots
    ms: spin z component
    Total number of roots:   1
    --------------------------


                    ----------------------------------------
                      Density Matrix Renormalization Group
                               Sebastian Wouters
                    ----------------------------------------
MPS files will be dumped to "/Users/york/src/forte/tests/methods/dmrgscf-2/1A1_CAS9"

   CheMPS2: a spin-adapted implementation of DMRG for ab initio quantum chemistry
   Copyright (C) 2013-2021 Sebastian Wouters

   This program is free software; you can redistribute it and/or modify
   it under the terms of the GNU General Public License as published by
   the Free Software Foundation; either version 2 of the License, or
   (at your option) any later version.

   This program is distributed in the hope that it will be useful,
   but WITHOUT ANY WARRANTY; without even the implied warranty of
   MERCHANTABILITY or FITNESS FOR A PARTICULAR PURPOSE.  See the
   GNU General Public License for more details.

   You should have received a copy of the GNU General Public License along
   with this program; if not, write to the Free Software Foundation, Inc.,
   51 Franklin Street, Fifth Floor, Boston, MA 02110-1301 USA.


  ==> Computing Energy for Singlet (Ms = 0) A1 <==

   Stats: nIt(DAVIDSON) = 11
Energy at sites (7, 8) is -71.1944710158896
   Stats: nIt(DAVIDSON) = 11
Energy at sites (6, 7) is -72.7940956035745
   Stats: nIt(DAVIDSON) = 25
Energy at sites (5, 6) is -73.6512495386077
   Stats: nIt(DAVIDSON) = 20
Energy at sites (4, 5) is -76.1265895352448
   Stats: nIt(DAVIDSON) = 1
Energy at sites (3, 4) is -76.1265895352448
   Stats: nIt(DAVIDSON) = 1
Energy at sites (2, 3) is -76.1265895352448
   Stats: nIt(DAVIDSON) = 1
Energy at sites (1, 2) is -76.1265895352448
******************************************************************
***  Information on left sweep 0 of instruction 0:
***     Elapsed wall time        = 0.298306 seconds
***       |--> S.join            = 0.000245 seconds
***       |--> S.solve           = 0.276646 seconds
***       |--> S.split           = 0.000622 seconds
***       |--> Tensor update     = 0.02069 seconds
***              |--> create     = 0.001235 seconds
***              |--> destroy    = 0.000448 seconds
***              |--> disk write = 0.007848 seconds
***              |--> disk read  = 0.006605 seconds
***              |--> calc       = 0.004541 seconds
***     Disk write bandwidth     = 72.1088607741423 MB/s
***     Disk read  bandwidth     = 86.0787448695354 MB/s
***     Minimum energy           = -76.1265895352448
***     Maximum discarded weight = 0
******************************************************************
   Stats: nIt(DAVIDSON) = 1
Energy at sites (0, 1) is -76.1265895352448
   Stats: nIt(DAVIDSON) = 1
Energy at sites (1, 2) is -76.1265895352448
   Stats: nIt(DAVIDSON) = 1
Energy at sites (2, 3) is -76.1265895352448
   Stats: nIt(DAVIDSON) = 1
Energy at sites (3, 4) is -76.1265895352448
   Stats: nIt(DAVIDSON) = 1
Energy at sites (4, 5) is -76.1265895352448
   Stats: nIt(DAVIDSON) = 1
Energy at sites (5, 6) is -76.1265895352448
   Stats: nIt(DAVIDSON) = 1
Energy at sites (6, 7) is -76.1265895352448
******************************************************************
***  Information on right sweep 0 of instruction 0:
***     Elapsed wall time        = 0.041771 seconds
***       |--> S.join            = 0.000203 seconds
***       |--> S.solve           = 0.020642 seconds
***       |--> S.split           = 0.000614 seconds
***       |--> Tensor update     = 0.02023 seconds
***              |--> create     = 0.001204 seconds
***              |--> destroy    = 0.000379 seconds
***              |--> disk write = 0.00737 seconds
***              |--> disk read  = 0.006049 seconds
***              |--> calc       = 0.00522 seconds
***     Disk write bandwidth     = 77.1438412297532 MB/s
***     Disk read  bandwidth     = 93.5543625980276 MB/s
***     Minimum energy           = -76.1265895352448
***     Maximum discarded weight = 0
***     Energy difference with respect to previous leftright sweep = 76.1265895352448
******************************************************************
   Stats: nIt(DAVIDSON) = 1
Energy at sites (7, 8) is -76.1265895352448
   Stats: nIt(DAVIDSON) = 1
Energy at sites (6, 7) is -76.1265895352448
   Stats: nIt(DAVIDSON) = 1
Energy at sites (5, 6) is -76.1265895352448
   Stats: nIt(DAVIDSON) = 1
Energy at sites (4, 5) is -76.1265895352448
   Stats: nIt(DAVIDSON) = 1
Energy at sites (3, 4) is -76.1265895352448
   Stats: nIt(DAVIDSON) = 1
Energy at sites (2, 3) is -76.1265895352448
   Stats: nIt(DAVIDSON) = 1
Energy at sites (1, 2) is -76.1265895352448
******************************************************************
***  Information on left sweep 1 of instruction 0:
***     Elapsed wall time        = 0.040229 seconds
***       |--> S.join            = 0.000212 seconds
***       |--> S.solve           = 0.020274 seconds
***       |--> S.split           = 0.000606 seconds
***       |--> Tensor update     = 0.019042 seconds
***              |--> create     = 0.00122 seconds
***              |--> destroy    = 0.000407 seconds
***              |--> disk write = 0.007995 seconds
***              |--> disk read  = 0.006142 seconds
***              |--> calc       = 0.003265 seconds
***     Disk write bandwidth     = 70.7830318143176 MB/s
***     Disk read  bandwidth     = 92.5675854547837 MB/s
***     Minimum energy           = -76.1265895352448
***     Maximum discarded weight = 0
******************************************************************
   Stats: nIt(DAVIDSON) = 1
Energy at sites (0, 1) is -76.1265895352448
   Stats: nIt(DAVIDSON) = 1
Energy at sites (1, 2) is -76.1265895352448
   Stats: nIt(DAVIDSON) = 1
Energy at sites (2, 3) is -76.1265895352448
   Stats: nIt(DAVIDSON) = 1
Energy at sites (3, 4) is -76.1265895352448
   Stats: nIt(DAVIDSON) = 1
Energy at sites (4, 5) is -76.1265895352448
   Stats: nIt(DAVIDSON) = 1
Energy at sites (5, 6) is -76.1265895352448
   Stats: nIt(DAVIDSON) = 1
Energy at sites (6, 7) is -76.1265895352448
******************************************************************
***  Information on right sweep 1 of instruction 0:
***     Elapsed wall time        = 0.04134 seconds
***       |--> S.join            = 0.000206 seconds
***       |--> S.solve           = 0.02034 seconds
***       |--> S.split           = 0.000666 seconds
***       |--> Tensor update     = 0.020045 seconds
***              |--> create     = 0.001199 seconds
***              |--> destroy    = 0.000401 seconds
***              |--> disk write = 0.008937 seconds
***              |--> disk read  = 0.006061 seconds
***              |--> calc       = 0.003436 seconds
***     Disk write bandwidth     = 63.6175573305675 MB/s
***     Disk read  bandwidth     = 93.3691369997474 MB/s
***     Minimum energy           = -76.1265895352448
***     Maximum discarded weight = 0
***     Energy difference with respect to previous leftright sweep = 0
******************************************************************
***  Information on completed instruction 0:
***     The reduced virtual dimension DSU(2)               = 200
***     The total number of reduced MPS variables          = 2565
***     Minimum energy encountered during all instructions = -76.1265895352448
***     Minimum energy encountered during the last sweep   = -76.1265895352448
***     Maximum discarded weight during the last sweep     = 0
******************************************************************
   Stats: nIt(DAVIDSON) = 1
Energy at sites (7, 8) is -76.1265895352448
   Stats: nIt(DAVIDSON) = 1
Energy at sites (6, 7) is -76.1265895352448
   Stats: nIt(DAVIDSON) = 1
Energy at sites (5, 6) is -76.1265895352448
   Stats: nIt(DAVIDSON) = 1
Energy at sites (4, 5) is -76.1265895352448
   Stats: nIt(DAVIDSON) = 1
Energy at sites (3, 4) is -76.1265895352448
   Stats: nIt(DAVIDSON) = 1
Energy at sites (2, 3) is -76.1265895352448
   Stats: nIt(DAVIDSON) = 1
Energy at sites (1, 2) is -76.1265895352448
******************************************************************
***  Information on left sweep 0 of instruction 1:
***     Elapsed wall time        = 0.04233 seconds
***       |--> S.join            = 0.000218 seconds
***       |--> S.solve           = 0.020726 seconds
***       |--> S.split           = 0.000618 seconds
***       |--> Tensor update     = 0.020694 seconds
***              |--> create     = 0.001328 seconds
***              |--> destroy    = 0.000465 seconds
***              |--> disk write = 0.00879 seconds
***              |--> disk read  = 0.006482 seconds
***              |--> calc       = 0.00361800000000004 seconds
***     Disk write bandwidth     = 64.3811535102922 MB/s
***     Disk read  bandwidth     = 87.7121428360508 MB/s
***     Minimum energy           = -76.1265895352448
***     Maximum discarded weight = 0
******************************************************************
   Stats: nIt(DAVIDSON) = 1
Energy at sites (0, 1) is -76.1265895352448
   Stats: nIt(DAVIDSON) = 1
Energy at sites (1, 2) is -76.1265895352448
   Stats: nIt(DAVIDSON) = 1
Energy at sites (2, 3) is -76.1265895352448
   Stats: nIt(DAVIDSON) = 1
Energy at sites (3, 4) is -76.1265895352448
   Stats: nIt(DAVIDSON) = 1
Energy at sites (4, 5) is -76.1265895352448
   Stats: nIt(DAVIDSON) = 1
Energy at sites (5, 6) is -76.1265895352448
   Stats: nIt(DAVIDSON) = 1
Energy at sites (6, 7) is -76.1265895352448
******************************************************************
***  Information on right sweep 0 of instruction 1:
***     Elapsed wall time        = 0.042589 seconds
***       |--> S.join            = 0.000202 seconds
***       |--> S.solve           = 0.021421 seconds
***       |--> S.split           = 0.000614 seconds
***       |--> Tensor update     = 0.020281 seconds
***              |--> create     = 0.001206 seconds
***              |--> destroy    = 0.00039 seconds
***              |--> disk write = 0.00785 seconds
***              |--> disk read  = 0.006252 seconds
***              |--> calc       = 0.00457 seconds
***     Disk write bandwidth     = 72.4267655876791 MB/s
***     Disk read  bandwidth     = 90.516688956409 MB/s
***     Minimum energy           = -76.1265895352448
***     Maximum discarded weight = 0
***     Energy difference with respect to previous leftright sweep = 1.4210854715202e-14
******************************************************************
***  Information on completed instruction 1:
***     The reduced virtual dimension DSU(2)               = 500
***     The total number of reduced MPS variables          = 2565
***     Minimum energy encountered during all instructions = -76.1265895352448
***     Minimum energy encountered during the last sweep   = -76.1265895352448
***     Maximum discarded weight during the last sweep     = 0
******************************************************************
   Stats: nIt(DAVIDSON) = 1
Energy at sites (7, 8) is -76.1265895352448
   Stats: nIt(DAVIDSON) = 1
Energy at sites (6, 7) is -76.1265895352448
   Stats: nIt(DAVIDSON) = 1
Energy at sites (5, 6) is -76.1265895352448
   Stats: nIt(DAVIDSON) = 1
Energy at sites (4, 5) is -76.1265895352448
   Stats: nIt(DAVIDSON) = 1
Energy at sites (3, 4) is -76.1265895352448
   Stats: nIt(DAVIDSON) = 1
Energy at sites (2, 3) is -76.1265895352448
   Stats: nIt(DAVIDSON) = 1
Energy at sites (1, 2) is -76.1265895352448
******************************************************************
***  Information on left sweep 0 of instruction 2:
***     Elapsed wall time        = 0.077726 seconds
***       |--> S.join            = 0.000291 seconds
***       |--> S.solve           = 0.049823 seconds
***       |--> S.split           = 0.000945 seconds
***       |--> Tensor update     = 0.026541 seconds
***              |--> create     = 0.001697 seconds
***              |--> destroy    = 0.000539 seconds
***              |--> disk write = 0.010626 seconds
***              |--> disk read  = 0.007826 seconds
***              |--> calc       = 0.00584 seconds
***     Disk write bandwidth     = 53.2571371499594 MB/s
***     Disk read  bandwidth     = 72.6488768033838 MB/s
***     Minimum energy           = -76.1265895352448
***     Maximum discarded weight = 0
******************************************************************
   Stats: nIt(DAVIDSON) = 1
Energy at sites (0, 1) is -76.1265895352448
   Stats: nIt(DAVIDSON) = 1
Energy at sites (1, 2) is -76.1265895352448
   Stats: nIt(DAVIDSON) = 1
Energy at sites (2, 3) is -76.1265895352448
   Stats: nIt(DAVIDSON) = 1
Energy at sites (3, 4) is -76.1265895352448
   Stats: nIt(DAVIDSON) = 1
Energy at sites (4, 5) is -76.1265895352448
   Stats: nIt(DAVIDSON) = 1
Energy at sites (5, 6) is -76.1265895352448
   Stats: nIt(DAVIDSON) = 1
Energy at sites (6, 7) is -76.1265895352448
******************************************************************
***  Information on right sweep 0 of instruction 2:
***     Elapsed wall time        = 0.045411 seconds
***       |--> S.join            = 0.000234 seconds
***       |--> S.solve           = 0.021602 seconds
***       |--> S.split           = 0.000661 seconds
***       |--> Tensor update     = 0.022839 seconds
***              |--> create     = 0.001353 seconds
***              |--> destroy    = 0.000477 seconds
***              |--> disk write = 0.009811 seconds
***              |--> disk read  = 0.00717 seconds
***              |--> calc       = 0.004012 seconds
***     Disk write bandwidth     = 57.950271110313 MB/s
***     Disk read  bandwidth     = 78.9275229226595 MB/s
***     Minimum energy           = -76.1265895352448
***     Maximum discarded weight = 0
***     Energy difference with respect to previous leftright sweep = 0
******************************************************************
***  Information on completed instruction 2:
***     The reduced virtual dimension DSU(2)               = 1000
***     The total number of reduced MPS variables          = 2565
***     Minimum energy encountered during all instructions = -76.1265895352448
***     Minimum energy encountered during the last sweep   = -76.1265895352448
***     Maximum discarded weight during the last sweep     = 0
******************************************************************
   Stats: nIt(DAVIDSON) = 1
Energy at sites (7, 8) is -76.1265895352448
   Stats: nIt(DAVIDSON) = 1
Energy at sites (6, 7) is -76.1265895352448
   Stats: nIt(DAVIDSON) = 1
Energy at sites (5, 6) is -76.1265895352448
   Stats: nIt(DAVIDSON) = 1
Energy at sites (4, 5) is -76.1265895352448
   Stats: nIt(DAVIDSON) = 1
Energy at sites (3, 4) is -76.1265895352448
   Stats: nIt(DAVIDSON) = 1
Energy at sites (2, 3) is -76.1265895352448
   Stats: nIt(DAVIDSON) = 1
Energy at sites (1, 2) is -76.1265895352448
******************************************************************
***  Information on left sweep 0 of instruction 3:
***     Elapsed wall time        = 0.044107 seconds
***       |--> S.join            = 0.000253 seconds
***       |--> S.solve           = 0.022354 seconds
***       |--> S.split           = 0.000634 seconds
***       |--> Tensor update     = 0.020793 seconds
***              |--> create     = 0.001359 seconds
***              |--> destroy    = 0.000469 seconds
***              |--> disk write = 0.007964 seconds
***              |--> disk read  = 0.007038 seconds
***              |--> calc       = 0.003956 seconds
***     Disk write bandwidth     = 71.0585559210784 MB/s
***     Disk read  bandwidth     = 80.7829084773062 MB/s
***     Minimum energy           = -76.1265895352448
***     Maximum discarded weight = 0
******************************************************************
   Stats: nIt(DAVIDSON) = 1
Energy at sites (0, 1) is -76.1265895352448
   Stats: nIt(DAVIDSON) = 1
Energy at sites (1, 2) is -76.1265895352448
   Stats: nIt(DAVIDSON) = 1
Energy at sites (2, 3) is -76.1265895352448
   Stats: nIt(DAVIDSON) = 1
Energy at sites (3, 4) is -76.1265895352448
   Stats: nIt(DAVIDSON) = 1
Energy at sites (4, 5) is -76.1265895352448
   Stats: nIt(DAVIDSON) = 1
Energy at sites (5, 6) is -76.1265895352448
   Stats: nIt(DAVIDSON) = 1
Energy at sites (6, 7) is -76.1265895352448
******************************************************************
***  Information on right sweep 0 of instruction 3:
***     Elapsed wall time        = 0.040223 seconds
***       |--> S.join            = 0.000205 seconds
***       |--> S.solve           = 0.020368 seconds
***       |--> S.split           = 0.000593 seconds
***       |--> Tensor update     = 0.018993 seconds
***              |--> create     = 0.001248 seconds
***              |--> destroy    = 0.000393 seconds
***              |--> disk write = 0.007438 seconds
***              |--> disk read  = 0.006069 seconds
***              |--> calc       = 0.003839 seconds
***     Disk write bandwidth     = 76.4385735228934 MB/s
***     Disk read  bandwidth     = 93.246060200275 MB/s
***     Minimum energy           = -76.1265895352448
***     Maximum discarded weight = 0
***     Energy difference with respect to previous leftright sweep = 0
******************************************************************
***  Information on completed instruction 3:
***     The reduced virtual dimension DSU(2)               = 1000
***     The total number of reduced MPS variables          = 2565
***     Minimum energy encountered during all instructions = -76.1265895352448
***     Minimum energy encountered during the last sweep   = -76.1265895352448
***     Maximum discarded weight during the last sweep     = 0
******************************************************************


  ==> Energy Summary <==

    Multi.(2ms)  Irrep.  No.               Energy      <S^2>
    --------------------------------------------------------
       1  (  0)    A1     0      -76.126589535245       n/a
    --------------------------------------------------------

  Time to prepare integrals:        0.077 seconds
  Time to run job          :       22.971 seconds
  Total                    :       23.049 seconds
    DMRG-SCF Energy.......................................................................PASSED

    Psi4 stopped on: Sunday, 16 January 2022 12:04AM
    Psi4 wall time for execution: 0:00:24.00

*** Psi4 exiting successfully. Buy a developer a beer!
