
    -----------------------------------------------------------------------
          Psi4: An Open-Source Ab Initio Electronic Structure Package
                               Psi4 1.4a3.dev88 

                         Git: Rev {master} 262e345 dirty


    D. G. A. Smith, L. A. Burns, A. C. Simmonett, R. M. Parrish,
    M. C. Schieber, R. Galvelis, P. Kraus, H. Kruse, R. Di Remigio,
    A. Alenaizan, A. M. James, S. Lehtola, J. P. Misiewicz, M. Scheurer,
    R. A. Shaw, J. B. Schriber, Y. Xie, Z. L. Glick, D. A. Sirianni,
    J. S. O'Brien, J. M. Waldrop, A. Kumar, E. G. Hohenstein,
    B. P. Pritchard, B. R. Brooks, H. F. Schaefer III, A. Yu. Sokolov,
    K. Patkowski, A. E. DePrince III, U. Bozkaya, R. A. King,
    F. A. Evangelista, J. M. Turney, T. D. Crawford, C. D. Sherrill,
    J. Chem. Phys. 152(18) 184108 (2020). https://doi.org/10.1063/5.0006002

                            Additional Code Authors
    E. T. Seidl, C. L. Janssen, E. F. Valeev, M. L. Leininger,
    J. F. Gonthier, R. M. Richard, H. R. McAlexander, M. Saitow, X. Wang,
    P. Verma, and M. H. Lechner

             Previous Authors, Complete List of Code Contributors,
                       and Citations for Specific Modules
    https://github.com/psi4/psi4/blob/master/codemeta.json
    https://github.com/psi4/psi4/graphs/contributors
    http://psicode.org/psi4manual/master/introduction.html#citing-psifour

    -----------------------------------------------------------------------


    Psi4 started on: Tuesday, 08 June 2021 08:44AM

    Process ID: 30555
    Host:       master
    PSIDATADIR: /home/nan/psi4_new/bin/share/psi4
    Memory:     500.0 MiB
    Threads:    1
    
  ==> Input File <==

--------------------------------------------------------------------------
import forte

refaset2 = -9.088090939391

molecule {
r1=1.65
    0 1
    Li      0.0  0.0  0.0
    H       0.0  0.0  r1
--
    H      0.0  0.0  4.8
    H      0.0  0.0  5.57
    
     units angstrom
     no_reorient
     symmetry c1
}

set {
  basis                  3-21g
  reference              rohf
  scf_type               direct
  diis                   true
  diis_start             11
  maxiter                300
  soscf                  true
  soscf_max_iter         35
  damping_percentage     40
  fail_on_maxiter        false
  e_convergence          12
  d_convergence          8
  docc                   [3]
  restricted_docc        [2]
  active                 [2]
  mcscf_maxiter          500
  mcscf_algorithm        ts
  mcscf_r_convergence    7
  mcscf_e_convergence    11
  mcscf_diis_start       50
  mcscf_max_rot          0.2
}

E, wfn_cas = energy('casscf', return_wfn = True)
#compare_values(refmcscf,variable("CURRENT ENERGY"),8,"MCSCF energy")

set forte {
# Embedding settings
  job_type ASET2
  embedding true
  embedding_threshold 0.5
  embedding_reference casscf

# Fragment methods and space info:
   active_space_solver    fci
   FRAG_CORRELATION_SOLVER     mrdsrg
   FRAG_CORR_LEVEL        pt3
   INT_TYPE_FRAG          conventional

# Environment (interaction) methods
   FRAGMENT_DENSITY       CASSCF    # Optimize the density
   ENV_CORRELATION_SOLVER      mrdsrg
   ENV_CORR_LEVEL         pt2
   INT_TYPE_ENV           conventional

# DSRG settings
   threepdc               zero # Current CASSCF code do not return 3-RDM
   semi_canonical         false
   relax_ref              once
   fci_maxiter            100
   root_sym               0
   nroot                  1
   root                   0
   dsrg_s                 0.5
}

Eforte, wfn = energy('forte', ref_wfn = wfn_cas, return_wfn=True)
compare_values(refaset2,variable("CURRENT ENERGY"),8,"ASET2-[DSRG-MRPT3] (Density Optimization) energy")
--------------------------------------------------------------------------

Scratch directory: /tmp/

*** tstart() called on master
*** at Tue Jun  8 08:44:06 2021

   => Loading Basis Set <=

    Name: 3-21G
    Role: ORBITAL
    Keyword: BASIS
    atoms 1   entry LI         line    35 file /home/nan/psi4_new/bin/share/psi4/basis/3-21g.gbs 
    atoms 2-4 entry H          line    21 file /home/nan/psi4_new/bin/share/psi4/basis/3-21g.gbs 


         ---------------------------------------------------------
                                   SCF
               by Justin Turney, Rob Parrish, Andy Simmonett
                          and Daniel G. A. Smith
                             ROHF Reference
                        1 Threads,    500 MiB Core
         ---------------------------------------------------------

  ==> Geometry <==

    Molecular point group: c1
    Full point group: C_inf_v

    Geometry (in Angstrom), charge = 0, multiplicity = 1:

       Center              X                  Y                   Z               Mass       
    ------------   -----------------  -----------------  -----------------  -----------------
         LI           0.000000000000     0.000000000000    -1.206642042934     7.016003436600
         H            0.000000000000     0.000000000000     0.443357957066     1.007825032230
         H            0.000000000000     0.000000000000     3.593357957066     1.007825032230
         H            0.000000000000     0.000000000000     4.363357957066     1.007825032230

  Running in c1 symmetry.

  Rotational constants: A = ************  B =      0.39558  C =      0.39558 [cm^-1]
  Rotational constants: A = ************  B =  11859.33907  C =  11859.33907 [MHz]
  Nuclear repulsion =    2.568120877789935

  Charge       = 0
  Multiplicity = 1
  Electrons    = 6
  Nalpha       = 3
  Nbeta        = 3

  ==> Algorithm <==

  SCF Algorithm Type is DIRECT.
  DIIS enabled.
  MOM disabled.
  Fractional occupation disabled.
  Guess Type is SAD.
  Energy threshold   = 1.00e-12
  Density threshold  = 1.00e-08
  Integral threshold = 1.00e-12

  ==> Primary Basis <==

  Basis Set: 3-21G
    Blend: 3-21G
    Number of shells: 11
    Number of basis function: 15
    Number of Cartesian functions: 15
    Spherical Harmonics?: false
    Max angular momentum: 1

   => Loading Basis Set <=

    Name: (3-21G AUX)
    Role: JKFIT
    Keyword: DF_BASIS_SCF
    atoms 1   entry LI         line    54 file /home/nan/psi4_new/bin/share/psi4/basis/def2-universal-jkfit.gbs 
    atoms 2-4 entry H          line    18 file /home/nan/psi4_new/bin/share/psi4/basis/def2-universal-jkfit.gbs 

  Starting with a DF guess...

  ==> Integral Setup <==

  DFHelper Memory: AOs need 0.000 GiB; user supplied 0.366 GiB. Using in-core AOs.

  ==> MemDFJK: Density-Fitted J/K Matrices <==

    J tasked:                   Yes
    K tasked:                   Yes
    wK tasked:                   No
    OpenMP threads:               1
    Memory [MiB]:               375
    Algorithm:                 Core
    Schwarz Cutoff:           1E-12
    Mask sparsity (%):       2.6667
    Fitting Condition:        1E-10

   => Auxiliary Basis Set <=

  Basis Set: (3-21G AUX)
    Blend: DEF2-UNIVERSAL-JKFIT
    Number of shells: 35
    Number of basis function: 120
    Number of Cartesian functions: 120
    Spherical Harmonics?: false
    Max angular momentum: 3

  Minimum eigenvalue in the overlap matrix is 1.0515765079E-01.
  Reciprocal condition number of the overlap matrix is 3.6811905784E-02.
    Using symmetric orthogonalization.

  ==> Pre-Iterations <==

  SCF Guess: Superposition of Atomic Densities via on-the-fly atomic UHF (no occupation information).

   -------------------------
    Irrep   Nso     Nmo    
   -------------------------
     A         15      15 
   -------------------------
    Total      15      15
   -------------------------

  ==> Iterations <==

                           Total Energy        Delta E     RMS |[F,P]|

   @DF-ROHF iter SAD:    -8.48733208748489   -8.48733e+00   0.00000e+00 
   @DF-ROHF iter   1:    -9.03373766312380   -5.46406e-01   5.27107e-03 
   @DF-ROHF iter   2:    -9.05161688724130   -1.78792e-02   8.19230e-04 DAMP=40%
   @DF-ROHF iter   3:    -9.05353720111444   -1.92031e-03   2.52998e-04 SOSCF, nmicro=3/DAMP=40%
   @DF-ROHF iter   4:    -9.05344177704864    9.54241e-05   5.00310e-06 SOSCF, nmicro=4/DAMP=40%
   @DF-ROHF iter   5:    -9.05283436161132    6.07415e-04   3.23012e-09 SOSCF, nmicro=4/DAMP=40%
   @DF-ROHF iter   6:    -9.05261463734909    2.19724e-04   2.04981e-12 SOSCF, nmicro=2/DAMP=40%
   @DF-ROHF iter   7:    -9.05252675174009    8.78856e-05   4.48101e-14 SOSCF, nmicro=2/DAMP=40%
   @DF-ROHF iter   8:    -9.05249159750507    3.51542e-05   1.61953e-15 SOSCF, nmicro=2/DAMP=40%
   @DF-ROHF iter   9:    -9.05247753581113    1.40617e-05   1.79544e-16 SOSCF, nmicro=2/DAMP=40%
   @DF-ROHF iter  10:    -9.05247191113356    5.62468e-06   4.02780e-17 SOSCF, nmicro=2/DAMP=40%
   @DF-ROHF iter  11:    -9.05246966126253    2.24987e-06   3.95291e-17 SOSCF, nmicro=2/DAMP=40%
   @DF-ROHF iter  12:    -9.05246876131411    8.99948e-07   5.50426e-17 SOSCF, nmicro=2/DAMP=40%
   @DF-ROHF iter  13:    -9.05246840133474    3.59979e-07   6.12623e-17 SOSCF, nmicro=2/DAMP=40%
   @DF-ROHF iter  14:    -9.05246825734300    1.43992e-07   6.22562e-17 SOSCF, nmicro=2/DAMP=40%
   @DF-ROHF iter  15:    -9.05246819974631    5.75967e-08   5.11692e-17 SOSCF, nmicro=2/DAMP=40%
   @DF-ROHF iter  16:    -9.05246817670762    2.30387e-08   2.79975e-17 SOSCF, nmicro=2/DAMP=40%
   @DF-ROHF iter  17:    -9.05246816749215    9.21547e-09   3.86734e-17 SOSCF, nmicro=2/DAMP=40%
   @DF-ROHF iter  18:    -9.05246816380596    3.68619e-09   3.78885e-17 SOSCF, nmicro=2/DAMP=40%
   @DF-ROHF iter  19:    -9.05246816233149    1.47447e-09   4.46038e-17 SOSCF, nmicro=2/DAMP=40%
   @DF-ROHF iter  20:    -9.05246816174170    5.89793e-10   6.11727e-17 SOSCF, nmicro=2/DAMP=40%
   @DF-ROHF iter  21:    -9.05246816150578    2.35918e-10   4.35272e-17 SOSCF, nmicro=2/DAMP=40%
   @DF-ROHF iter  22:    -9.05246816141142    9.43654e-11   4.16378e-17 SOSCF, nmicro=2/DAMP=40%
   @DF-ROHF iter  23:    -9.05246816137367    3.77494e-11   3.77232e-17 SOSCF, nmicro=2/DAMP=40%
   @DF-ROHF iter  24:    -9.05246816135857    1.50955e-11   5.94876e-17 SOSCF, nmicro=2/DAMP=40%
   @DF-ROHF iter  25:    -9.05246816135253    6.03961e-12   4.59640e-17 SOSCF, nmicro=2/DAMP=40%
   @DF-ROHF iter  26:    -9.05246816135011    2.41585e-12   3.74931e-17 SOSCF, nmicro=2/DAMP=40%
   @DF-ROHF iter  27:    -9.05246816134915    9.66338e-13   3.61835e-17 SOSCF, nmicro=conv/DAMP=40%

  DF guess converged.

  ==> DirectJK: Integral-Direct J/K Matrices <==

    J tasked:                  Yes
    K tasked:                  Yes
    wK tasked:                  No
    Integrals threads:           1
    Schwarz Cutoff:          1E-12

   @ROHF iter  28:    -9.05245561875358   -9.05246e+00   6.58774e-07 SOSCF, nmicro=3/DAMP=40%
   @ROHF iter  29:    -9.05245775507204   -2.13632e-06   2.34733e-09 SOSCF, nmicro=4/DAMP=40%
   @ROHF iter  30:    -9.05245646968205    1.28539e-06   1.21874e-12 SOSCF, nmicro=2/DAMP=40%
   @ROHF iter  31:    -9.05245595925733    5.10425e-07   1.76668e-14 SOSCF, nmicro=2/DAMP=40%
   @ROHF iter  32:    -9.05245575508562    2.04172e-07   8.71654e-16 SOSCF, nmicro=2/DAMP=40%
   @ROHF iter  33:    -9.05245567341690    8.16687e-08   7.35173e-17 SOSCF, nmicro=2/DAMP=40%
   @ROHF iter  34:    -9.05245564074942    3.26675e-08   4.81478e-17 SOSCF, nmicro=2/DAMP=40%
   @ROHF iter  35:    -9.05245562768243    1.30670e-08   4.08959e-17 SOSCF, nmicro=2/DAMP=40%
   @ROHF iter  36:    -9.05245562245563    5.22680e-09   3.98594e-17 SOSCF, nmicro=2/DAMP=40%
   @ROHF iter  37:    -9.05245562036491    2.09072e-09   4.35244e-17 SOSCF, nmicro=2/DAMP=40%
   @ROHF iter  38:    -9.05245561952862    8.36289e-10   3.98704e-17 SOSCF, nmicro=2/DAMP=40%
   @ROHF iter  39:    -9.05245561919410    3.34518e-10   2.92063e-17 SOSCF, nmicro=2/DAMP=40%
   @ROHF iter  40:    -9.05245561906030    1.33802e-10   2.77434e-17 SOSCF, nmicro=2/DAMP=40%
   @ROHF iter  41:    -9.05245561900678    5.35252e-11   3.30411e-17 SOSCF, nmicro=2/DAMP=40%
   @ROHF iter  42:    -9.05245561898537    2.14087e-11   4.52673e-17 SOSCF, nmicro=2/DAMP=40%
   @ROHF iter  43:    -9.05245561897681    8.56026e-12   6.03335e-17 SOSCF, nmicro=2/DAMP=40%
   @ROHF iter  44:    -9.05245561897338    3.42837e-12   5.63708e-17 SOSCF, nmicro=2/DAMP=40%
   @ROHF iter  45:    -9.05245561897201    1.36602e-12   3.00634e-17 SOSCF, nmicro=2/DAMP=40%
   @ROHF iter  46:    -9.05245561897146    5.54223e-13   2.43164e-17 SOSCF, nmicro=conv/DAMP=40%
  Energy and wave function converged.


  ==> Post-Iterations <==

    Orbital Energies [Eh]
    ---------------------

    Doubly Occupied:                                                      

       1A     -2.430170     2A     -0.552105     3A     -0.297245  

    Singly Occupied:                                                      

    

    Virtual:                                                              

       4A      0.001790     5A      0.048390     6A      0.048390  
       7A      0.133717     8A      0.183840     9A      0.219406  
      10A      0.219406    11A      0.285251    12A      0.376713  
      13A      0.988395    14A      1.425899    15A      1.558157  

    Final Occupation by Irrep:
              A 
    DOCC [     3 ]
    SOCC [     0 ]

  @ROHF Final Energy:    -9.05245561897146

   => Energetics <=

    Nuclear Repulsion Energy =              2.5681208777899354
    One-Electron Energy =                 -16.6821146730717658
    Two-Electron Energy =                   5.0615381763103704
    Total Energy =                         -9.0524556189714609

Computation Completed


Properties will be evaluated at   0.000000,   0.000000,   0.000000 [a0]

Properties computed using the SCF density matrix

  Nuclear Dipole Moment: [e a0]
     X:     0.0000      Y:     0.0000      Z:     9.0332

  Electronic Dipole Moment: [e a0]
     X:     0.0000      Y:    -0.0000      Z:   -11.4541

  Dipole Moment: [e a0]
     X:     0.0000      Y:    -0.0000      Z:    -2.4209     Total:     2.4209

  Dipole Moment: [D]
     X:     0.0000      Y:    -0.0000      Z:    -6.1533     Total:     6.1533


*** tstop() called on master at Tue Jun  8 08:44:08 2021
Module time:
	user time   =       1.36 seconds =       0.02 minutes
	system time =       0.17 seconds =       0.00 minutes
	total time  =          2 seconds =       0.03 minutes
Total time:
	user time   =       1.36 seconds =       0.02 minutes
	system time =       0.17 seconds =       0.00 minutes
	total time  =          2 seconds =       0.03 minutes
 MINTS: Wrapper to libmints.
   by Justin Turney

   Calculation information:
      Number of threads:                 1
      Number of atoms:                   4
      Number of AO shells:              11
      Number of SO shells:              11
      Number of primitives:             18
      Number of atomic orbitals:        15
      Number of basis functions:        15

      Number of irreps:                  1
      Integral cutoff                 1.00e-12
      Number of functions per irrep: [  15 ]

 OEINTS: Overlap, kinetic, potential, dipole, and quadrupole integrals
         stored in file 35.

      Computing two-electron integrals...done
      Computed 2831 non-zero two-electron integrals.
        Stored in file 33.

 MINTS: Wrapper to libmints.
   by Justin Turney

   Calculation information:
      Number of threads:                 1
      Number of atoms:                   4
      Number of AO shells:              11
      Number of SO shells:              11
      Number of primitives:             18
      Number of atomic orbitals:        15
      Number of basis functions:        15

      Number of irreps:                  1
      Integral cutoff                 1.00e-12
      Number of functions per irrep: [  15 ]

 OEINTS: Overlap, kinetic, potential, dipole, and quadrupole integrals
         stored in file 35.

      Computing two-electron integrals...done
      Computed 2831 non-zero two-electron integrals.
        Stored in file 33.


         ---------------------------------------------------------
                Multi-Configurational Self-Consistent Field
                            (a 'D E T C I' module)

                 Daniel G. A. Smith, C. David Sherrill, and
                              Matt L. Leininger
         ---------------------------------------------------------

Warning: iopen=0,opentype!=closed. Making iopen=1

   ==> Parameters <==

    EX LEVEL       =        2      H0 BLOCKSIZE  =     1000
    VAL EX LEVEL   =        0      H0 GUESS SIZE =     1000
    H0COUPLINGSIZE =        0      H0 COUPLING   =       NO
    MAXITER        =       12      NUM PRINT     =       20
    NUM ROOTS      =        1      ICORE         =        1
    PRINT LVL      =        1      FCI           =      YES
    R CONV         = 1.00e-07      MIXED         =      YES
    E CONV         = 1.00e-12      MIXED4        =      YES
    R4S            =       NO      REPL OTF      =       NO
    DIAG METHOD    =      SEM      FOLLOW ROOT   =        0
    PRECONDITIONER = DAVIDSON      UPDATE        = DAVIDSON
    S              =   0.0000      Ms0           =      YES
    GUESS VECTOR   =  H0BLOCK      OPENTYPE      =  SINGLET
    COLLAPSE SIZE  =        1      HD AVG        = EVANGELISTI
    MAX NUM VECS   =       13      REF SYM       =     AUTO
    IOPEN        =      YES

    EX ALLOW       =  1  1 
    STATE AVERAGE  =  0(1.00) 

   ==> CI Orbital and Space information <==

   ------------------------------------
               Space    Total     A
   ------------------------------------
                 Nso       15    15
                 Nmo       15    15
               Ndocc        3     3
               Nsocc        0     0
   ------------------------------------
               MCSCF Spaces
   ------------------------------------
         Frozen DOCC        0     0
     Restricted DOCC        2     2
              Active        2     2
     Restricted UOCC       11    11
         Frozen UOCC        0     0
   ------------------------------------

   ==> Setting up CI strings <==

    There are 2 alpha and 2 beta strings
    The CI space requires 4 (4.00E+00) determinants and 1 blocks

   ==> Setting up MCSCF integrals <==

  ==> DirectJK: Integral-Direct J/K Matrices <==

    J tasked:                  Yes
    K tasked:                  Yes
    wK tasked:                  No
    Integrals threads:           1
    Schwarz Cutoff:          1E-12


   ==> Starting MCSCF iterations <==

        Iter         Total Energy       Delta E   Orb RMS    CI RMS  NCI NORB
   @MCSCF  1:     -9.052555488812   -9.9870e-05  2.39e-04  9.68e-16    1    1  Initial CI
      Warning! Maxstep = 1.19, scaling to 0.20
   @MCSCF  2:     -9.054158578766   -1.6031e-03  3.83e-03  9.50e-16    3    1  TS
      Warning! Maxstep = 0.50, scaling to 0.20
   @MCSCF  3:     -9.059825783926   -5.6672e-03  9.70e-03  2.78e-15    3    1  TS
      Warning! Maxstep = 0.24, scaling to 0.20
   @MCSCF  4:     -9.066646746601   -6.8210e-03  8.21e-03  4.02e-15    2    1  TS
   @MCSCF  5:     -9.068477188816   -1.8304e-03  4.06e-03  2.30e-15    2    1  TS
   @MCSCF  6:     -9.068874586390   -3.9740e-04  1.96e-03  2.14e-15    2    1  TS
   @MCSCF  7:     -9.068977967993   -1.0338e-04  9.68e-04  1.40e-15    2    1  TS
   @MCSCF  8:     -9.069006622900   -2.8655e-05  4.83e-04  1.97e-15    2    1  TS
   @MCSCF  9:     -9.069014811953   -8.1891e-06  2.39e-04  9.27e-16    2    1  TS
   @MCSCF 10:     -9.069017205845   -2.3939e-06  1.15e-04  3.67e-16    2    1  TS
   @MCSCF 11:     -9.069017925221   -7.1938e-07  5.38e-05  2.41e-16    2    1  TS
   @MCSCF 12:     -9.069018151303   -2.2608e-07  2.56e-05  8.75e-16    2    1  TS
   @MCSCF 13:     -9.069018227937   -7.6634e-08  1.56e-05  1.88e-16    2    1  TS
   @MCSCF 14:     -9.069018257055   -2.9118e-08  1.32e-05  1.54e-16    2    1  TS
   @MCSCF 15:     -9.069018269780   -1.2725e-08  1.20e-05  9.10e-16    2    1  TS
   @MCSCF 16:     -9.069018276130   -6.3501e-09  1.07e-05  8.08e-16    2    1  TS
   @MCSCF 17:     -9.069018279625   -3.4950e-09  9.11e-06  3.47e-15    2    1  TS
   @MCSCF 18:     -9.069018281667   -2.0419e-09  7.59e-06  3.63e-15    2    1  TS
   @MCSCF 19:     -9.069018282899   -1.2319e-09  6.21e-06  2.28e-15    2    1  TS
   @MCSCF 20:     -9.069018283654   -7.5535e-10  5.02e-06  2.44e-15    2    1  TS
   @MCSCF 21:     -9.069018284121   -4.6679e-10  4.03e-06  3.33e-15    2    1  TS
   @MCSCF 22:     -9.069018284411   -2.8954e-10  3.21e-06  4.23e-15    2    1  TS
   @MCSCF 23:     -9.069018284591   -1.7992e-10  2.55e-06  4.32e-15    2    1  TS
   @MCSCF 24:     -9.069018284703   -1.1189e-10  2.03e-06  7.17e-15    2    1  TS
   @MCSCF 25:     -9.069018284772   -6.9617e-11  1.60e-06  7.63e-15    2    1  TS
   @MCSCF 26:     -9.069018284815   -4.3316e-11  1.27e-06  7.42e-15    2    1  TS
   @MCSCF 27:     -9.069018284842   -2.6967e-11  1.00e-06  6.59e-15    2    1  TS
   @MCSCF 28:     -9.069018284859   -1.6778e-11  7.91e-07  7.47e-15    2    1  TS
   @MCSCF 29:     -9.069018284870   -1.0445e-11  6.25e-07  7.73e-15    2    1  TS
   @MCSCF 30:     -9.069018284876   -6.5032e-12  4.93e-07  1.04e-14    2    1  TS
   @MCSCF 31:     -9.069018284880   -4.0430e-12  3.89e-07  9.78e-15    2    1  TS
   @MCSCF 32:     -9.069018284883   -2.5153e-12  3.07e-07  1.10e-14    2    1  TS
   @MCSCF 33:     -9.069018284884   -1.5667e-12  2.42e-07  1.17e-14    2    1  TS
   @MCSCF 34:     -9.069018284885   -9.7877e-13  1.91e-07  1.12e-14    2    1  TS
   @MCSCF 35:     -9.069018284886   -6.0751e-13  1.51e-07  1.26e-14    2    1  TS
   @MCSCF 36:     -9.069018284886   -3.8192e-13  1.19e-07  1.24e-14    2    1  TS
   @MCSCF 37:     -9.069018284886   -2.3093e-13  9.39e-08  1.26e-14    2    1  TS

          @MCSCF has converged!

   @MCSCF Final Energy:   -9.069018284886491

   Computing CI Semicanonical Orbitals

   ==> Energetics <==

    SCF energy =           -9.052455618971461
    Total MCSCF energy =   -9.069018284886491

   ==> MCSCF root 0 information <==

    MCSCF Root 0 energy =    -9.069018284886489

   Active Space Natural occupation numbers:

         A   1.958020         A   0.041980

   The 4 most important determinants:

    *   1    0.989445  (    0,    0)  3AX 
    *   2   -0.144874  (    1,    1)  4AX 
    *   3   -0.002349  (    0,    1)  3AA 4AB 
    *   4   -0.002349  (    1,    0)  3AB 4AA 



Properties will be evaluated at   0.000000,   0.000000,   0.000000 [a0]

Properties computed using the CASSCF density matrix

  Nuclear Dipole Moment: [e a0]
     X:     0.0000      Y:     0.0000      Z:     9.0332

  Electronic Dipole Moment: [e a0]
     X:     0.0000      Y:    -0.0000      Z:   -11.3033

  Dipole Moment: [e a0]
     X:     0.0000      Y:    -0.0000      Z:    -2.2701     Total:     2.2701

  Dipole Moment: [D]
     X:     0.0000      Y:    -0.0000      Z:    -5.7700     Total:     5.7700


Scratch directory: /tmp/

  Forte
  ----------------------------------------------------------------------------
  A suite of quantum chemistry methods for strongly correlated electrons

    git branch: ASET2_PR1 - git commit: 05b1a6c

  Developed by:
    Francesco A. Evangelista, Chenyang Li, Kevin P. Hannon,
    Jeffrey B. Schriber, Tianyuan Zhang, Chenxi Cai,
    Nan He, Nicholas Stair, Shuhe Wang, Renke Huang
  ----------------------------------------------------------------------------

  Size of Determinant class: 128 bits

  Preparing forte objects from a Psi4 Wavefunction object
  Read options for space RESTRICTED_DOCC
  Read options for space ACTIVE
  Read options for space RESTRICTED_DOCC

  ==> MO Space Information <==

  -------------------------------
                        A   Sum
  -------------------------------
    FROZEN_DOCC         0     0
    RESTRICTED_DOCC     2     2
    GAS1                2     2
    GAS2                0     0
    GAS3                0     0
    GAS4                0     0
    GAS5                0     0
    GAS6                0     0
    RESTRICTED_UOCC    11    11
    FROZEN_UOCC         0     0
    EMBEDDING_DOCC      0     0
    EMBEDDING_ACTV      0     0
    Total              15    15
  -------------------------------

   => Loading Basis Set <=

    Name: 3-21G
    Role: ORBITAL
    Keyword: BASIS
    atoms 1   entry LI         line    35 file /home/nan/psi4_new/bin/share/psi4/basis/3-21g.gbs 
    atoms 2-4 entry H          line    21 file /home/nan/psi4_new/bin/share/psi4/basis/3-21g.gbs 


  Checking orbital orthonormality against current geometry ... Done (OK)

   => Loading Basis Set <=

    Name: STO-3G
    Role: ORBITAL
    Keyword: MINAO_BASIS
    atoms 1   entry LI         line    31 file /home/nan/psi4_new/bin/share/psi4/basis/sto-3g.gbs 
    atoms 2-4 entry H          line    19 file /home/nan/psi4_new/bin/share/psi4/basis/sto-3g.gbs 



                ------------------------------------------------
                  General Active Space Embedding Theory (ASET)
                                     Nan He
                ------------------------------------------------

  The input molecule has 2 fragments, treating the first fragment as the system.

  System Fragment 
    Molecular point group: c1
    Full point group: C_inf_v

    Geometry (in Angstrom), charge = 0, multiplicity = 1:

       Center              X                  Y                   Z               Mass       
    ------------   -----------------  -----------------  -----------------  -----------------
         LI           0.000000000000     0.000000000000    -0.207246616704     7.016003436600
         H            0.000000000000     0.000000000000     1.442753383296     1.007825032230


  Number of basis on all atoms: 15
  Number of basis in the system fragment: 11

  ==> Orbital partition done according to simple threshold <==

  Simple threshold t = 0.50000000
 Building AO Fock Matrix ... 
 
 Building finished, write AO Fock to wfn ... 
 
    Frozen-orbital Embedding MOs (System A)
    ============================
      MO     Type    <phi|P|phi>
    ----------------------------
       1   Occupied   0.999999
       3     Active      --
       4     Active      --
       5    Virtual   1.000000
       6    Virtual   1.000000
       7    Virtual   1.000000
       8    Virtual   1.000000
       9    Virtual   1.000000
      10    Virtual   1.000000
      11    Virtual   1.000000
      12    Virtual   0.972553
    ============================

    Frozen-orbital Embedding MOs (Environment B)
    ============================
      MO     Type    <phi|P|phi>
    ----------------------------
       2   Occupied   0.029645
      13    Virtual   0.000466
      14    Virtual   0.000008
      15    Virtual   0.000000
    ============================

  Summary: 
    System (A): 1 Occupied MOs, 2 Active MOs, 8 Virtual MOs
    Environment (B): 1 Occupied MOs, 3 Virtual MOs
    Frozen Orbitals: 0 Core MOs, 0 Virtual MOs


  --------------- Generating Total (A + B) SpaceInfo --------------- 
  Updating MOSpaceInfo

  ==> MO Space Information <==

  -------------------------------
                        A   Sum
  -------------------------------
    FROZEN_DOCC         0     0
    RESTRICTED_DOCC     1     1
    GAS1               11    11
    GAS2                0     0
    GAS3                0     0
    GAS4                0     0
    GAS5                0     0
    GAS6                0     0
    RESTRICTED_UOCC     3     3
    FROZEN_UOCC         0     0
    EMBEDDING_DOCC      1     1
    EMBEDDING_ACTV      2     2
    Total              15    15
  -------------------------------

  
  Will not build integrals here
  
  

            --------------------------------------------------------
              Second-order Active Space Embedding Theory [ASET(2)]
                              Nan He, Chenyang Li
            --------------------------------------------------------

  ===========================ASET(2) Options===========================
  Fragment active space solver:             FCI
  Fragment correlation solver:              MRDSRG
  Fragment correlation level:               PT3
  Fragment integral type:                   CONVENTIONAL
  ---------------------------------------------------------------------
  Environment correlation solver:           MRDSRG
  Environment correlation level:            PT2
  Environment integral type:                CONVENTIONAL
  Fragment density will be evaluated using: CASSCF
  ---------------------------------------------------------------------
  Procedure: ASET(MF)-[MRDSRG-PT3] -> CASSCF -> ASET(2)-[MRDSRG-PT3]
  =====================================================================
  
  
  
   Generating fragment (A) SpaceInfo ... 
   The fragment MO is: 
 

  ==> MO Space Information <==

  -------------------------------
                        A   Sum
  -------------------------------
    FROZEN_DOCC         1     1
    RESTRICTED_DOCC     1     1
    GAS1                2     2
    GAS2                0     0
    GAS3                0     0
    GAS4                0     0
    GAS5                0     0
    GAS6                0     0
    RESTRICTED_UOCC     8     8
    FROZEN_UOCC         3     3
    EMBEDDING_DOCC      0     0
    EMBEDDING_ACTV      0     0
    Total              15    15
  -------------------------------
   ASET(2) procedure started! ... 
 

  ==> Primary Basis Set Summary <==

  Basis Set: 3-21G
    Blend: 3-21G
    Number of shells: 11
    Number of basis function: 15
    Number of Cartesian functions: 15
    Spherical Harmonics?: false
    Max angular momentum: 1


  JK created using conventional PK integrals
  Using in-core PK algorithm.
   Calculation information:
      Number of atoms:                   4
      Number of AO shells:              11
      Number of primitives:             18
      Number of atomic orbitals:        15
      Number of basis functions:        15

      Integral cutoff                 1.00e-12
      Number of threads:                 1

  Performing in-core PK
  Using 14520 doubles for integral storage.
  We computed 2008 shell quartets total.
  Whereas there are 2211 unique shell quartets.

  ==> DiskJK: Disk-Based J/K Matrices <==

    J tasked:                  Yes
    K tasked:                  Yes
    wK tasked:                  No
    Memory [MiB]:              400
    Schwarz Cutoff:          1E-12

    OpenMP threads:              1



  ==> Integral Transformation <==

  Number of molecular orbitals:                         15
  Number of correlated molecular orbitals:              15
  Number of frozen occupied orbitals:                    0
  Number of frozen unoccupied orbitals:                  0
  Two-electron integral type:                 Conventional


  Computing Conventional Integrals	Presorting SO-basis two-electron integrals.
	Sorting File: SO Ints (nn|nn) nbuckets = 1
	Constructing frozen core operators
	Starting first half-transformation.
	Sorting half-transformed integrals.
	First half integral transformation complete.
	Starting second half-transformation.
	Two-electron integral transformation complete.

  Integral transformation done. 0.01779476 s
  Reading the two-electron integrals from disk
  Size of two-electron integrals:   0.001132 GB
  Timing for conventional integral transformation:            0.032 s.
  Timing for freezing core and virtual orbitals:              0.000 s.
  Timing for computing conventional integrals:                0.032 s.

  ==> Primary Basis Set Summary <==

  Basis Set: 3-21G
    Blend: 3-21G
    Number of shells: 11
    Number of basis function: 15
    Number of Cartesian functions: 15
    Spherical Harmonics?: false
    Max angular momentum: 1


  JK created using conventional PK integrals
  Using in-core PK algorithm.
   Calculation information:
      Number of atoms:                   4
      Number of AO shells:              11
      Number of primitives:             18
      Number of atomic orbitals:        15
      Number of basis functions:        15

      Integral cutoff                 1.00e-12
      Number of threads:                 1

  Performing in-core PK
  Using 14520 doubles for integral storage.
  We computed 2008 shell quartets total.
  Whereas there are 2211 unique shell quartets.

  ==> DiskJK: Disk-Based J/K Matrices <==

    J tasked:                  Yes
    K tasked:                  Yes
    wK tasked:                  No
    Memory [MiB]:              400
    Schwarz Cutoff:          1E-12

    OpenMP threads:              1



  ==> Integral Transformation <==

  Number of molecular orbitals:                         15
  Number of correlated molecular orbitals:              11
  Number of frozen occupied orbitals:                    1
  Number of frozen unoccupied orbitals:                  3
  Two-electron integral type:                 Conventional


  Computing Conventional Integrals	Presorting SO-basis two-electron integrals.
	Sorting File: SO Ints (nn|nn) nbuckets = 1
	Constructing frozen core operators
	Starting first half-transformation.
	Sorting half-transformed integrals.
	First half integral transformation complete.
	Starting second half-transformation.
	Two-electron integral transformation complete.

  Integral transformation done. 0.01210405 s
  Reading the two-electron integrals from disk
  Size of two-electron integrals:   0.001132 GB
  Timing for conventional integral transformation:            0.065 s.
  Frozen-core energy          -2.723719813912592 a.u.
  Timing for frozen one-body operator:                        0.000 s.
  Resorting integrals after freezing core.
  Timing for freezing core and virtual orbitals:              0.002 s.
  Timing for computing conventional integrals:                0.067 s.

  ==> Summary of Active Space Solver Input <==

    Irrep.  Multi.(2ms)      N
    --------------------------
        A      1  (  0)      1
    --------------------------
    N: number of roots
    ms: spin z component
    Total number of roots:   1
    --------------------------


  ==> String Lists <==

  Number of alpha electrons     = 1
  Number of beta electrons      = 1
  Number of alpha strings       = 2
  Number of beta strings        = 2
  Timing for strings        =      0.000 s
  Timing for NN strings     =      0.000 s
  Timing for VO strings     =      0.000 s
  Timing for OO strings     =      0.000 s
  Timing for VVOO strings   =      0.000 s
  Timing for VOVO strings   =      0.000 s
  Timing for 1-hole strings =      0.000 s
  Timing for 2-hole strings =      0.000 s
  Timing for 3-hole strings =      0.000 s
  Total timing              =      0.000 s

  ==> FCI Solver <==

    Number of determinants                           4
    Symmetry                                         0
    Multiplicity                                     1
    Number of roots                                  1
    Target root                                      0
    Trial vectors per root                          10

  Allocating memory for the Hamiltonian algorithm. Size: 2 x 2 x 2.   Memory: 0.000000 GB

  ==> FCI Initial Guess <==

  ---------------------------------------------
    Root            Energy     <S^2>   Spin
  ---------------------------------------------
      0       -9.069018284886  0.000  singlet
      1       -8.791658397486  2.000  triplet
      2       -8.554543388973  0.000  singlet
      3       -8.239918744214  0.000  singlet
  ---------------------------------------------
  Timing for initial guess  =      0.000 s

  Projecting out root 1

  ==> Diagonalizing Hamiltonian <==

  Energy   convergence: 1.00e-12
  Residual convergence: 1.00e-06
  -----------------------------------------------------
    Iter.      Avg. Energy       Delta_E     Res. Norm
  -----------------------------------------------------
      1       -9.069018284886  -9.069e+00  +3.743e-15
      2       -9.069018284886  +0.000e+00  +3.743e-15
  -----------------------------------------------------
  The Davidson-Liu algorithm converged in 3 iterations.

  ==> Root No. 0 <==

    20      0.98944459
    02     -0.14487360

    Total Energy:      -9.069018284886, <S^2>: -0.000000

  ==> Energy Summary <==

    Multi.(2ms)  Irrep.  No.               Energy      <S^2>
    --------------------------------------------------------
       1  (  0)     A     0       -9.069018284886  -0.000000
    --------------------------------------------------------

  ==> Computing RDMs for Root No. 0 <==

    Timing for 1-RDM: 0.000 s
    Timing for 2-RDM: 0.000 s

  ==> NATURAL ORBITALS <==

        1A      1.958020      2A      0.041980  


       -----------------------------------------------------------------
                            Semi-Canonical Orbitals
         Chenyang Li, Jeffrey B. Schriber and Francesco A. Evangelista
       -----------------------------------------------------------------


  ==> Multireference Driven Similarity Renormalization Group <==

    Computing Fock matrix and cleaning JK ........... Done
    Reading DSRG options ............................ Done
    Setting ambit MO space .......................... Done
    Preparing tensors for density cumulants ......... Done
    Filling Fock matrix from ForteIntegrals ......... Done

           ----------------------------------------------------------
             Multireference Driven Similarity Renormalization Group
                   written by Chenyang Li and Tianyuan Zhang
           ----------------------------------------------------------


  ==> Density Cumulant Summary <==

    2-body             AA           AB           BB
    -----------------------------------------------
    max          0.020549     0.143348     0.020549
    norm         0.041098     0.206851     0.041098
    -----------------------------------------------

  ==> Checking Semicanonical Orbitals <==

    Block             Fa Max         Fa Mean           Fb Max         Fb Mean
    -------------------------------------------------------------------------
    CORE        0.0000000000    0.0000000000     0.0000000000    0.0000000000
    VIRTUAL     0.0000000000    0.0000000000     0.0000000000    0.0000000000
    GAS1        0.0000000000    0.0000000000     0.0000000000    0.0000000000
    -------------------------------------------------------------------------
    Orbitals are semi-canonicalized.

  ==> Calculation Information <==

    Correlation level                                    PT3
    Integral type                               CONVENTIONAL
    Source operator                                 STANDARD
    Adaptive DSRG flow type                           DSRG_S
    Reference relaxation                                ONCE
    DSRG transformation type                         UNITARY
    Core-Virtual source type                          NORMAL
    Restart amplitudes                                  TRUE
    Sequential DSRG transformation                     FALSE
    Omit blocks of >= 3 virtual indices                FALSE
    Read amplitudes from current dir                   FALSE
    Write amplitudes to current dir                    FALSE
    Flow parameter                                 5.000e-01
    Taylor expansion threshold                     1.000e-03
    Intruder amplitudes threshold                  1.000e-01
    Number of T amplitudes                                15
    DIIS start                                             2
    Min DIIS vectors                                       2
    Max DIIS vectors                                       6
    DIIS extrapolating freq                                1


  ==> Build Initial Amplitudes Guesses <==

    Computing T2 amplitudes ...          Done. Timing      0.002 s
    Computing T1 amplitudes ...          Done. Timing      0.003 s

  ==> Initial Excitation Amplitudes Summary <==

    Active Indices:    1    2 
    Largest T1 amplitudes for spin case A:
       i       a                  i       a                  i       a               
    --------------------------------------------------------------------------------
    [  2      10    ] 0.151540 [  2       3    ] 0.012385 [  2       9    ]-0.008121 
    [  1      10    ] 0.007334 [  2       6    ]-0.001080 [  1       9    ] 0.000445 
    [  1       3    ]-0.000433 [  0       1    ] 0.000358 [  1       6    ]-0.000330 
    [  0       2    ] 0.000171 [  0       9    ] 0.000001 [  0       6    ]-0.000000 
    [  0      10    ] 0.000000 [  0       3    ]-0.000000 
    --------------------------------------------------------------------------------
    Norm of T1A vector: (nonzero elements: 14)                    0.152444056733552.
    --------------------------------------------------------------------------------
    Largest T1 amplitudes for spin case B:
       _       _                  _       _                  _       _               
       i       a                  i       a                  i       a               
    --------------------------------------------------------------------------------
    [  2      10    ] 0.151540 [  2       3    ] 0.012385 [  2       9    ]-0.008121 
    [  1      10    ] 0.007334 [  2       6    ]-0.001080 [  1       9    ] 0.000445 
    [  1       3    ]-0.000433 [  0       1    ] 0.000358 [  1       6    ]-0.000330 
    [  0       2    ] 0.000171 [  0       9    ] 0.000001 [  0       6    ]-0.000000 
    [  0      10    ] 0.000000 [  0       3    ]-0.000000 
    --------------------------------------------------------------------------------
    Norm of T1B vector: (nonzero elements: 14)                    0.152444056733552.
    --------------------------------------------------------------------------------
    Largest T2 amplitudes for spin case AA:
       i   j   a   b              i   j   a   b              i   j   a   b           
    --------------------------------------------------------------------------------
    [  1   2   1  10] 0.032355 [  1   2   2  10] 0.018272 [  1   2   2   9] 0.008643 
    [  0   1   1   9] 0.004210 [  0   1   1   6]-0.003198 [  1   2   1   3] 0.003051 
    [  1   2   9  10] 0.002765 [  1   2   6  10] 0.002720 [  0   2   2   9] 0.002717 
    [  1   2   2   6] 0.002638 [  1   2   1   9]-0.002546 [  0   2   2   6]-0.002166 
    [  1   2   3  10] 0.001948 [  0   2   1   9] 0.001566 [  1   2   1   6]-0.001398 
    --------------------------------------------------------------------------------
    Norm of T2AA vector: (nonzero elements: 224)                  0.078912024589267.
    --------------------------------------------------------------------------------
    Largest T2 amplitudes for spin case AB:
           _       _                  _       _                  _       _           
       i   j   a   b              i   j   a   b              i   j   a   b           
    --------------------------------------------------------------------------------
    [  2   2  10  10]-0.052990 [  2   2   2  10] 0.051038 [  1   2   1  10] 0.050182 
    [  1   2   2  10] 0.048195 [  1   2  10  10]-0.025069 [  1   1   2  10] 0.019931 
    [  1   1  10  10]-0.019347 [  1   1   1  10] 0.018141 [  2   2   1  10] 0.012026 
    [  1   1   9   9]-0.009885 [  2   2   1   3] 0.006930 [  1   1   1   9]-0.006687 
    [  1   1   8   8]-0.006050 [  1   1   7   7]-0.006050 [  2   2   9  10]-0.005649 
    --------------------------------------------------------------------------------
    Norm of T2AB vector: (nonzero elements: 416)                  0.158327214671788.
    --------------------------------------------------------------------------------
    Largest T2 amplitudes for spin case BB:
       _   _   _   _              _   _   _   _              _   _   _   _           
       i   j   a   b              i   j   a   b              i   j   a   b           
    --------------------------------------------------------------------------------
    [  1   2   1  10] 0.032355 [  1   2   2  10] 0.018272 [  1   2   2   9] 0.008643 
    [  0   1   1   9] 0.004210 [  0   1   1   6]-0.003198 [  1   2   1   3] 0.003051 
    [  1   2   9  10] 0.002765 [  1   2   6  10] 0.002720 [  0   2   2   9] 0.002717 
    [  1   2   2   6] 0.002638 [  1   2   1   9]-0.002546 [  0   2   2   6]-0.002166 
    [  1   2   3  10] 0.001948 [  0   2   1   9] 0.001566 [  1   2   1   6]-0.001398 
    --------------------------------------------------------------------------------
    Norm of T2BB vector: (nonzero elements: 224)                  0.078912024589267.
    --------------------------------------------------------------------------------

  ==> Possible Intruders <==

    T1 amplitudes larger than 0.1000 for spin case A:
        Amplitude         Value                  Denominator              
    ----------------------------------------------------------------------
    [  2      10    ]    0.15153954 (  0.369713 -   1.263005 =  -0.893292)
    ----------------------------------------------------------------------
    T1 amplitudes larger than 0.1000 for spin case B:
        Amplitude         Value                  Denominator              
    ----------------------------------------------------------------------
    [  2      10    ]    0.15153954 (  0.369713 -   1.263005 =  -0.893292)
    ----------------------------------------------------------------------
    T2 amplitudes larger than 0.1000 for spin case AA: NULL
    T2 amplitudes larger than 0.1000 for spin case AB: NULL
    T2 amplitudes larger than 0.1000 for spin case BB: NULL

  ==> Third-Order Perturbation DSRG-MRPT3 <==

    Reference:
      J. Chem. Phys. 2017, 146, 124132.


  ==> Build Initial Amplitudes Guesses <==

    Computing T2 amplitudes ...          Done. Timing      0.002 s
    Computing T1 amplitudes ...          Done. Timing      0.003 s

  ==> Initial Excitation Amplitudes Summary <==

    Active Indices:    1    2 
    Largest T1 amplitudes for spin case A:
       i       a                  i       a                  i       a               
    --------------------------------------------------------------------------------
    [  2      10    ] 0.151540 [  2       3    ] 0.012385 [  2       9    ]-0.008121 
    [  1      10    ] 0.007334 [  2       6    ]-0.001080 [  1       9    ] 0.000445 
    [  1       3    ]-0.000433 [  0       1    ] 0.000358 [  1       6    ]-0.000330 
    [  0       2    ] 0.000171 [  0       9    ] 0.000001 [  0       6    ]-0.000000 
    [  0      10    ] 0.000000 [  0       3    ]-0.000000 
    --------------------------------------------------------------------------------
    Norm of T1A vector: (nonzero elements: 14)                    0.152444056733552.
    --------------------------------------------------------------------------------
    Largest T1 amplitudes for spin case B:
       _       _                  _       _                  _       _               
       i       a                  i       a                  i       a               
    --------------------------------------------------------------------------------
    [  2      10    ] 0.151540 [  2       3    ] 0.012385 [  2       9    ]-0.008121 
    [  1      10    ] 0.007334 [  2       6    ]-0.001080 [  1       9    ] 0.000445 
    [  1       3    ]-0.000433 [  0       1    ] 0.000358 [  1       6    ]-0.000330 
    [  0       2    ] 0.000171 [  0       9    ] 0.000001 [  0       6    ]-0.000000 
    [  0      10    ] 0.000000 [  0       3    ]-0.000000 
    --------------------------------------------------------------------------------
    Norm of T1B vector: (nonzero elements: 14)                    0.152444056733552.
    --------------------------------------------------------------------------------
    Largest T2 amplitudes for spin case AA:
       i   j   a   b              i   j   a   b              i   j   a   b           
    --------------------------------------------------------------------------------
    [  1   2   1  10] 0.032355 [  1   2   2  10] 0.018272 [  1   2   2   9] 0.008643 
    [  0   1   1   9] 0.004210 [  0   1   1   6]-0.003198 [  1   2   1   3] 0.003051 
    [  1   2   9  10] 0.002765 [  1   2   6  10] 0.002720 [  0   2   2   9] 0.002717 
    [  1   2   2   6] 0.002638 [  1   2   1   9]-0.002546 [  0   2   2   6]-0.002166 
    [  1   2   3  10] 0.001948 [  0   2   1   9] 0.001566 [  1   2   1   6]-0.001398 
    --------------------------------------------------------------------------------
    Norm of T2AA vector: (nonzero elements: 224)                  0.078912024589267.
    --------------------------------------------------------------------------------
    Largest T2 amplitudes for spin case AB:
           _       _                  _       _                  _       _           
       i   j   a   b              i   j   a   b              i   j   a   b           
    --------------------------------------------------------------------------------
    [  2   2  10  10]-0.052990 [  2   2   2  10] 0.051038 [  1   2   1  10] 0.050182 
    [  1   2   2  10] 0.048195 [  1   2  10  10]-0.025069 [  1   1   2  10] 0.019931 
    [  1   1  10  10]-0.019347 [  1   1   1  10] 0.018141 [  2   2   1  10] 0.012026 
    [  1   1   9   9]-0.009885 [  2   2   1   3] 0.006930 [  1   1   1   9]-0.006687 
    [  1   1   8   8]-0.006050 [  1   1   7   7]-0.006050 [  2   2   9  10]-0.005649 
    --------------------------------------------------------------------------------
    Norm of T2AB vector: (nonzero elements: 416)                  0.158327214671788.
    --------------------------------------------------------------------------------
    Largest T2 amplitudes for spin case BB:
       _   _   _   _              _   _   _   _              _   _   _   _           
       i   j   a   b              i   j   a   b              i   j   a   b           
    --------------------------------------------------------------------------------
    [  1   2   1  10] 0.032355 [  1   2   2  10] 0.018272 [  1   2   2   9] 0.008643 
    [  0   1   1   9] 0.004210 [  0   1   1   6]-0.003198 [  1   2   1   3] 0.003051 
    [  1   2   9  10] 0.002765 [  1   2   6  10] 0.002720 [  0   2   2   9] 0.002717 
    [  1   2   2   6] 0.002638 [  1   2   1   9]-0.002546 [  0   2   2   6]-0.002166 
    [  1   2   3  10] 0.001948 [  0   2   1   9] 0.001566 [  1   2   1   6]-0.001398 
    --------------------------------------------------------------------------------
    Norm of T2BB vector: (nonzero elements: 224)                  0.078912024589267.
    --------------------------------------------------------------------------------

  ==> Possible Intruders <==

    T1 amplitudes larger than 0.1000 for spin case A:
        Amplitude         Value                  Denominator              
    ----------------------------------------------------------------------
    [  2      10    ]    0.15153954 (  0.369713 -   1.263005 =  -0.893292)
    ----------------------------------------------------------------------
    T1 amplitudes larger than 0.1000 for spin case B:
        Amplitude         Value                  Denominator              
    ----------------------------------------------------------------------
    [  2      10    ]    0.15153954 (  0.369713 -   1.263005 =  -0.893292)
    ----------------------------------------------------------------------
    T2 amplitudes larger than 0.1000 for spin case AA: NULL
    T2 amplitudes larger than 0.1000 for spin case AB: NULL
    T2 amplitudes larger than 0.1000 for spin case BB: NULL

  ==> Second-Order Excitation Amplitudes Summary <==

    Active Indices:    1    2 
    Largest T1 amplitudes for spin case A:
       i       a                  i       a                  i       a               
    --------------------------------------------------------------------------------
    [  2      10    ]-0.002516 [  0       1    ] 0.000449 [  0       6    ] 0.000310 
    [  1      10    ] 0.000236 [  2       3    ]-0.000220 [  1       3    ] 0.000134 
    [  1       9    ]-0.000132 [  0       3    ] 0.000097 [  0       2    ]-0.000075 
    [  1       6    ] 0.000066 [  2       9    ] 0.000046 [  2       6    ]-0.000016 
    [  0      10    ]-0.000010 [  0       9    ]-0.000004 
    --------------------------------------------------------------------------------
    Norm of T1A vector: (nonzero elements: 14)                    0.152444056733552.
    --------------------------------------------------------------------------------
    Largest T1 amplitudes for spin case B:
       _       _                  _       _                  _       _               
       i       a                  i       a                  i       a               
    --------------------------------------------------------------------------------
    [  2      10    ]-0.002516 [  0       1    ] 0.000449 [  0       6    ] 0.000310 
    [  1      10    ] 0.000236 [  2       3    ]-0.000220 [  1       3    ] 0.000134 
    [  1       9    ]-0.000132 [  0       3    ] 0.000097 [  0       2    ]-0.000075 
    [  1       6    ] 0.000066 [  2       9    ] 0.000046 [  2       6    ]-0.000016 
    [  0      10    ]-0.000010 [  0       9    ]-0.000004 
    --------------------------------------------------------------------------------
    Norm of T1B vector: (nonzero elements: 14)                    0.152444056733552.
    --------------------------------------------------------------------------------
    Largest T2 amplitudes for spin case AA:
       i   j   a   b              i   j   a   b              i   j   a   b           
    --------------------------------------------------------------------------------
    [  1   2   1  10]-0.006218 [  1   2   2  10]-0.004969 [  1   2   9  10] 0.001447 
    [  1   2   3  10]-0.001184 [  1   2   1   3]-0.000678 [  0   1   1   9] 0.000363 
    [  0   2   9  10]-0.000322 [  0   2   1   2] 0.000284 [  0   1   1   6]-0.000249 
    [  0   2   1  10]-0.000225 [  0   2   6  10] 0.000223 [  0   2   4   8]-0.000175 
    [  0   2   5   7] 0.000175 [  0   1   1   3]-0.000169 [  0   1   6   9] 0.000167 
    --------------------------------------------------------------------------------
    Norm of T2AA vector: (nonzero elements: 224)                  0.078912024589267.
    --------------------------------------------------------------------------------
    Largest T2 amplitudes for spin case AB:
           _       _                  _       _                  _       _           
       i   j   a   b              i   j   a   b              i   j   a   b           
    --------------------------------------------------------------------------------
    [  2   2  10  10] 0.025107 [  2   2   2  10]-0.018776 [  1   1   1  10] 0.007065 
    [  1   1   2  10] 0.006560 [  1   2   1  10]-0.004674 [  1   2  10  10] 0.004056 
    [  1   1  10  10]-0.003054 [  1   2   9  10] 0.002825 [  1   2   2  10]-0.002710 
    [  2   2   9  10] 0.002519 [  2   2   1  10]-0.002334 [  2   2   2   3]-0.002232 
    [  2   2   3  10]-0.002199 [  1   2   3  10]-0.001586 [  1   1   9  10] 0.001401 
    --------------------------------------------------------------------------------
    Norm of T2AB vector: (nonzero elements: 416)                  0.158327214671788.
    --------------------------------------------------------------------------------
    Largest T2 amplitudes for spin case BB:
       _   _   _   _              _   _   _   _              _   _   _   _           
       i   j   a   b              i   j   a   b              i   j   a   b           
    --------------------------------------------------------------------------------
    [  1   2   1  10]-0.006218 [  1   2   2  10]-0.004969 [  1   2   9  10] 0.001447 
    [  1   2   3  10]-0.001184 [  1   2   1   3]-0.000678 [  0   1   1   9] 0.000363 
    [  0   2   9  10]-0.000322 [  0   2   1   2] 0.000284 [  0   1   1   6]-0.000249 
    [  0   2   1  10]-0.000225 [  0   2   6  10] 0.000223 [  0   2   4   8]-0.000175 
    [  0   2   5   7] 0.000175 [  0   1   1   3]-0.000169 [  0   1   6   9] 0.000167 
    --------------------------------------------------------------------------------
    Norm of T2BB vector: (nonzero elements: 224)                  0.078912024589267.
    --------------------------------------------------------------------------------

  ==> Possible Intruders <==

    T1 amplitudes larger than 0.1000 for spin case A: NULL
    T1 amplitudes larger than 0.1000 for spin case B: NULL
    T2 amplitudes larger than 0.1000 for spin case AA: NULL
    T2 amplitudes larger than 0.1000 for spin case AB: NULL
    T2 amplitudes larger than 0.1000 for spin case BB: NULL

  ==> DSRG-MRPT3 Energy Summary <==

    E0 (reference)                 =     -9.069018284885729
    2nd-order correlation energy   =     -0.001885865829606
    <[H~1st, A2nd]>                =      0.000342013264577
    <[H~2nd, A1st]>                =     -0.000014730157096
    3rd-order correlation energy   =      0.000327283107480
    DSRG-MRPT3 correlation energy  =     -0.001558582722126
    DSRG-MRPT3 total energy        =     -9.070576867607855

  ==> De-Normal-Order DSRG Transformed Hamiltonian <==

    Computing the scalar term                ... Done. Timing    0.003 s
    Computing the 1-body term                ... Done. Timing    0.003 s

  ==> Rotate DSRG Transformed Hamiltonian back to Original Basis <==

    Rotating 1-body term to original basis   ... Done. Timing    0.000 s
    Rotating 2-body term to original basis   ... Done. Timing    0.008 s

  ==> String Lists <==

  Number of alpha electrons     = 1
  Number of beta electrons      = 1
  Number of alpha strings       = 2
  Number of beta strings        = 2
  Timing for strings        =      0.000 s
  Timing for NN strings     =      0.000 s
  Timing for VO strings     =      0.000 s
  Timing for OO strings     =      0.000 s
  Timing for VVOO strings   =      0.000 s
  Timing for VOVO strings   =      0.000 s
  Timing for 1-hole strings =      0.000 s
  Timing for 2-hole strings =      0.000 s
  Timing for 3-hole strings =      0.000 s
  Total timing              =      0.000 s

  ==> FCI Solver <==

    Number of determinants                           4
    Symmetry                                         0
    Multiplicity                                     1
    Number of roots                                  1
    Target root                                      0
    Trial vectors per root                          10

  Allocating memory for the Hamiltonian algorithm. Size: 2 x 2 x 2.   Memory: 0.000000 GB

  ==> FCI Initial Guess <==

  ---------------------------------------------
    Root            Energy     <S^2>   Spin
  ---------------------------------------------
      0       -9.070691954300  0.000  singlet
      1       -8.841817719472  2.000  triplet
      2       -8.682625981961  0.000  singlet
      3       -8.342708506111  0.000  singlet
  ---------------------------------------------
  Timing for initial guess  =      0.000 s

  Projecting out root 1

  ==> Diagonalizing Hamiltonian <==

  Energy   convergence: 1.00e-12
  Residual convergence: 1.00e-06
  -----------------------------------------------------
    Iter.      Avg. Energy       Delta_E     Res. Norm
  -----------------------------------------------------
      1       -9.070691954300  -9.071e+00  +4.641e-15
      2       -9.070691954300  +0.000e+00  +4.641e-15
  -----------------------------------------------------
  The Davidson-Liu algorithm converged in 3 iterations.

  ==> Root No. 0 <==

    20     -0.99109353
    02      0.13304410

    Total Energy:      -9.070691954300, <S^2>: 0.000000

  ==> Energy Summary <==

    Multi.(2ms)  Irrep.  No.               Energy      <S^2>
    --------------------------------------------------------
       1  (  0)     A     0       -9.070691954300   0.000000
    --------------------------------------------------------

  => MRDSRG Reference Relaxation Energy Summary <=

                         Fixed Ref. (a.u.)              Relaxed Ref. (a.u.)
           -------------------------------  -------------------------------
    Iter.          Total Energy      Delta          Total Energy      Delta
    -----------------------------------------------------------------------
        1       -9.070576867608 -9.071e+00       -9.070691954300 -9.071e+00
    -----------------------------------------------------------------------

  ==> Total Timings (s) for Computing Commutators <==

             [H1, T1]    [H1, T2]    [H2, T1]    [H2, T2]
    -----------------------------------------------------
    -> C0       0.003       0.009       0.019       0.250
    -> C1       0.028       0.154       0.143       2.067
    -> C2                   0.526       0.796       3.872
    -----------------------------------------------------


  ==> Primary Basis Set Summary <==

  Basis Set: 3-21G
    Blend: 3-21G
    Number of shells: 11
    Number of basis function: 15
    Number of Cartesian functions: 15
    Spherical Harmonics?: false
    Max angular momentum: 1


  JK created using conventional PK integrals
  Using in-core PK algorithm.
   Calculation information:
      Number of atoms:                   4
      Number of AO shells:              11
      Number of primitives:             18
      Number of atomic orbitals:        15
      Number of basis functions:        15

      Integral cutoff                 1.00e-12
      Number of threads:                 1

  Performing in-core PK
  Using 14520 doubles for integral storage.
  We computed 2008 shell quartets total.
  Whereas there are 2211 unique shell quartets.

  ==> DiskJK: Disk-Based J/K Matrices <==

    J tasked:                  Yes
    K tasked:                  Yes
    wK tasked:                  No
    Memory [MiB]:              400
    Schwarz Cutoff:          1E-12

    OpenMP threads:              1



  ==> Integral Transformation <==

  Number of molecular orbitals:                         15
  Number of correlated molecular orbitals:              11
  Number of frozen occupied orbitals:                    1
  Number of frozen unoccupied orbitals:                  3
  Two-electron integral type:                 Conventional


  Computing Conventional Integrals	Presorting SO-basis two-electron integrals.
	Sorting File: SO Ints (nn|nn) nbuckets = 1
	Constructing frozen core operators
	Starting first half-transformation.
	Sorting half-transformed integrals.
	First half integral transformation complete.
	Starting second half-transformation.
	Two-electron integral transformation complete.

  Integral transformation done. 0.00385727 s
  Reading the two-electron integrals from disk
  Size of two-electron integrals:   0.001132 GB
  Timing for conventional integral transformation:            0.015 s.
  Frozen-core energy          -2.723719813912592 a.u.
  Timing for frozen one-body operator:                        0.000 s.
  Resorting integrals after freezing core.
  Timing for freezing core and virtual orbitals:              0.001 s.
  Timing for computing conventional integrals:                0.016 s.

                -----------------------------------------------
                  Complete Active Space Self Consistent Field
                                 Kevin Hannon
                -----------------------------------------------


  ==> CASSCF Iteration <==

  iter    ||g||           Delta_E            E_CASSCF       CONV_TYPE

  Transform Integrals takes 0.00014799 s.

  Performing a CAS with FCI

  ==> Summary of Active Space Solver Input <==

    Irrep.  Multi.(2ms)      N
    --------------------------
        A      1  (  0)      1
    --------------------------
    N: number of roots
    ms: spin z component
    Total number of roots:   1
    --------------------------


  ==> String Lists <==

  Number of alpha electrons     = 1
  Number of beta electrons      = 1
  Number of alpha strings       = 2
  Number of beta strings        = 2
  Timing for strings        =      0.000 s
  Timing for NN strings     =      0.000 s
  Timing for VO strings     =      0.000 s
  Timing for OO strings     =      0.000 s
  Timing for VVOO strings   =      0.000 s
  Timing for VOVO strings   =      0.000 s
  Timing for 1-hole strings =      0.000 s
  Timing for 2-hole strings =      0.000 s
  Timing for 3-hole strings =      0.000 s
  Total timing              =      0.000 s

  ==> FCI Solver <==

    Number of determinants                           4
    Symmetry                                         0
    Multiplicity                                     1
    Number of roots                                  1
    Target root                                      0
    Trial vectors per root                          10

  Allocating memory for the Hamiltonian algorithm. Size: 2 x 2 x 2.   Memory: 0.000000 GB

  ==> FCI Initial Guess <==

  ---------------------------------------------
    Root            Energy     <S^2>   Spin
  ---------------------------------------------
      0       -9.069018284885  0.000  singlet
      1       -8.791658397487  2.000  triplet
      2       -8.554543388973  0.000  singlet
      3       -8.239918744215  0.000  singlet
  ---------------------------------------------
  Timing for initial guess  =      0.000 s

  Projecting out root 1

  ==> Diagonalizing Hamiltonian <==

  Energy   convergence: 1.00e-12
  Residual convergence: 1.00e-06
  -----------------------------------------------------
    Iter.      Avg. Energy       Delta_E     Res. Norm
  -----------------------------------------------------
      1       -9.069018284885  -9.069e+00  +1.901e-15
      2       -9.069018284885  +0.000e+00  +1.901e-15
  -----------------------------------------------------
  The Davidson-Liu algorithm converged in 3 iterations.

  ==> Root No. 0 <==

    20     -0.98944459
    02      0.14487360

    Total Energy:      -9.069018284885, <S^2>: -0.000000

  ==> Energy Summary <==

    Multi.(2ms)  Irrep.  No.               Energy      <S^2>
    --------------------------------------------------------
       1  (  0)     A     0       -9.069018284885  -0.000000
    --------------------------------------------------------

  ==> Computing RDMs for Root No. 0 <==

    Timing for 1-RDM: 0.000 s
    Timing for 2-RDM: 0.000 s

  ==> NATURAL ORBITALS <==

        1A      1.958020      2A      0.041980  


 CAS took 0.001199 seconds.

 FormFockIntermediates took 0.00022459 s.

 FormOrbitalGradient took 0.00023261 s.

 FormDiagHessian took 0.00001457 s.

 Update function takes 0.00048903 s
    1 0.000000123492    -9.069018284885    -9.069018284885    0.0 s  DIIS ~

  Transform Integrals takes 0.00018297 s.

  Performing a CAS with FCI

  ==> Summary of Active Space Solver Input <==

    Irrep.  Multi.(2ms)      N
    --------------------------
        A      1  (  0)      1
    --------------------------
    N: number of roots
    ms: spin z component
    Total number of roots:   1
    --------------------------


  ==> String Lists <==

  Number of alpha electrons     = 1
  Number of beta electrons      = 1
  Number of alpha strings       = 2
  Number of beta strings        = 2
  Timing for strings        =      0.000 s
  Timing for NN strings     =      0.000 s
  Timing for VO strings     =      0.000 s
  Timing for OO strings     =      0.000 s
  Timing for VVOO strings   =      0.000 s
  Timing for VOVO strings   =      0.000 s
  Timing for 1-hole strings =      0.000 s
  Timing for 2-hole strings =      0.000 s
  Timing for 3-hole strings =      0.000 s
  Total timing              =      0.000 s

  ==> FCI Solver <==

    Number of determinants                           4
    Symmetry                                         0
    Multiplicity                                     1
    Number of roots                                  1
    Target root                                      0
    Trial vectors per root                          10

  Allocating memory for the Hamiltonian algorithm. Size: 2 x 2 x 2.   Memory: 0.000000 GB

  ==> FCI Initial Guess <==

  ---------------------------------------------
    Root            Energy     <S^2>   Spin
  ---------------------------------------------
      0       -9.069018284885  0.000  singlet
      1       -8.791658192482  2.000  triplet
      2       -8.554543180936  0.000  singlet
      3       -8.239918335814  0.000  singlet
  ---------------------------------------------
  Timing for initial guess  =      0.000 s

  Projecting out root 1

  ==> Diagonalizing Hamiltonian <==

  Energy   convergence: 1.00e-12
  Residual convergence: 1.00e-06
  -----------------------------------------------------
    Iter.      Avg. Energy       Delta_E     Res. Norm
  -----------------------------------------------------
      1       -9.069018284885  -9.069e+00  +2.556e-15
      2       -9.069018284885  +0.000e+00  +2.556e-15
  -----------------------------------------------------
  The Davidson-Liu algorithm converged in 3 iterations.

  ==> Root No. 0 <==

    20     -0.98944461
    02      0.14487353

    Total Energy:      -9.069018284885, <S^2>: 0.000000

  ==> Energy Summary <==

    Multi.(2ms)  Irrep.  No.               Energy      <S^2>
    --------------------------------------------------------
       1  (  0)     A     0       -9.069018284885   0.000000
    --------------------------------------------------------

  ==> Computing RDMs for Root No. 0 <==

    Timing for 1-RDM: 0.000 s
    Timing for 2-RDM: 0.000 s

  ==> NATURAL ORBITALS <==

        1A      1.958021      2A      0.041979  


 CAS took 0.001434 seconds.

 FormFockIntermediates took 0.00022903 s.

 FormOrbitalGradient took 0.00023169 s.

 FormDiagHessian took 0.00001256 s.

 Update function takes 0.00049500 s
     2   0.000000079962   -0.000000000000   -9.069018284885    0.002266 s

  A miracle has come to pass: CASSCF iterations have converged.

 @ Final CASSCF Energy =   -9.069018284885390


       -----------------------------------------------------------------
                            Semi-Canonical Orbitals
         Chenyang Li, Jeffrey B. Schriber and Francesco A. Evangelista
       -----------------------------------------------------------------

  Took 0.000311 s to build Fock matrix

  ==> Checking Fock Matrix Diagonal Blocks <==

    Off-Diag. Elements       Max           2-Norm
    ------------------------------------------------
    EMBEDDING_ACTV       0.0000000000   0.0000000000
    EMBEDDING_DOCC       0.0000000000   0.0000000000
    FROZEN_DOCC          0.0000000000   0.0000000000
    FROZEN_UOCC          0.0000000030   0.0000000055
    GAS1                 0.0000000657   0.0000000928
    GAS2                 0.0000000000   0.0000000000
    GAS3                 0.0000000000   0.0000000000
    GAS4                 0.0000000000   0.0000000000
    GAS5                 0.0000000000   0.0000000000
    GAS6                 0.0000000000   0.0000000000
    RESTRICTED_DOCC      0.0000000000   0.0000000000
    RESTRICTED_UOCC      0.0000002048   0.0000003602
    ------------------------------------------------
  Timing for semi-canonicalization:                           0.001 s.
 CASSCF(A) density will be written into the fragment (A) densiy blocks

  ==> Multireference Driven Similarity Renormalization Group <==

    Computing Fock matrix and cleaning JK ........... Done
    Reading DSRG options ............................ Done
    Setting ambit MO space .......................... Done
    Preparing tensors for density cumulants ......... Done
    Filling Fock matrix from ForteIntegrals ......... Done

           ----------------------------------------------------------
             Multireference Driven Similarity Renormalization Group
                   written by Chenyang Li and Tianyuan Zhang
           ----------------------------------------------------------


  ==> Density Cumulant Summary <==

    2-body             AA           AB           BB
    -----------------------------------------------
    max          0.020549     0.143348     0.020549
    norm         0.041098     0.206851     0.041098
    -----------------------------------------------

  ==> Checking Semicanonical Orbitals <==

    Block             Fa Max         Fa Mean           Fb Max         Fb Mean
    -------------------------------------------------------------------------
    CORE        0.0000000000    0.0000000000     0.0000000000    0.0000000000
    VIRTUAL     0.0000000020    0.0000000009     0.0000000020    0.0000000009
    GAS1        0.4113850390    0.0108010889     0.4113850390    0.0108010889
    -------------------------------------------------------------------------
    Warning! Orbitals are not semi-canonicalized!

  ==> Calculation Information <==

    Correlation level                                    PT2
    Integral type                               CONVENTIONAL
    Source operator                                 STANDARD
    Adaptive DSRG flow type                           DSRG_S
    Reference relaxation                                ONCE
    DSRG transformation type                         UNITARY
    Core-Virtual source type                          NORMAL
    PT2 0-order Hamiltonian                            FDIAG
    Restart amplitudes                                  TRUE
    Sequential DSRG transformation                     FALSE
    Omit blocks of >= 3 virtual indices                FALSE
    Read amplitudes from current dir                   FALSE
    Write amplitudes to current dir                    FALSE
    Flow parameter                                 5.000e-01
    Taylor expansion threshold                     1.000e-03
    Intruder amplitudes threshold                  1.000e-01
    Number of T amplitudes                                15
    DIIS start                                             2
    Min DIIS vectors                                       2
    Max DIIS vectors                                       6
    DIIS extrapolating freq                                1


  ==> Build Initial Amplitudes Guesses <==

    Computing T2 amplitudes ...          Done. Timing      0.012 s
    Computing T1 amplitudes ...          Done. Timing      0.003 s

  ==> Initial Excitation Amplitudes Summary <==

    Active Indices:    1    2    3    4    5    6    7    8    9   10 
                      11 
    Largest T1 amplitudes for spin case A:
       i       a                  i       a                  i       a               
    --------------------------------------------------------------------------------
    [ 11      12    ]-0.024022 [  4      13    ]-0.007999 [ 11      14    ] 0.006684 
    [  4      14    ] 0.006526 [  3      13    ]-0.002890 [ 11      13    ] 0.002829 
    [ 10      14    ] 0.001490 [  3      14    ] 0.001040 [ 10      12    ]-0.000712 
    [  0       1    ] 0.000594 [  7      12    ]-0.000457 [  0       2    ]-0.000401 
    [  7      14    ] 0.000396 [  7      13    ] 0.000295 [ 10      13    ]-0.000210 
    --------------------------------------------------------------------------------
    Norm of T1A vector: (nonzero elements: 31)                    0.027376884299614.
    --------------------------------------------------------------------------------
    Largest T1 amplitudes for spin case B:
       _       _                  _       _                  _       _               
       i       a                  i       a                  i       a               
    --------------------------------------------------------------------------------
    [ 11      12    ]-0.024022 [  4      13    ]-0.007999 [ 11      14    ] 0.006684 
    [  4      14    ] 0.006526 [  3      13    ]-0.002890 [ 11      13    ] 0.002829 
    [ 10      14    ] 0.001490 [  3      14    ] 0.001040 [ 10      12    ]-0.000712 
    [  0       1    ] 0.000594 [  7      12    ]-0.000457 [  0       2    ]-0.000401 
    [  7      14    ] 0.000396 [  7      13    ] 0.000295 [ 10      13    ]-0.000210 
    --------------------------------------------------------------------------------
    Norm of T1B vector: (nonzero elements: 31)                    0.027376884299614.
    --------------------------------------------------------------------------------
    Largest T2 amplitudes for spin case AA:
       i   j   a   b              i   j   a   b              i   j   a   b           
    --------------------------------------------------------------------------------
    [  0  11  11  12]-0.008289 [  0   2   2  12]-0.007271 [  0   3   3  12]-0.005915 
    [  0  10  10  12]-0.005526 [  1  10   1  13] 0.004828 [  0   1   1  12]-0.003799 
    [  2  11   2  12]-0.003269 [  0   9   9  12]-0.003268 [  0   8   8  12]-0.003268 
    [  0  10  12  14]-0.003190 [  1  10   1  14]-0.003068 [  0   7   7  12]-0.002905 
    [  0   6   6  12]-0.002833 [  0   5   5  12]-0.002833 [  0   4   4  12]-0.002668 
    --------------------------------------------------------------------------------
    Norm of T2AA vector: (nonzero elements: 5260)                 0.044119092075010.
    --------------------------------------------------------------------------------
    Largest T2 amplitudes for spin case AB:
           _       _                  _       _                  _       _           
       i   j   a   b              i   j   a   b              i   j   a   b           
    --------------------------------------------------------------------------------
    [  0   0  12  12]-0.041977 [  0   0  13  13]-0.035355 [  0   0  14  14]-0.030156 
    [  0   0  12  14] 0.026907 [  0   0  10  13]-0.005185 [  1  10   1  13] 0.005076 
    [  0  10  12  14]-0.004820 [  0  10  13  13] 0.004580 [ 11  11  11  12]-0.004080 
    [  0   0   4  13]-0.003877 [  2  11   2  12]-0.003814 [  0  10  14  14] 0.003530 
    [  3  11   3  12]-0.003276 [  1  10   1  14]-0.003269 [  0   4  12  14]-0.003193 
    --------------------------------------------------------------------------------
    Norm of T2AB vector: (nonzero elements: 6279)                 0.082688780641900.
    --------------------------------------------------------------------------------
    Largest T2 amplitudes for spin case BB:
       _   _   _   _              _   _   _   _              _   _   _   _           
       i   j   a   b              i   j   a   b              i   j   a   b           
    --------------------------------------------------------------------------------
    [  0  11  11  12]-0.008289 [  0   2   2  12]-0.007271 [  0   3   3  12]-0.005915 
    [  0  10  10  12]-0.005526 [  1  10   1  13] 0.004828 [  0   1   1  12]-0.003799 
    [  2  11   2  12]-0.003269 [  0   9   9  12]-0.003268 [  0   8   8  12]-0.003268 
    [  0  10  12  14]-0.003190 [  1  10   1  14]-0.003068 [  0   7   7  12]-0.002905 
    [  0   6   6  12]-0.002833 [  0   5   5  12]-0.002833 [  0   4   4  12]-0.002668 
    --------------------------------------------------------------------------------
    Norm of T2BB vector: (nonzero elements: 5260)                 0.044119092075010.
    --------------------------------------------------------------------------------

  ==> Possible Intruders <==

    T1 amplitudes larger than 0.1000 for spin case A: NULL
    T1 amplitudes larger than 0.1000 for spin case B: NULL
    T2 amplitudes larger than 0.1000 for spin case AA: NULL
    T2 amplitudes larger than 0.1000 for spin case AB: NULL
    T2 amplitudes larger than 0.1000 for spin case BB: NULL

  ==> Second-Order Perturbation DSRG-MRPT2 <==

    References:
      J. Chem. Theory Comput. 2015, 11, 2097-2108.
      J. Chem. Phys. 2017, 146, 124132.


  ==> DSRG-MRPT2 Energy Summary <==

    E0 (reference)                 =     -9.069018284886454
    <[F, A1]>                      =     -0.000002747755523
    <[F, A2]>                      =      0.000003695271194
    <[V, A1]>                      =      0.000002089061916
    <[V, A2]>                      =     -0.017405485828040
    DSRG-MRPT2 correlation energy  =     -0.017402449250453
[...]
    Largest T2 amplitudes for spin case AA:
       i   j   a   b              i   j   a   b              i   j   a   b           
    --------------------------------------------------------------------------------
    [  1   2   1  10] 0.032350 [  1   2   2  10] 0.018228 [  1   2   2   9] 0.008655 
    [  0   1   1   9] 0.004211 [  0   1   1   6]-0.003198 [  1   2   1   3] 0.003003 
    [  1   2   9  10] 0.002780 [  1   2   6  10] 0.002722 [  0   2   2   9] 0.002717 
    [  1   2   2   6] 0.002641 [  1   2   1   9]-0.002564 [  0   2   2   6]-0.002167 
    [  1   2   3  10] 0.001946 [  0   2   1   9] 0.001565 [  1   2   1   6]-0.001404 
    --------------------------------------------------------------------------------
    Norm of T2AA vector: (nonzero elements: 224)                  0.078866592239000.
    --------------------------------------------------------------------------------
    Largest T2 amplitudes for spin case AB:
           _       _                  _       _                  _       _           
       i   j   a   b              i   j   a   b              i   j   a   b           
    --------------------------------------------------------------------------------
    [  2   2  10  10]-0.052958 [  2   2   2  10] 0.051069 [  1   2   1  10] 0.050199 
    [  1   2   2  10] 0.048175 [  1   2  10  10]-0.025037 [  1   1   2  10] 0.019944 
    [  1   1  10  10]-0.019318 [  1   1   1  10] 0.018179 [  2   2   1  10] 0.012148 
    [  1   1   9   9]-0.009871 [  2   2   1   3] 0.006889 [  1   1   1   9]-0.006719 
    [  1   1   8   8]-0.006045 [  1   1   7   7]-0.006045 [  2   2   9  10]-0.005651 
    --------------------------------------------------------------------------------
    Norm of T2AB vector: (nonzero elements: 416)                  0.158360344446854.
    --------------------------------------------------------------------------------
    Largest T2 amplitudes for spin case BB:
       _   _   _   _              _   _   _   _              _   _   _   _           
       i   j   a   b              i   j   a   b              i   j   a   b           
    --------------------------------------------------------------------------------
    [  1   2   1  10] 0.032350 [  1   2   2  10] 0.018228 [  1   2   2   9] 0.008655 
    [  0   1   1   9] 0.004211 [  0   1   1   6]-0.003198 [  1   2   1   3] 0.003003 
    [  1   2   9  10] 0.002780 [  1   2   6  10] 0.002722 [  0   2   2   9] 0.002717 
    [  1   2   2   6] 0.002641 [  1   2   1   9]-0.002564 [  0   2   2   6]-0.002167 
    [  1   2   3  10] 0.001946 [  0   2   1   9] 0.001565 [  1   2   1   6]-0.001404 
    --------------------------------------------------------------------------------
    Norm of T2BB vector: (nonzero elements: 224)                  0.078866592239000.
    --------------------------------------------------------------------------------

  ==> Possible Intruders <==

    T1 amplitudes larger than 0.1000 for spin case A:
        Amplitude         Value                  Denominator              
    ----------------------------------------------------------------------
    [  2      10    ]    0.15163192 (  0.369313 -   1.264201 =  -0.894889)
    ----------------------------------------------------------------------
    T1 amplitudes larger than 0.1000 for spin case B:
        Amplitude         Value                  Denominator              
    ----------------------------------------------------------------------
    [  2      10    ]    0.15163192 (  0.369313 -   1.264201 =  -0.894889)
    ----------------------------------------------------------------------
    T2 amplitudes larger than 0.1000 for spin case AA: NULL
    T2 amplitudes larger than 0.1000 for spin case AB: NULL
    T2 amplitudes larger than 0.1000 for spin case BB: NULL

  ==> Third-Order Perturbation DSRG-MRPT3 <==

    Reference:
      J. Chem. Phys. 2017, 146, 124132.


  ==> Build Initial Amplitudes Guesses <==

    Computing T2 amplitudes ...          Done. Timing      0.145 s
    Computing T1 amplitudes ...          Done. Timing      0.014 s

  ==> Initial Excitation Amplitudes Summary <==

    Active Indices:    1    2 
    Largest T1 amplitudes for spin case A:
       i       a                  i       a                  i       a               
    --------------------------------------------------------------------------------
    [  2      10    ] 0.151632 [  2       3    ] 0.012257 [  2       9    ]-0.008217 
    [  1      10    ] 0.007336 [  2       6    ]-0.001111 [  1       9    ] 0.000435 
    [  1       3    ]-0.000431 [  0       1    ] 0.000359 [  1       6    ]-0.000332 
    [  0       2    ] 0.000171 [  0       9    ] 0.000001 [  0       6    ] 0.000001 
    [  0      10    ]-0.000000 [  0       3    ] 0.000000 
    --------------------------------------------------------------------------------
    Norm of T1A vector: (nonzero elements: 14)                    0.152530996675044.
    --------------------------------------------------------------------------------
    Largest T1 amplitudes for spin case B:
       _       _                  _       _                  _       _               
       i       a                  i       a                  i       a               
    --------------------------------------------------------------------------------
    [  2      10    ] 0.151632 [  2       3    ] 0.012257 [  2       9    ]-0.008217 
    [  1      10    ] 0.007336 [  2       6    ]-0.001111 [  1       9    ] 0.000435 
    [  1       3    ]-0.000431 [  0       1    ] 0.000359 [  1       6    ]-0.000332 
    [  0       2    ] 0.000171 [  0       9    ] 0.000001 [  0       6    ] 0.000001 
    [  0      10    ]-0.000000 [  0       3    ] 0.000000 
    --------------------------------------------------------------------------------
    Norm of T1B vector: (nonzero elements: 14)                    0.152530996675044.
    --------------------------------------------------------------------------------
    Largest T2 amplitudes for spin case AA:
       i   j   a   b              i   j   a   b              i   j   a   b           
    --------------------------------------------------------------------------------
    [  1   2   1  10] 0.032350 [  1   2   2  10] 0.018228 [  1   2   2   9] 0.008655 
    [  0   1   1   9] 0.004211 [  0   1   1   6]-0.003198 [  1   2   1   3] 0.003003 
    [  1   2   9  10] 0.002780 [  1   2   6  10] 0.002722 [  0   2   2   9] 0.002717 
    [  1   2   2   6] 0.002641 [  1   2   1   9]-0.002564 [  0   2   2   6]-0.002167 
    [  1   2   3  10] 0.001946 [  0   2   1   9] 0.001565 [  1   2   1   6]-0.001404 
    --------------------------------------------------------------------------------
    Norm of T2AA vector: (nonzero elements: 224)                  0.078866592239000.
    --------------------------------------------------------------------------------
    Largest T2 amplitudes for spin case AB:
           _       _                  _       _                  _       _           
       i   j   a   b              i   j   a   b              i   j   a   b           
    --------------------------------------------------------------------------------
    [  2   2  10  10]-0.052958 [  2   2   2  10] 0.051069 [  1   2   1  10] 0.050199 
    [  1   2   2  10] 0.048175 [  1   2  10  10]-0.025037 [  1   1   2  10] 0.019944 
    [  1   1  10  10]-0.019318 [  1   1   1  10] 0.018179 [  2   2   1  10] 0.012148 
    [  1   1   9   9]-0.009871 [  2   2   1   3] 0.006889 [  1   1   1   9]-0.006719 
    [  1   1   8   8]-0.006045 [  1   1   7   7]-0.006045 [  2   2   9  10]-0.005651 
    --------------------------------------------------------------------------------
    Norm of T2AB vector: (nonzero elements: 416)                  0.158360344446854.
    --------------------------------------------------------------------------------
    Largest T2 amplitudes for spin case BB:
       _   _   _   _              _   _   _   _              _   _   _   _           
       i   j   a   b              i   j   a   b              i   j   a   b           
    --------------------------------------------------------------------------------
    [  1   2   1  10] 0.032350 [  1   2   2  10] 0.018228 [  1   2   2   9] 0.008655 
    [  0   1   1   9] 0.004211 [  0   1   1   6]-0.003198 [  1   2   1   3] 0.003003 
    [  1   2   9  10] 0.002780 [  1   2   6  10] 0.002722 [  0   2   2   9] 0.002717 
    [  1   2   2   6] 0.002641 [  1   2   1   9]-0.002564 [  0   2   2   6]-0.002167 
    [  1   2   3  10] 0.001946 [  0   2   1   9] 0.001565 [  1   2   1   6]-0.001404 
    --------------------------------------------------------------------------------
    Norm of T2BB vector: (nonzero elements: 224)                  0.078866592239000.
    --------------------------------------------------------------------------------

  ==> Possible Intruders <==

    T1 amplitudes larger than 0.1000 for spin case A:
        Amplitude         Value                  Denominator              
    ----------------------------------------------------------------------
    [  2      10    ]    0.15163192 (  0.369313 -   1.264201 =  -0.894889)
    ----------------------------------------------------------------------
    T1 amplitudes larger than 0.1000 for spin case B:
        Amplitude         Value                  Denominator              
    ----------------------------------------------------------------------
    [  2      10    ]    0.15163192 (  0.369313 -   1.264201 =  -0.894889)
    ----------------------------------------------------------------------
    T2 amplitudes larger than 0.1000 for spin case AA: NULL
    T2 amplitudes larger than 0.1000 for spin case AB: NULL
    T2 amplitudes larger than 0.1000 for spin case BB: NULL

  ==> Second-Order Excitation Amplitudes Summary <==

    Active Indices:    1    2 
    Largest T1 amplitudes for spin case A:
       i       a                  i       a                  i       a               
    --------------------------------------------------------------------------------
    [  2      10    ]-0.002516 [  0       1    ] 0.000449 [  0       6    ] 0.000311 
    [  1      10    ] 0.000234 [  2       3    ]-0.000218 [  1       9    ]-0.000133 
    [  1       3    ] 0.000133 [  0       3    ] 0.000097 [  0       2    ]-0.000076 
    [  1       6    ] 0.000065 [  2       9    ] 0.000047 [  2       6    ]-0.000016 
    [  0      10    ]-0.000010 [  0       9    ]-0.000004 
    --------------------------------------------------------------------------------
    Norm of T1A vector: (nonzero elements: 14)                    0.152530996675044.
    --------------------------------------------------------------------------------
    Largest T1 amplitudes for spin case B:
       _       _                  _       _                  _       _               
       i       a                  i       a                  i       a               
    --------------------------------------------------------------------------------
    [  2      10    ]-0.002516 [  0       1    ] 0.000449 [  0       6    ] 0.000311 
    [  1      10    ] 0.000234 [  2       3    ]-0.000218 [  1       9    ]-0.000133 
    [  1       3    ] 0.000133 [  0       3    ] 0.000097 [  0       2    ]-0.000076 
    [  1       6    ] 0.000065 [  2       9    ] 0.000047 [  2       6    ]-0.000016 
    [  0      10    ]-0.000010 [  0       9    ]-0.000004 
    --------------------------------------------------------------------------------
    Norm of T1B vector: (nonzero elements: 14)                    0.152530996675044.
    --------------------------------------------------------------------------------
    Largest T2 amplitudes for spin case AA:
       i   j   a   b              i   j   a   b              i   j   a   b           
    --------------------------------------------------------------------------------
    [  1   2   1  10]-0.006225 [  1   2   2  10]-0.004975 [  1   2   9  10] 0.001447 
    [  1   2   3  10]-0.001178 [  1   2   1   3]-0.000673 [  0   1   1   9] 0.000362 
    [  0   2   9  10]-0.000322 [  0   2   1   2] 0.000284 [  0   1   1   6]-0.000248 
    [  0   2   1  10]-0.000225 [  0   2   6  10] 0.000223 [  0   2   4   8]-0.000175 
    [  0   2   5   7] 0.000175 [  0   1   1   3]-0.000169 [  0   1   6   9] 0.000167 
    --------------------------------------------------------------------------------
    Norm of T2AA vector: (nonzero elements: 224)                  0.078866592239000.
    --------------------------------------------------------------------------------
    Largest T2 amplitudes for spin case AB:
           _       _                  _       _                  _       _           
       i   j   a   b              i   j   a   b              i   j   a   b           
    --------------------------------------------------------------------------------
    [  2   2  10  10] 0.025186 [  2   2   2  10]-0.018833 [  1   1   1  10] 0.007066 
    [  1   1   2  10] 0.006553 [  1   2   1  10]-0.004686 [  1   2  10  10] 0.004090 
    [  1   1  10  10]-0.003029 [  1   2   9  10] 0.002821 [  1   2   2  10]-0.002746 
    [  2   2   9  10] 0.002529 [  2   2   1  10]-0.002369 [  2   2   2   3]-0.002216 
    [  2   2   3  10]-0.002209 [  1   2   3  10]-0.001582 [  1   1   9  10] 0.001395 
    --------------------------------------------------------------------------------
    Norm of T2AB vector: (nonzero elements: 416)                  0.158360344446854.
    --------------------------------------------------------------------------------
    Largest T2 amplitudes for spin case BB:
       _   _   _   _              _   _   _   _              _   _   _   _           
       i   j   a   b              i   j   a   b              i   j   a   b           
    --------------------------------------------------------------------------------
    [  1   2   1  10]-0.006225 [  1   2   2  10]-0.004975 [  1   2   9  10] 0.001447 
    [  1   2   3  10]-0.001178 [  1   2   1   3]-0.000673 [  0   1   1   9] 0.000362 
    [  0   2   9  10]-0.000322 [  0   2   1   2] 0.000284 [  0   1   1   6]-0.000248 
    [  0   2   1  10]-0.000225 [  0   2   6  10] 0.000223 [  0   2   5   7] 0.000175 
    [  0   2   4   8]-0.000175 [  0   1   1   3]-0.000169 [  0   1   6   9] 0.000167 
    --------------------------------------------------------------------------------
    Norm of T2BB vector: (nonzero elements: 224)                  0.078866592239000.
    --------------------------------------------------------------------------------

  ==> Possible Intruders <==

    T1 amplitudes larger than 0.1000 for spin case A: NULL
    T1 amplitudes larger than 0.1000 for spin case B: NULL
    T2 amplitudes larger than 0.1000 for spin case AA: NULL
    T2 amplitudes larger than 0.1000 for spin case AB: NULL
    T2 amplitudes larger than 0.1000 for spin case BB: NULL

  ==> DSRG-MRPT3 Energy Summary <==

    E0 (reference)                 =     -9.069018290551757
    2nd-order correlation energy   =     -0.001882614038509
    <[H~1st, A2nd]>                =      0.000341533013885
    <[H~2nd, A1st]>                =     -0.000014257813659
    3rd-order correlation energy   =      0.000327275200226
    DSRG-MRPT3 correlation energy  =     -0.001555338838283
    DSRG-MRPT3 total energy        =     -9.070573629390040

  ==> De-Normal-Order DSRG Transformed Hamiltonian <==

    Computing the scalar term                ... Done. Timing    0.003 s
    Computing the 1-body term                ... Done. Timing    0.002 s

  ==> Rotate DSRG Transformed Hamiltonian back to Original Basis <==

    Rotating 1-body term to original basis   ... Done. Timing    0.000 s
    Rotating 2-body term to original basis   ... Done. Timing    0.008 s

  ==> String Lists <==

  Number of alpha electrons     = 1
  Number of beta electrons      = 1
  Number of alpha strings       = 2
  Number of beta strings        = 2
  Timing for strings        =      0.000 s
  Timing for NN strings     =      0.000 s
  Timing for VO strings     =      0.000 s
  Timing for OO strings     =      0.000 s
  Timing for VVOO strings   =      0.000 s
  Timing for VOVO strings   =      0.000 s
  Timing for 1-hole strings =      0.000 s
  Timing for 2-hole strings =      0.000 s
  Timing for 3-hole strings =      0.000 s
  Total timing              =      0.000 s

  ==> FCI Solver <==

    Number of determinants                           4
    Symmetry                                         0
    Multiplicity                                     1
    Number of roots                                  1
    Target root                                      0
    Trial vectors per root                          10

  Allocating memory for the Hamiltonian algorithm. Size: 2 x 2 x 2.   Memory: 0.000000 GB

  ==> FCI Initial Guess <==

  ---------------------------------------------
    Root            Energy     <S^2>   Spin
  ---------------------------------------------
      0       -9.070688490141  0.000  singlet
      1       -8.841799846303  2.000  triplet
      2       -8.682607236448  0.000  singlet
      3       -8.342843646591  0.000  singlet
  ---------------------------------------------
  Timing for initial guess  =      0.000 s

  Projecting out root 1

  ==> Diagonalizing Hamiltonian <==

  Energy   convergence: 1.00e-12
  Residual convergence: 1.00e-06
  -----------------------------------------------------
    Iter.      Avg. Energy       Delta_E     Res. Norm
  -----------------------------------------------------
      1       -9.070688490141  -9.071e+00  +5.046e-15
      2       -9.070688490141  +0.000e+00  +5.046e-15
  -----------------------------------------------------
  The Davidson-Liu algorithm converged in 3 iterations.

  ==> Root No. 0 <==

    20     -0.99110152
    02      0.13298844

    Total Energy:      -9.070688490141, <S^2>: 0.000000

  ==> Energy Summary <==

    Multi.(2ms)  Irrep.  No.               Energy      <S^2>
    --------------------------------------------------------
       1  (  0)     A     0       -9.070688490141   0.000000
    --------------------------------------------------------

  => MRDSRG Reference Relaxation Energy Summary <=

                         Fixed Ref. (a.u.)              Relaxed Ref. (a.u.)
           -------------------------------  -------------------------------
    Iter.          Total Energy      Delta          Total Energy      Delta
    -----------------------------------------------------------------------
        1       -9.070573629390 -9.071e+00       -9.070688490141 -9.071e+00
    -----------------------------------------------------------------------

  ==> Total Timings (s) for Computing Commutators <==

             [H1, T1]    [H1, T2]    [H2, T1]    [H2, T2]
    -----------------------------------------------------
    -> C0       0.003       0.008       0.016       0.214
    -> C1       0.024       0.133       0.129       1.878
    -> C2                   0.461       0.721       3.526
    -----------------------------------------------------

  
  
    ============================ASET(2) Summary========================
    ASET(mf) energy                                = -9.070691954300
    E_c^B (Environment correlation, Hbar0)         = -0.017402449250
    E(Hbar) (Fragment energy computed using Hbar)  = -9.070688490141
    ASET(2) energy                                 = -9.088090939391
    =========================ASET(2) Procedure Done==================== 

  

  Time to prepare integrals:        0.000 seconds
  Time to run job          :       17.543 seconds
  Total                    :       17.543 seconds
    ASET2-[DSRG-MRPT3] (Density Optimization) energy......................................PASSED

    Psi4 stopped on: Tuesday, 08 June 2021 08:44AM
    Psi4 wall time for execution: 0:00:20.06

*** Psi4 exiting successfully. Buy a developer a beer!
