
    -----------------------------------------------------------------------
          Psi4: An Open-Source Ab Initio Electronic Structure Package
                               Psi4 1.7a1.dev2 

                         Git: Rev {master} 9240cbe 


    D. G. A. Smith, L. A. Burns, A. C. Simmonett, R. M. Parrish,
    M. C. Schieber, R. Galvelis, P. Kraus, H. Kruse, R. Di Remigio,
    A. Alenaizan, A. M. James, S. Lehtola, J. P. Misiewicz, M. Scheurer,
    R. A. Shaw, J. B. Schriber, Y. Xie, Z. L. Glick, D. A. Sirianni,
    J. S. O'Brien, J. M. Waldrop, A. Kumar, E. G. Hohenstein,
    B. P. Pritchard, B. R. Brooks, H. F. Schaefer III, A. Yu. Sokolov,
    K. Patkowski, A. E. DePrince III, U. Bozkaya, R. A. King,
    F. A. Evangelista, J. M. Turney, T. D. Crawford, C. D. Sherrill,
    J. Chem. Phys. 152(18) 184108 (2020). https://doi.org/10.1063/5.0006002

                            Additional Code Authors
    E. T. Seidl, C. L. Janssen, E. F. Valeev, M. L. Leininger,
    J. F. Gonthier, R. M. Richard, H. R. McAlexander, M. Saitow, X. Wang,
    P. Verma, M. H. Lechner, and A. Jiang

             Previous Authors, Complete List of Code Contributors,
                       and Citations for Specific Modules
    https://github.com/psi4/psi4/blob/master/codemeta.json
    https://github.com/psi4/psi4/graphs/contributors
    http://psicode.org/psi4manual/master/introduction.html#citing-psifour

    -----------------------------------------------------------------------


    Psi4 started on: Saturday, 28 May 2022 02:01PM

    Process ID: 4512
    Host:       CHE-FEVANGE-01i
    PSIDATADIR: /Users/fevange/Source/psi4/objdir-Release/stage/share/psi4
    Memory:     500.0 MiB
    Threads:    1
    
  ==> Input File <==

--------------------------------------------------------------------------
#! Generated using commit GITCOMMIT

import forte

refmcscf     = -99.406065223639 
refdsrgpt2   = -99.496189626630695

memory 500 mb

molecule HF{
  0 1
  F
  H  1 R
  R = 1.50
}

set globals{
   basis                   3-21g
   reference               twocon
   scf_type                pk
   e_convergence           8
   maxiter                 100
   docc                   [3,0,1,1]
}

set mcscf{
   docc                   [2,0,1,1]
   socc                   [2,0,0,0]
   maxiter                 1000
   level_shift             0.5
   d_convergence           10
   e_convergence           12
}

set forte{
   correlation_solver     mrdsrg
   active_space_solver    cas
   frozen_docc            [1,0,0,0]
   restricted_docc        [1,0,1,1]
   active                 [2,0,0,0]
   root_sym               0
   nroot                  1
   dsrg_s                 1.0
   relax_ref              iterate
   maxiter                100
   e_convergence          8
}

Emcscf, wfn = energy('mcscf', return_wfn=True)
compare_values(refmcscf,variable("CURRENT ENERGY"),10,"MCSCF energy") #TEST

energy('forte', ref_wfn=wfn)
compare_values(refdsrgpt2,variable("CURRENT ENERGY"),8,"MRDSRG fully relaxed energy") #TEST
--------------------------------------------------------------------------

  Memory set to 476.837 MiB by Python driver.

Scratch directory: /tmp/
   => Loading Basis Set <=

    Name: 3-21G
    Role: ORBITAL
    Keyword: BASIS
    atoms 1 entry F          line   101 file /Users/fevange/Source/psi4/objdir-Release/stage/share/psi4/basis/3-21g.gbs 
    atoms 2 entry H          line    21 file /Users/fevange/Source/psi4/objdir-Release/stage/share/psi4/basis/3-21g.gbs 


*** tstart() called on CHE-FEVANGE-01i
*** at Sat May 28 14:01:11 2022


         ------------------------------------------
           MCSCF: a self-consistent field program
            written by Francesco A. Evangelista
         ------------------------------------------

  MOs per irrep:                                      A1  A2  B1  B2 Total
  ----------------------------------------------------------------------------
  Total                                                7    0    2    2    11
  Doubly Occupied                                      2    0    1    1     4
  Active/Singly Occupied                               2    0    0    0     2
  ----------------------------------------------------------------------------

  Running an SCF calculation
  TWOCON MOs = [2 (A1),3 (A1)]

  Generated 66 pairs
  Distributed as [34 A1][4 A2][14 B1][14 B2]
  batch   0 pq = [       0,      34] index = [               0,             595]

  Allocated the PK matrix (595 elements) 
  Allocated the  K matrix (595 elements) 
  Reading the two-electron integrals to form PK and K ... 
  batch   0 ... done.


  =========================================================================================
         Cycle          Energy               D(Energy)            D(Density)            DIIS
  ===========================================================================================
  Setting level shift to 0.500 S
  @SCF    0      -90.711680138176     -90.711680138176       0.179571426993
    ci      = [ 0.00000000, 0.00000000]
    ci_grad = [ 0.00000000, 0.00000000]
  Setting level shift to 0.500 S
  @SCF    1      -99.209208290096      -8.497528151920       0.171539036662
    ci      = [ 0.00000000, 0.00000000]
    ci_grad = [ 0.00000000, 0.00000000]
  Setting level shift to 0.500 S
  @SCF    2      -99.181126225880       0.028082064216       0.014194650111
    ci      = [ 0.00000000, 0.00000000]
    ci_grad = [ 0.00000000, 0.00000000]
  Setting level shift to 0.500 S
  @SCF    3      -99.187147056378      -0.006020830498       0.007187093304
    ci      = [ 0.00000000, 0.00000000]
    ci_grad = [ 0.00000000, 0.00000000]
  Setting level shift to 0.500 S
  @SCF    4      -99.185505238746       0.001641817632       0.004582734282
    ci      = [ 0.00000000, 0.00000000]
    ci_grad = [ 0.00000000, 0.00000000]
  Setting level shift to 0.500 S
  @SCF    5      -99.188474395194      -0.002969156448       0.002877713567
    ci      = [ 0.00000000, 0.00000000]
    ci_grad = [ 0.00000000, 0.00000000]
  Setting level shift to 0.500 S
  @SCF    6      -99.186908015658       0.001566379537       0.001957181741
    ci      = [ 0.00000000, 0.00000000]
    ci_grad = [ 0.00000000, 0.00000000]
  Setting level shift to 0.500 S/E
  @SCF    7      -99.189018416396      -0.002110400739       0.001358833744
    ci      = [ 0.00000000, 0.00000000]
    ci_grad = [ 0.00000000, 0.00000000]
  Setting level shift to 0.500 S/E
  @SCF    8      -99.188321587265       0.000696829132       0.000571003453
    ci      = [ 0.00000000, 0.00000000]
    ci_grad = [ 0.00000000, 0.00000000]
  Setting level shift to 0.500 S/E
  @SCF    9      -99.188265995912       0.000055591352       0.000013369739
    ci      = [ 0.00000000, 0.00000000]
    ci_grad = [ 0.00000000, 0.00000000]
  Setting level shift to 0.500 S/E
  @SCF   10      -99.188257103781       0.000008892132       0.000002169527
    ci      = [-0.93934204, 0.34298182]
    ci_grad = [ 0.00000000, 0.00000000]
  Setting level shift to 0.500 S/E
  @SCF   11      -99.188255335433       0.000001768348       0.000000855765
    ci      = [-0.93934230, 0.34298111]
    ci_grad = [-0.00000152, 0.00000100]
  Setting level shift to 0.500 S/E
  @SCF   12      -99.188255068850       0.000000266583       0.000000113202
    ci      = [-0.93934223, 0.34298130]
    ci_grad = [-0.00000029,-0.00000001]
  Setting level shift to 0.500 S/E
  @SCF   13      -99.188257583990      -0.000002515140       0.000000557819
    ci      = [-0.93934249, 0.34298060]
    ci_grad = [ 0.00000250,-0.00000048]
  Setting level shift to 0.500 S/E
  @SCF   14      -99.188256442179       0.000001141811       0.000000350227
    ci      = [-0.93934242, 0.34298079]
    ci_grad = [-0.00000111, 0.00000029]
  Setting level shift to 0.500 S/E
  @SCF   15      -99.188256647831      -0.000000205651       0.000000028667
    ci      = [-0.93934243, 0.34298075]
    ci_grad = [ 0.00000020,-0.00000005]
  Setting level shift to 0.500 S/E
  @SCF   16      -99.188272232214      -0.000015584384       0.000001972461
    ci      = [-0.93934243, 0.34298075]
    ci_grad = [ 0.00001561,-0.00000267]
  Setting level shift to 0.500 S/E
  @SCF   17      -99.188250699436       0.000021532778       0.000002903978
    ci      = [-0.93934243, 0.34298075]
    ci_grad = [-0.00002003, 0.00000793]
  Setting level shift to 0.500 S/E
  @SCF   18      -99.338057482234      -0.149806782798       0.036353856879
    ci      = [-0.93934243, 0.34298075]
    ci_grad = [ 0.16016406, 0.02883175]
  Setting level shift to 0.500 S/E
  @SCF   19      -99.382638143471      -0.044580661237       0.017252448984
    ci      = [-0.93934243, 0.34298075]
    ci_grad = [ 0.05105403, 0.01349778]
  Setting level shift to 0.500 S/E
  @SCF   20      -99.391016261068      -0.008378117597       0.006382354866
    ci      = [-0.93934243, 0.34298075]
    ci_grad = [ 0.01838764, 0.03076666]
  Setting level shift to 0.500 S/E
  @SCF   21      -99.396614184646      -0.005597923579       0.005353256045
    ci      = [-0.93934243, 0.34298075]
    ci_grad = [ 0.01346101, 0.02328721]
  Setting level shift to 0.500 S/E
  @SCF   22      -99.402012947510      -0.005398762863       0.006403955326
    ci      = [-0.93934243, 0.34298075]
    ci_grad = [ 0.01309078, 0.02265728]
  Setting level shift to 0.500 S/E
  @SCF   23      -99.404448589249      -0.002435641739       0.004517039155
    ci      = [-0.93934243, 0.34298075]
    ci_grad = [ 0.00879214, 0.01857733]
  Setting level shift to 0.500 S/E
  @SCF   24      -99.405884220378      -0.001435631129       0.005155395826
    ci      = [-0.93934243, 0.34298075]
    ci_grad = [ 0.00790144, 0.01904330]
  Setting level shift to 0.500 S/E
  @SCF   25      -99.405932985177      -0.000048764798       0.000640662839
    ci      = [-0.93934243, 0.34298075]
    ci_grad = [ 0.00659311, 0.01949757]
  Setting level shift to 0.500 S/E
  @SCF   26      -99.405964395486      -0.000031410310       0.000494551437
    ci      = [-0.93934243, 0.34298075]
    ci_grad = [ 0.00660617, 0.01959695]
  Setting level shift to 0.500 S/E
  @SCF   27      -99.405975021040      -0.000010625554       0.000413172596
    ci      = [-0.93934243, 0.34298075]
    ci_grad = [ 0.00657033, 0.01955151]
  Setting level shift to 0.500 S/E
  @SCF   28      -99.405962763803       0.000012257237       0.000189429593
    ci      = [-0.93934243, 0.34298075]
    ci_grad = [ 0.00647199, 0.01930913]
  Setting level shift to 0.500 S/E
  @SCF   29      -99.405970237210      -0.000007473408       0.000156044867
    ci      = [-0.94800818, 0.31824596]
    ci_grad = [ 0.00652138, 0.01940277]
  Setting level shift to 0.500 S/E
  @SCF   30      -99.405970916083      -0.000000678873       0.000041934570
    ci      = [-0.94801191, 0.31823484]
    ci_grad = [ 0.00000356, 0.00000847]
  Setting level shift to 0.500 S/E
  @SCF   31      -99.405968016439       0.000002899645       0.000018864874
    ci      = [-0.94799008, 0.31829987]
    ci_grad = [-0.00001980,-0.00004986]
  Setting level shift to 0.500 S/E
  @SCF   32      -99.405961948592       0.000006067847       0.000036440736
    ci      = [-0.94794592, 0.31843137]
    ci_grad = [-0.00004024,-0.00010075]
  Setting level shift to 0.500 S/E
  @SCF   33      -99.405956710324       0.000005238268       0.000034914904
    ci      = [-0.94790926, 0.31854048]
    ci_grad = [-0.00003359,-0.00008351]
  Setting level shift to 0.500 S/E
  @SCF   34      -99.405976118097      -0.000019407773       0.000149655080
    ci      = [-0.94790926, 0.31854048]
    ci_grad = [ 0.00012819, 0.00032102]
  Setting level shift to 0.500 S/E
  @SCF   35      -99.406023246432      -0.000047128335       0.000470219305
    ci      = [-0.94790926, 0.31854048]
    ci_grad = [ 0.00049054, 0.00131972]
  Setting level shift to 0.500 S/E
  @SCF   36      -99.406037409332      -0.000014162900       0.000196074586
    ci      = [-0.94790926, 0.31854048]
    ci_grad = [ 0.00059778, 0.00174804]
  Setting level shift to 0.500 S/E
  @SCF   37      -99.406062399246      -0.000024989914       0.000591759703
    ci      = [-0.94790926, 0.31854048]
    ci_grad = [ 0.00102848, 0.00302259]
  Setting level shift to 0.500 S/E
  @SCF   38      -99.406062877235      -0.000000477988       0.000023542914
    ci      = [-0.94921088, 0.31464060]
    ci_grad = [ 0.00102232, 0.00308262]
  Setting level shift to 0.500 S/E
  @SCF   39      -99.406062940256      -0.000000063022       0.000027567764
    ci      = [-0.94921162, 0.31463837]
    ci_grad = [ 0.00000064, 0.00000174]
  Setting level shift to 0.500 S/E
  @SCF   40      -99.406065083523      -0.000002143267       0.000193056113
    ci      = [-0.94938222, 0.31412322]
    ci_grad = [ 0.00013692, 0.00040698]
  Setting level shift to 0.500 S/E
  @SCF   41      -99.406064725847       0.000000357677       0.000048949849
    ci      = [-0.94933128, 0.31427715]
    ci_grad = [-0.00004064,-0.00012163]
  Setting level shift to 0.500 S/E
  @SCF   42      -99.406065174489      -0.000000448642       0.000083993811
    ci      = [-0.94940388, 0.31405776]
    ci_grad = [ 0.00005787, 0.00017351]
  Setting level shift to 0.500 S/E
  @SCF   43      -99.406065210561      -0.000000036072       0.000017277352
    ci      = [-0.94941993, 0.31400922]
    ci_grad = [ 0.00001274, 0.00003842]
  Setting level shift to 0.500 S/E
  @SCF   44      -99.406065222649      -0.000000012088       0.000014406742
    ci      = [-0.94943242, 0.31397145]
    ci_grad = [ 0.00000990, 0.00002990]
  Setting level shift to 0.500 S/E
  @SCF   45      -99.406065223311      -0.000000000662       0.000008131022
    ci      = [-0.94943950, 0.31395006]
    ci_grad = [ 0.00000560, 0.00001694]
  Setting level shift to 0.500 S/E
  @SCF   46      -99.406065223543      -0.000000000232       0.000001628282
    ci      = [-0.94943838, 0.31395344]
    ci_grad = [-0.00000088,-0.00000267]
  Setting level shift to 0.500 S/E
  @SCF   47      -99.406065223631      -0.000000000088       0.000001935669
    ci      = [-0.94943665, 0.31395867]
    ci_grad = [-0.00000137,-0.00000414]
  Setting level shift to 0.500 S/E
  @SCF   48      -99.406065223636      -0.000000000005       0.000000241954
    ci      = [-0.94943682, 0.31395814]
    ci_grad = [ 0.00000014, 0.00000041]
  Setting level shift to 0.500 S/E
  @SCF   49      -99.406065223629       0.000000000008       0.000000371955
    ci      = [-0.94943648, 0.31395917]
    ci_grad = [-0.00000027,-0.00000082]
  Setting level shift to 0.500 S/E
  @SCF   50      -99.406065223639      -0.000000000010       0.000000551023
    ci      = [-0.94943692, 0.31395784]
    ci_grad = [ 0.00000035, 0.00000105]
  Setting level shift to 0.500 S/E
  @SCF   51      -99.406065223638       0.000000000001       0.000000277261
    ci      = [-0.94943713, 0.31395723]
    ci_grad = [ 0.00000016, 0.00000048]
  Setting level shift to 0.500 S/E
  @SCF   52      -99.406065223639      -0.000000000001       0.000000119288
    ci      = [-0.94943702, 0.31395755]
    ci_grad = [-0.00000008,-0.00000025]
  Setting level shift to 0.500 S/E
  @SCF   53      -99.406065223639       0.000000000000       0.000000015124
    ci      = [-0.94943702, 0.31395756]
    ci_grad = [-0.00000000,-0.00000001]
  Setting level shift to 0.500 S/E
  @SCF   54      -99.406065223639      -0.000000000000       0.000000055693
    ci      = [-0.94943697, 0.31395771]
    ci_grad = [-0.00000004,-0.00000012]
  Setting level shift to 0.500 S/E
  @SCF   55      -99.406065223640      -0.000000000000       0.000000007652
    ci      = [-0.94943697, 0.31395769]
    ci_grad = [ 0.00000001, 0.00000002]
  Setting level shift to 0.500 S/E
  @SCF   56      -99.406065223639       0.000000000000       0.000000027035
    ci      = [-0.94943695, 0.31395776]
    ci_grad = [-0.00000002,-0.00000005]
  Setting level shift to 0.500 S/E
  @SCF   57      -99.406065223639       0.000000000000       0.000000023859
    ci      = [-0.94943697, 0.31395770]
    ci_grad = [ 0.00000002, 0.00000005]
  Setting level shift to 0.500 S/E
  @SCF   58      -99.406065223639       0.000000000000       0.000000007854
    ci      = [-0.94943697, 0.31395772]
    ci_grad = [-0.00000001,-0.00000002]
  Setting level shift to 0.500 S/E
  @SCF   59      -99.406065223640      -0.000000000000       0.000000004092
    ci      = [-0.94943697, 0.31395771]
    ci_grad = [ 0.00000000, 0.00000001]
  Setting level shift to 0.500 S/E
  @SCF   60      -99.406065223639       0.000000000000       0.000000000800
    ci      = [-0.94943697, 0.31395771]
    ci_grad = [-0.00000000,-0.00000000]
  Setting level shift to 0.500 S/E
  @SCF   61      -99.406065223639       0.000000000000       0.000000000776
    ci      = [-0.94943697, 0.31395771]
    ci_grad = [-0.00000000,-0.00000000]
  Setting level shift to 0.500 S/E
  @SCF   62      -99.406065223640      -0.000000000000       0.000000000102
    ci      = [-0.94943697, 0.31395771]
    ci_grad = [ 0.00000000, 0.00000000]
  Setting level shift to 0.500 S/E
  @SCF   63      -99.406065223640       0.000000000000       0.000000000141
    ci      = [-0.94943697, 0.31395771]
    ci_grad = [-0.00000000,-0.00000000]
  Setting level shift to 0.500 S/E
  @SCF   64      -99.406065223639       0.000000000000       0.000000000069
    ci      = [-0.94943697, 0.31395771]
    ci_grad = [-0.00000000,-0.00000000]
  Setting level shift to 0.500 S/E
  @SCF   65      -99.406065223639      -0.000000000000       0.000000000029
    ci      = [-0.94943697, 0.31395771]
    ci_grad = [ 0.00000000, 0.00000000]
  Setting level shift to 0.500 S/E
  @SCF   66      -99.406065223639       0.000000000000       0.000000000025
    ci      = [-0.94943697, 0.31395771]
    ci_grad = [ 0.00000000, 0.00000000]
  Setting level shift to 0.500 S/E
  @SCF   67      -99.406065223640      -0.000000000000       0.000000000008
    ci      = [-0.94943697, 0.31395771]
    ci_grad = [-0.00000000,-0.00000000]
  =========================================================================================

      * SCF total energy   =     -99.406065223640


      CI coefficients  = [-0.949436969, 0.313957709]

  End of SCF
  MOs orthonormality check passed.

  Orbitals are canonicalized as:
  inactive (docc + uocc) : Fock(core)
  active   (actv)        : Fock(core)

  =========================================================================
  Eigenvalues (Eh)
  -------------------------------------------------------------------------
  Doubly occupied orbitals
      1    -26.175209  A1      2     -1.495695  A1      3     -0.623385  B1
      4     -0.623385  B2
  Active orbitals
      5     -0.510102  A1      6      0.074682  A1
  Unoccupied orbitals
      7      1.595133  A1      8      2.709370  B1      9      2.709370  B2
     10      2.796416  A1     11      3.870480  A1
  =========================================================================


  MCSCF Execution Completed.


*** tstop() called on CHE-FEVANGE-01i at Sat May 28 14:01:11 2022
Module time:
	user time   =       0.01 seconds =       0.00 minutes
	system time =       0.01 seconds =       0.00 minutes
	total time  =          0 seconds =       0.00 minutes
Total time:
	user time   =       0.01 seconds =       0.00 minutes
	system time =       0.01 seconds =       0.00 minutes
	total time  =          0 seconds =       0.00 minutes
    MCSCF energy..........................................................................PASSED

Scratch directory: /tmp/

  Forte
  ----------------------------------------------------------------------------
  A suite of quantum chemistry methods for strongly correlated electrons

    git branch: psi1.6 - git commit: d2a2a05a

  Developed by:
    Francesco A. Evangelista, Chenyang Li, Kevin P. Hannon,
    Jeffrey B. Schriber, Tianyuan Zhang, Chenxi Cai,
    Nan He, Nicholas Stair, Shuhe Wang, Renke Huang
  ----------------------------------------------------------------------------

  Size of Determinant class: 128 bits

  Preparing forte objects from a Psi4 Wavefunction object
  Read options for space FROZEN_DOCC
  Read options for space RESTRICTED_DOCC
  Read options for space ACTIVE
  Read options for space FROZEN_DOCC
  Read options for space RESTRICTED_DOCC

  ==> MO Space Information <==

  -------------------------------------------------
                       A1    A2    B1    B2   Sum
  -------------------------------------------------
    FROZEN_DOCC         1     0     0     0     1
    RESTRICTED_DOCC     1     0     1     1     3
    GAS1                2     0     0     0     2
    GAS2                0     0     0     0     0
    GAS3                0     0     0     0     0
    GAS4                0     0     0     0     0
    GAS5                0     0     0     0     0
    GAS6                0     0     0     0     0
    RESTRICTED_UOCC     3     0     1     1     5
    FROZEN_UOCC         0     0     0     0     0
    Total               7     0     2     2    11
  -------------------------------------------------   => Loading Basis Set <=

    Name: 3-21G
    Role: ORBITAL
    Keyword: BASIS
    atoms 1 entry F          line   101 file /Users/fevange/Source/psi4/objdir-Release/stage/share/psi4/basis/3-21g.gbs 
    atoms 2 entry H          line    21 file /Users/fevange/Source/psi4/objdir-Release/stage/share/psi4/basis/3-21g.gbs 


  Checking orbital orthonormality against current geometry ... Done (OK)

   => Loading Basis Set <=

    Name: STO-3G
    Role: ORBITAL
    Keyword: MINAO_BASIS
    atoms 1 entry F          line    91 file /Users/fevange/Source/psi4/objdir-Release/stage/share/psi4/basis/sto-3g.gbs 
    atoms 2 entry H          line    19 file /Users/fevange/Source/psi4/objdir-Release/stage/share/psi4/basis/sto-3g.gbs 


  Forte will use psi4 integrals

  ==> Primary Basis Set Summary <==

  Basis Set: 3-21G
    Blend: 3-21G
    Number of shells: 7
    Number of basis functions: 11
    Number of Cartesian functions: 11
    Spherical Harmonics?: false
    Max angular momentum: 1


  JK created using conventional PK integrals
  Using in-core PK algorithm.
   Calculation information:
      Number of atoms:                   2
      Number of AO shells:               7
      Number of primitives:             12
      Number of atomic orbitals:        11
      Number of basis functions:        11

      Integral cutoff                 1.00e-12
      Number of threads:                 1

  Performing in-core PK
  Using 4422 doubles for integral storage.
  We computed 406 shell quartets total.
  Whereas there are 406 unique shell quartets.

  ==> DiskJK: Disk-Based J/K Matrices <==

    J tasked:                  Yes
    K tasked:                  Yes
    wK tasked:                  No
    Memory [MiB]:              381
    Schwarz Cutoff:          1E-12

    OpenMP threads:              1



  ==> Integral Transformation <==

  Number of molecular orbitals:                         11
  Number of correlated molecular orbitals:              10
  Number of frozen occupied orbitals:                    1
  Number of frozen unoccupied orbitals:                  0
  Two-electron integral type:                 Conventional


  Computing Conventional Integrals	Presorting SO-basis two-electron integrals.
	Sorting File: SO Ints (nn|nn) nbuckets = 1
	Constructing frozen core operators
	Starting first half-transformation.
	Sorting half-transformed integrals.
	First half integral transformation complete.
	Starting second half-transformation.
	Two-electron integral transformation complete.

  Integral transformation done. 0.00278817 s
  Reading the two-electron integrals from disk
  Size of two-electron integrals:   0.000327 GB
  Timing for conventional integral transformation:            0.006 s.
  Frozen-core energy         -75.818535539737638 a.u.
  Timing for frozen one-body operator:                        0.000 s.
  Resorting integrals after freezing core.
  Timing for freezing core and virtual orbitals:              0.000 s.
  Timing for computing conventional integrals:                0.006 s.

  ==> Summary of Active Space Solver Input <==

    Irrep.  Multi.(2ms)      N
    --------------------------
       A1      1  (  0)      1
    --------------------------
    N: number of roots
    ms: spin z component
    Total number of roots:   1
    --------------------------


              ---------------------------------------------------
                Complete Active Space Configuration Interaction
                                  Chenyang Li
              ---------------------------------------------------


  ==> Input Summary <==

    No. a electrons in active      =     1
    No. b electrons in active      =     1
    multiplicity                   =     1
    spin ms (2 * Sz)               =     0

  ==> Orbital Spaces <==

    TOTAL MO                      [    7     0     2     2 ]
    FROZEN CORE                   [    1     0     0     0 ]
    FROZEN VIRTUAL                [    0     0     0     0 ]
    CORRELATED MO                 [    6     0     2     2 ]
    CORE                          [    1     0     1     1 ]
    ACTIVE                        [    2     0     0     0 ]
    VIRTUAL                       [    3     0     1     1 ]
  Forming alpha and beta strings      ...  Done. Timing        0.000007 s
  Forming determinants                ...  Done. Timing        0.000002 s

  ==> Determinants Summary <==

    number of alpha active electrons         =     1
    number of beta active electrons          =     1
    root symmetry (zero based)               =     0
    number of determinants                   =     4

  Diagonalizing Hamiltonian           ...

  ==> Computing 1 Coupling Lists <==

        α          1.958e-06 seconds
        β          1.625e-06 seconds

  ==> Computing 2 Coupling Lists <==

        αα         1.000e-06 seconds
        ββ         7.920e-07 seconds
        αβ         2.458e-06 seconds

  Davidson-Liu solver algorithm using SigmaVectorSparseList sigma algorithm

  Performing diagonalization of the H matrix
  Found 3 roots with 2S+1 = 1 *
  Found 1 roots with 2S+1 = 3  Done. Timing        0.000078 s

  * * * * * * * * * * * * * * * * *
  *  CI Vectors & Configurations  *
  * * * * * * * * * * * * * * * * *

  ==> Root No. 0 <==

    20          0.9494369686
    02         -0.3139577085

    Total Energy:   -99.406065223639530



  ==> Energy Summary <==

    Multi.(2ms)  Irrep.  No.               Energy      <S^2>
    --------------------------------------------------------
       1  (  0)    A1     0      -99.406065223640   0.000000
    --------------------------------------------------------
 Computing  1RDMs (0 Singlet A1 - 0 Singlet A1) ... Done. Timing        0.000011 s

  ==> Permanent Dipole Moments [e a0] for Singlet (Ms = 0) A1 <==

       State           DM_X           DM_Y           DM_Z           |DM|
    --------------------------------------------------------------------
         0A1     0.00000000     0.00000000     0.49437035     0.49437035
    --------------------------------------------------------------------
 Computing  1RDMs (0 Singlet A1 - 0 Singlet A1) ... Done. Timing        0.000011 s
 Computing  2RDMs (0 Singlet A1 - 0 Singlet A1) ... Done. Timing        0.000008 s
 Computing  3RDMs (0 Singlet A1 - 0 Singlet A1) ... Done. Timing        0.000009 s

  ==> Semicanonicalize Orbitals <==

    MIX INACTIVE ORBITALS   ...... FALSE
    MIX GAS ACTIVE ORBITALS ...... FALSE
    FROZEN_DOCC     ...  CANONICAL
    FROZEN_UOCC     ...  CANONICAL
    GAS1            ...  CANONICAL
    RESTRICTED_DOCC ...  CANONICAL
    RESTRICTED_UOCC ...  CANONICAL

    Off-Diag. Elements       Max           2-Norm
    ------------------------------------------------
    FROZEN_DOCC          0.0000000000   0.0000000000
    GAS1                 0.0348818653   0.0493304070
    RESTRICTED_DOCC      0.0000000000   0.0000000000
    RESTRICTED_UOCC      0.0000000000   0.0000000000
    ------------------------------------------------
  Integrals are about to be updated.
  Computing Conventional Integrals	Presorting SO-basis two-electron integrals.
	Sorting File: SO Ints (nn|nn) nbuckets = 1
	Constructing frozen core operators
	Starting first half-transformation.
	Sorting half-transformed integrals.
	First half integral transformation complete.
	Starting second half-transformation.
	Two-electron integral transformation complete.

  Integral transformation done. 0.00277329 s
  Reading the two-electron integrals from disk
  Size of two-electron integrals:   0.000327 GB
  Timing for conventional integral transformation:            0.006 s.
  Frozen-core energy         -75.818535539737638 a.u.
  Timing for frozen one-body operator:                        0.000 s.
  Resorting integrals after freezing core.
  Timing for freezing core and virtual orbitals:              0.000 s.
  Integrals update took     0.006 s.
  Orbital rotations on spin-dependent RDMs ...
    Transformed 1 RDMs.
    Transformed 2 RDMs.
    Transformed 3 RDMs.
  Timing for orbital canonicalization:                        0.118 s.

  ==> Multireference Driven Similarity Renormalization Group <==

    Computing Fock matrix and cleaning JK ........... Done
    Reading DSRG options ............................ Done
    Setting ambit MO space .......................... Done
    Preparing tensors for density cumulants ......... Done
    Filling Fock matrix from ForteIntegrals ......... Done

           ----------------------------------------------------------
             Multireference Driven Similarity Renormalization Group
                   written by Chenyang Li and Tianyuan Zhang
           ----------------------------------------------------------


  ==> Density Cumulant Summary <==

    2-body             AA           AB           BB
    -----------------------------------------------
    max          0.088854     0.294745     0.088854
    norm         0.177707     0.457479     0.177707
    -----------------------------------------------
    3-body            AAA          AAB          ABB          BBB
    ------------------------------------------------------------
    max          0.000000     0.070835     0.070835     0.000000
    norm         0.000000     0.201772     0.201772     0.000000
    ------------------------------------------------------------

  ==> Checking Semicanonical Orbitals <==

    Block             Fa Max         Fa Mean           Fb Max         Fb Mean
    -------------------------------------------------------------------------
    CORE        0.0000000000    0.0000000000     0.0000000000    0.0000000000
    VIRTUAL     0.0000000000    0.0000000000     0.0000000000    0.0000000000
    GAS1        0.0000000000    0.0000000000     0.0000000000    0.0000000000
    -------------------------------------------------------------------------
    Orbitals are semi-canonicalized.

  ==> Calculation Information <==

    Correlation level                                    PT2
    Integral type                               CONVENTIONAL
    Source operator                                 STANDARD
    Adaptive DSRG flow type                           DSRG_S
    Reference relaxation                             ITERATE
    DSRG transformation type                         UNITARY
    Core-Virtual source type                          NORMAL
    T1 amplitudes initial guess                          PT2
    PT2 0-order Hamiltonian                            FDIAG
    Restart amplitudes                                  TRUE
    Sequential DSRG transformation                     FALSE
    Omit blocks of >= 3 virtual indices                FALSE
    Read amplitudes from current dir                   FALSE
    Write amplitudes to current dir                    FALSE
    Flow parameter                                 1.000e+00
    Taylor expansion threshold                     1.000e-03
    Intruder amplitudes threshold                  1.000e-01
    Number of T amplitudes                                15
    DIIS start                                             2
    Min DIIS vectors                                       3
    Max DIIS vectors                                       8
    DIIS extrapolating freq                                1


  ==> Build Initial Amplitudes Guesses <==

    Computing T2 amplitudes ...          Done. Timing      0.000 s
    Computing T1 amplitudes ...          Done. Timing      0.000 s

  ==> Initial Excitation Amplitudes Summary <==

    Active Indices:    1    2 
    Largest T1 amplitudes for spin case A:
       i       a                  i       a                  i       a               
    --------------------------------------------------------------------------------
    [  2       4    ] 0.102481 [  2       3    ]-0.096228 [  0       1    ]-0.039643 
    [  1       4    ] 0.020489 [  1       3    ] 0.007567 [  0       2    ] 0.006771 
    [  2       5    ]-0.004893 [  1       5    ]-0.003082 [  6       7    ] 0.000313 
    [  8       9    ] 0.000313 [  0       3    ] 0.000094 [  0       5    ]-0.000043 
    [  0       4    ] 0.000023 
    --------------------------------------------------------------------------------
    Norm of T1A vector: (nonzero elements: 13)                    0.147953920313724.
    --------------------------------------------------------------------------------
    Largest T1 amplitudes for spin case B:
       _       _                  _       _                  _       _               
       i       a                  i       a                  i       a               
    --------------------------------------------------------------------------------
    [  2       4    ] 0.102481 [  2       3    ]-0.096228 [  0       1    ]-0.039643 
    [  1       4    ] 0.020489 [  1       3    ] 0.007567 [  0       2    ] 0.006771 
    [  2       5    ]-0.004893 [  1       5    ]-0.003082 [  6       7    ] 0.000313 
    [  8       9    ] 0.000313 [  0       3    ] 0.000094 [  0       5    ]-0.000043 
    [  0       4    ] 0.000023 
    --------------------------------------------------------------------------------
    Norm of T1B vector: (nonzero elements: 13)                    0.147953920313724.
    --------------------------------------------------------------------------------
    Largest T2 amplitudes for spin case AA:
       i   j   a   b              i   j   a   b              i   j   a   b           
    --------------------------------------------------------------------------------
    [  1   6   1   7]-0.046847 [  1   8   1   9]-0.046847 [  2   6   1   7]-0.045393 
    [  2   8   1   9]-0.045393 [  2   6   2   7]-0.036068 [  2   8   2   9]-0.036068 
    [  0   1   1   2]-0.034294 [  1   6   2   7]-0.030773 [  1   8   2   9]-0.030773 
    [  1   2   1   3]-0.024606 [  6   8   7   9]-0.024088 [  0   1   1   5]-0.021278 
    [  1   2   1   4] 0.019808 [  2   6   4   7] 0.019572 [  2   8   4   9] 0.019572 
    --------------------------------------------------------------------------------
    Norm of T2AA vector: (nonzero elements: 240)                  0.282244264049300.
    --------------------------------------------------------------------------------
    Largest T2 amplitudes for spin case AB:
           _       _                  _       _                  _       _           
       i   j   a   b              i   j   a   b              i   j   a   b           
    --------------------------------------------------------------------------------
    [  2   2   2   3]-0.075866 [  2   2   1   4] 0.074388 [  0   0   1   1]-0.060158 
    [  2   2   3   3]-0.051717 [  1   2   1   3]-0.050780 [  1   2   1   4] 0.050276 
    [  2   6   1   7]-0.050009 [  2   8   1   9]-0.050009 [  1   6   1   7]-0.048770 
    [  1   8   1   9]-0.048770 [  1   2   2   4] 0.046425 [  2   6   2   7]-0.039894 
    [  2   8   2   9]-0.039894 [  6   6   7   7]-0.036327 [  8   8   9   9]-0.036327 
    --------------------------------------------------------------------------------
    Norm of T2AB vector: (nonzero elements: 405)                  0.349806856622148.
    --------------------------------------------------------------------------------
    Largest T2 amplitudes for spin case BB:
       _   _   _   _              _   _   _   _              _   _   _   _           
       i   j   a   b              i   j   a   b              i   j   a   b           
    --------------------------------------------------------------------------------
    [  1   6   1   7]-0.046847 [  1   8   1   9]-0.046847 [  2   6   1   7]-0.045393 
    [  2   8   1   9]-0.045393 [  2   6   2   7]-0.036068 [  2   8   2   9]-0.036068 
    [  0   1   1   2]-0.034294 [  1   6   2   7]-0.030773 [  1   8   2   9]-0.030773 
    [  1   2   1   3]-0.024606 [  6   8   7   9]-0.024088 [  0   1   1   5]-0.021278 
    [  1   2   1   4] 0.019808 [  2   6   4   7] 0.019572 [  2   8   4   9] 0.019572 
    --------------------------------------------------------------------------------
    Norm of T2BB vector: (nonzero elements: 240)                  0.282244264049300.
    --------------------------------------------------------------------------------

  ==> Possible Intruders <==

    T1 amplitudes larger than 0.1000 for spin case A:
        Amplitude         Value                  Denominator              
    ----------------------------------------------------------------------
    [  2       4    ]    0.10248098 (  0.076755 -   2.296416 =  -2.219660)
    ----------------------------------------------------------------------
    T1 amplitudes larger than 0.1000 for spin case B:
        Amplitude         Value                  Denominator              
    ----------------------------------------------------------------------
    [  2       4    ]    0.10248098 (  0.076755 -   2.296416 =  -2.219660)
    ----------------------------------------------------------------------
    T2 amplitudes larger than 0.1000 for spin case AA: NULL
    T2 amplitudes larger than 0.1000 for spin case AB: NULL
    T2 amplitudes larger than 0.1000 for spin case BB: NULL

  ==> Second-Order Perturbation DSRG-MRPT2 <==

    References:
      J. Chem. Theory Comput. 2015, 11, 2097-2108.
      J. Chem. Phys. 2017, 146, 124132.


  ==> DSRG-MRPT2 Energy Summary <==

    E0 (reference)                 =    -99.406065223639558
    <[F, A1]>                      =     -0.011206934823121
    <[F, A2]>                      =      0.009420145974284
    <[V, A1]>                      =      0.010656819218205
    <[V, A2]>                      =     -0.097799005595725
    DSRG-MRPT2 correlation energy  =     -0.088928975226357
    DSRG-MRPT2 total energy        =    -99.494994198865911

  ==> De-Normal-Order DSRG Transformed Hamiltonian <==

    Computing the scalar term                ... Done. Timing    0.001 s
    Computing the 1-body term                ... Done. Timing    0.001 s

  ==> Rotate DSRG Transformed Hamiltonian back to Original Basis <==

    Rotating 1-body term to original basis   ... Done. Timing    0.000 s
    Rotating 2-body term to original basis   ... Done. Timing    0.001 s

              ---------------------------------------------------
                Complete Active Space Configuration Interaction
                                  Chenyang Li
              ---------------------------------------------------


  ==> Input Summary <==

    No. a electrons in active      =     1
    No. b electrons in active      =     1
    multiplicity                   =     1
    spin ms (2 * Sz)               =     0

  ==> Orbital Spaces <==

    TOTAL MO                      [    7     0     2     2 ]
    FROZEN CORE                   [    1     0     0     0 ]
    FROZEN VIRTUAL                [    0     0     0     0 ]
    CORRELATED MO                 [    6     0     2     2 ]
    CORE                          [    1     0     1     1 ]
    ACTIVE                        [    2     0     0     0 ]
    VIRTUAL                       [    3     0     1     1 ]
  Forming alpha and beta strings      ...  Done. Timing        0.000006 s
  Forming determinants                ...  Done. Timing        0.000002 s

  ==> Determinants Summary <==

    number of alpha active electrons         =     1
    number of beta active electrons          =     1
    root symmetry (zero based)               =     0
    number of determinants                   =     4

  Diagonalizing Hamiltonian           ...

  ==> Computing 1 Coupling Lists <==

        α          1.791e-06 seconds
        β          1.500e-06 seconds

  ==> Computing 2 Coupling Lists <==

        αα         7.920e-07 seconds
        ββ         8.750e-07 seconds
        αβ         1.541e-06 seconds

  Davidson-Liu solver algorithm using SigmaVectorSparseList sigma algorithm

  Performing diagonalization of the H matrix
  Found 3 roots with 2S+1 = 1 *
  Found 1 roots with 2S+1 = 3  Done. Timing        0.000062 s

  * * * * * * * * * * * * * * * * *
  *  CI Vectors & Configurations  *
  * * * * * * * * * * * * * * * * *

  ==> Root No. 0 <==

    20          0.9643882700
    02         -0.2620268136

    Total Energy:   -99.496756048229770



  ==> Energy Summary <==

    Multi.(2ms)  Irrep.  No.               Energy      <S^2>
    --------------------------------------------------------
       1  (  0)    A1     0      -99.496756048230   0.000000
    --------------------------------------------------------
 Computing  1RDMs (0 Singlet A1 - 0 Singlet A1) ... Done. Timing        0.000011 s
  Orbital rotations on spin-free RDMs ...
    Transformed 1 RDMs.

  ==> Permanent Dipole Moments [e a0] for Singlet (Ms = 0) A1 <==

       State           DM_X           DM_Y           DM_Z           |DM|
    --------------------------------------------------------------------
         0A1     0.00000000     0.00000000     0.63192354     0.63192354
    --------------------------------------------------------------------
 Computing  1RDMs (0 Singlet A1 - 0 Singlet A1) ... Done. Timing        0.000010 s
 Computing  2RDMs (0 Singlet A1 - 0 Singlet A1) ... Done. Timing        0.000008 s
 Computing  3RDMs (0 Singlet A1 - 0 Singlet A1) ... Done. Timing        0.000008 s
  Orbital rotations on spin-dependent RDMs ...
    Transformed 1 RDMs.
    Transformed 2 RDMs.
    Transformed 3 RDMs.

  ==> Semicanonicalize Orbitals <==

    MIX INACTIVE ORBITALS   ...... FALSE
    MIX GAS ACTIVE ORBITALS ...... FALSE
    FROZEN_DOCC     ...  CANONICAL
    FROZEN_UOCC     ...  CANONICAL
    GAS1            ...  CANONICAL
    RESTRICTED_DOCC ...  CANONICAL
    RESTRICTED_UOCC ...  CANONICAL

    Off-Diag. Elements       Max           2-Norm
    ------------------------------------------------
    FROZEN_DOCC          0.0000000000   0.0000000000
    GAS1                 0.0048606426   0.0068739867
    RESTRICTED_DOCC      0.0000000000   0.0000000000
    RESTRICTED_UOCC      0.0026566706   0.0061599176
    ------------------------------------------------
  Integrals are about to be updated.
  Computing Conventional Integrals	Presorting SO-basis two-electron integrals.
	Sorting File: SO Ints (nn|nn) nbuckets = 1
	Constructing frozen core operators
	Starting first half-transformation.
	Sorting half-transformed integrals.
	First half integral transformation complete.
	Starting second half-transformation.
	Two-electron integral transformation complete.

  Integral transformation done. 0.00279750 s
  Reading the two-electron integrals from disk
  Size of two-electron integrals:   0.000327 GB
  Timing for conventional integral transformation:            0.007 s.
  Frozen-core energy         -75.818535539737638 a.u.
  Timing for frozen one-body operator:                        0.000 s.
  Resorting integrals after freezing core.
  Timing for freezing core and virtual orbitals:              0.000 s.
  Integrals update took     0.007 s.
  Orbital rotations on spin-dependent RDMs ...
    Transformed 1 RDMs.
    Transformed 2 RDMs.
    Transformed 3 RDMs.
  Timing for orbital canonicalization:                        0.119 s.

  ==> Multireference Driven Similarity Renormalization Group <==

    Computing Fock matrix and cleaning JK ........... Done
    Reading DSRG options ............................ Done
    Setting ambit MO space .......................... Done
    Preparing tensors for density cumulants ......... Done
    Filling Fock matrix from ForteIntegrals ......... Done

           ----------------------------------------------------------
             Multireference Driven Similarity Renormalization Group
                   written by Chenyang Li and Tianyuan Zhang
           ----------------------------------------------------------


  ==> Density Cumulant Summary <==

    2-body             AA           AB           BB
    -----------------------------------------------
    max          0.064183     0.252631     0.064183
    norm         0.128367     0.380584     0.128367
    -----------------------------------------------
    3-body            AAA          AAB          ABB          BBB
    ------------------------------------------------------------
    max          0.000000     0.055231     0.055231     0.000000
    norm         0.000000     0.156509     0.156509     0.000000
    ------------------------------------------------------------

  ==> Checking Semicanonical Orbitals <==

    Block             Fa Max         Fa Mean           Fb Max         Fb Mean
    -------------------------------------------------------------------------
    CORE        0.0000000000    0.0000000000     0.0000000000    0.0000000000
    VIRTUAL     0.0000000000    0.0000000000     0.0000000000    0.0000000000
    GAS1        0.0000000000    0.0000000000     0.0000000000    0.0000000000
    -------------------------------------------------------------------------
    Orbitals are semi-canonicalized.

  ==> Calculation Information <==

    Correlation level                                    PT2
    Integral type                               CONVENTIONAL
    Source operator                                 STANDARD
    Adaptive DSRG flow type                           DSRG_S
    Reference relaxation                             ITERATE
    DSRG transformation type                         UNITARY
    Core-Virtual source type                          NORMAL
    T1 amplitudes initial guess                          PT2
    PT2 0-order Hamiltonian                            FDIAG
    Restart amplitudes                                  TRUE
    Sequential DSRG transformation                     FALSE
    Omit blocks of >= 3 virtual indices                FALSE
    Read amplitudes from current dir                   FALSE
    Write amplitudes to current dir                    FALSE
    Flow parameter                                 1.000e+00
    Taylor expansion threshold                     1.000e-03
    Intruder amplitudes threshold                  1.000e-01
    Number of T amplitudes                                15
    DIIS start                                             2
    Min DIIS vectors                                       3
    Max DIIS vectors                                       8
    DIIS extrapolating freq                                1


  ==> Total Timings (s) for Computing Commutators <==

             [H1, T1]    [H1, T2]    [H2, T1]    [H2, T2]
    -----------------------------------------------------
    -> C0       0.000       0.002       0.000       0.022
    -> C1       0.001       0.005       0.004       0.047
    -> C2                   0.016       0.017       0.093
    -----------------------------------------------------


  ==> Build Initial Amplitudes Guesses <==

    Computing T2 amplitudes ...          Done. Timing      0.000 s
    Computing T1 amplitudes ...          Done. Timing      0.000 s

  ==> Initial Excitation Amplitudes Summary <==

    Active Indices:    1    2 
    Largest T1 amplitudes for spin case A:
       i       a                  i       a                  i       a               
    --------------------------------------------------------------------------------
    [  2       4    ] 0.105818 [  2       3    ]-0.094633 [  0       1    ]-0.041380 
    [  1       4    ] 0.020397 [  1       3    ] 0.007301 [  0       2    ] 0.007270 
    [  2       5    ]-0.005646 [  1       5    ]-0.003120 [  8       9    ]-0.002618 
    [  6       7    ]-0.002618 [  0       5    ] 0.001438 [  0       4    ]-0.000094 
    [  0       3    ] 0.000026 
    --------------------------------------------------------------------------------
    Norm of T1A vector: (nonzero elements: 13)                    0.149815237722472.
    --------------------------------------------------------------------------------
    Largest T1 amplitudes for spin case B:
       _       _                  _       _                  _       _               
       i       a                  i       a                  i       a               
    --------------------------------------------------------------------------------
    [  2       4    ] 0.105818 [  2       3    ]-0.094633 [  0       1    ]-0.041380 
    [  1       4    ] 0.020397 [  1       3    ] 0.007301 [  0       2    ] 0.007270 
    [  2       5    ]-0.005646 [  1       5    ]-0.003120 [  8       9    ]-0.002618 
    [  6       7    ]-0.002618 [  0       5    ] 0.001438 [  0       4    ]-0.000094 
    [  0       3    ] 0.000026 
    --------------------------------------------------------------------------------
    Norm of T1B vector: (nonzero elements: 13)                    0.149815237722472.
    --------------------------------------------------------------------------------
    Largest T2 amplitudes for spin case AA:
       i   j   a   b              i   j   a   b              i   j   a   b           
    --------------------------------------------------------------------------------
    [  1   6   1   7]-0.046280 [  1   8   1   9]-0.046280 [  2   6   1   7]-0.045834 
    [  2   8   1   9]-0.045834 [  2   6   2   7]-0.036676 [  2   8   2   9]-0.036676 
    [  0   1   1   2]-0.034513 [  1   6   2   7]-0.030706 [  1   8   2   9]-0.030706 
    [  1   2   1   3]-0.024385 [  6   8   7   9]-0.024099 [  0   1   1   5]-0.021016 
    [  2   6   4   7] 0.019711 [  2   8   4   9] 0.019711 [  1   2   1   4] 0.019700 
    --------------------------------------------------------------------------------
    Norm of T2AA vector: (nonzero elements: 240)                  0.282555551381382.
    --------------------------------------------------------------------------------
    Largest T2 amplitudes for spin case AB:
           _       _                  _       _                  _       _           
       i   j   a   b              i   j   a   b              i   j   a   b           
    --------------------------------------------------------------------------------
    [  2   2   1   4] 0.075163 [  2   2   2   3]-0.074563 [  0   0   1   1]-0.060754 
    [  2   2   3   3]-0.052152 [  1   2   1   3]-0.050801 [  2   6   1   7]-0.050464 
    [  2   8   1   9]-0.050464 [  1   2   1   4] 0.049630 [  1   6   1   7]-0.048152 
    [  1   8   1   9]-0.048152 [  1   2   2   4] 0.046363 [  2   6   2   7]-0.040554 
    [  2   8   2   9]-0.040554 [  6   6   7   7]-0.036345 [  8   8   9   9]-0.036345 
    --------------------------------------------------------------------------------
    Norm of T2AB vector: (nonzero elements: 405)                  0.349761089322416.
    --------------------------------------------------------------------------------
    Largest T2 amplitudes for spin case BB:
       _   _   _   _              _   _   _   _              _   _   _   _           
       i   j   a   b              i   j   a   b              i   j   a   b           
    --------------------------------------------------------------------------------
    [  1   6   1   7]-0.046280 [  1   8   1   9]-0.046280 [  2   6   1   7]-0.045834 
    [  2   8   1   9]-0.045834 [  2   6   2   7]-0.036676 [  2   8   2   9]-0.036676 
    [  0   1   1   2]-0.034513 [  1   6   2   7]-0.030706 [  1   8   2   9]-0.030706 
    [  1   2   1   3]-0.024385 [  6   8   7   9]-0.024099 [  0   1   1   5]-0.021016 
    [  2   6   4   7] 0.019711 [  2   8   4   9] 0.019711 [  1   2   1   4] 0.019700 
    --------------------------------------------------------------------------------
    Norm of T2BB vector: (nonzero elements: 240)                  0.282555551381382.
    --------------------------------------------------------------------------------

  ==> Possible Intruders <==

    T1 amplitudes larger than 0.1000 for spin case A:
        Amplitude         Value                  Denominator              
    ----------------------------------------------------------------------
    [  2       4    ]    0.10581772 (  0.087723 -   2.314280 =  -2.226557)
    ----------------------------------------------------------------------
    T1 amplitudes larger than 0.1000 for spin case B:
        Amplitude         Value                  Denominator              
    ----------------------------------------------------------------------
    [  2       4    ]    0.10581772 (  0.087723 -   2.314280 =  -2.226557)
    ----------------------------------------------------------------------
    T2 amplitudes larger than 0.1000 for spin case AA: NULL
    T2 amplitudes larger than 0.1000 for spin case AB: NULL
    T2 amplitudes larger than 0.1000 for spin case BB: NULL

  ==> Second-Order Perturbation DSRG-MRPT2 <==

    References:
      J. Chem. Theory Comput. 2015, 11, 2097-2108.
      J. Chem. Phys. 2017, 146, 124132.


  ==> DSRG-MRPT2 Energy Summary <==

    E0 (reference)                 =    -99.403472328519570
    <[F, A1]>                      =     -0.009013327779648
    <[F, A2]>                      =      0.008218875089245
    <[V, A1]>                      =      0.009228566364825
    <[V, A2]>                      =     -0.101165611318026
    DSRG-MRPT2 correlation energy  =     -0.092731497643604
    DSRG-MRPT2 total energy        =    -99.496203826163168

  ==> De-Normal-Order DSRG Transformed Hamiltonian <==

    Computing the scalar term                ... Done. Timing    0.001 s
    Computing the 1-body term                ... Done. Timing    0.001 s

  ==> Rotate DSRG Transformed Hamiltonian back to Original Basis <==

    Rotating 1-body term to original basis   ... Done. Timing    0.000 s
    Rotating 2-body term to original basis   ... Done. Timing    0.001 s

              ---------------------------------------------------
                Complete Active Space Configuration Interaction
                                  Chenyang Li
              ---------------------------------------------------


  ==> Input Summary <==

    No. a electrons in active      =     1
    No. b electrons in active      =     1
    multiplicity                   =     1
    spin ms (2 * Sz)               =     0

  ==> Orbital Spaces <==

    TOTAL MO                      [    7     0     2     2 ]
    FROZEN CORE                   [    1     0     0     0 ]
    FROZEN VIRTUAL                [    0     0     0     0 ]
    CORRELATED MO                 [    6     0     2     2 ]
    CORE                          [    1     0     1     1 ]
    ACTIVE                        [    2     0     0     0 ]
    VIRTUAL                       [    3     0     1     1 ]
  Forming alpha and beta strings      ...  Done. Timing        0.000005 s
  Forming determinants                ...  Done. Timing        0.000002 s

  ==> Determinants Summary <==

    number of alpha active electrons         =     1
    number of beta active electrons          =     1
    root symmetry (zero based)               =     0
    number of determinants                   =     4

  Diagonalizing Hamiltonian           ...

  ==> Computing 1 Coupling Lists <==

        α          1.458e-06 seconds
        β          1.417e-06 seconds

  ==> Computing 2 Coupling Lists <==

        αα         7.920e-07 seconds
        ββ         7.500e-07 seconds
        αβ         1.333e-06 seconds

  Davidson-Liu solver algorithm using SigmaVectorSparseList sigma algorithm

  Performing diagonalization of the H matrix
  Found 3 roots with 2S+1 = 1 *
  Found 1 roots with 2S+1 = 3  Done. Timing        0.000052 s

  * * * * * * * * * * * * * * * * *
  *  CI Vectors & Configurations  *
  * * * * * * * * * * * * * * * * *

  ==> Root No. 0 <==

    02          1.0000000000

    Total Energy:   -97.836078866963788



  ==> Energy Summary <==

    Multi.(2ms)  Irrep.  No.               Energy      <S^2>
    --------------------------------------------------------
       1  (  0)    A1     0      -97.836078866964   0.000000
    --------------------------------------------------------
 Computing  1RDMs (0 Singlet A1 - 0 Singlet A1) ... Done. Timing        0.000010 s
  Orbital rotations on spin-free RDMs ...
    Transformed 1 RDMs.

  ==> Permanent Dipole Moments [e a0] for Singlet (Ms = 0) A1 <==

       State           DM_X           DM_Y           DM_Z           |DM|
    --------------------------------------------------------------------
         0A1     0.00000000     0.00000000     2.61221130     2.61221130
    --------------------------------------------------------------------

  Forte Warning: Relaxed states are likely wrong. Please increase the number of roots.

  ==> Overlap of CI Vectors <this|prior> <==

  ## CI Overlap of Singlet (Ms = 0) A1 GAS min: 0 0 0 0 0 0 ; GAS max: 4 0 0 0 0 0 ; (Symmetry 0) ##
  Irrep: 1 Size: 1 x 1

                 1

    1    -0.26202681361542




 Computing  1RDMs (0 Singlet A1 - 0 Singlet A1) ... Done. Timing        0.000010 s
 Computing  2RDMs (0 Singlet A1 - 0 Singlet A1) ... Done. Timing        0.000008 s
 Computing  3RDMs (0 Singlet A1 - 0 Singlet A1) ... Done. Timing        0.000009 s
  Orbital rotations on spin-dependent RDMs ...
    Transformed 1 RDMs.
    Transformed 2 RDMs.
    Transformed 3 RDMs.

  ==> Semicanonicalize Orbitals <==

    MIX INACTIVE ORBITALS   ...... FALSE
    MIX GAS ACTIVE ORBITALS ...... FALSE
    FROZEN_DOCC     ...  CANONICAL
    FROZEN_UOCC     ...  CANONICAL
    GAS1            ...  CANONICAL
    RESTRICTED_DOCC ...  CANONICAL
    RESTRICTED_UOCC ...  CANONICAL

    Off-Diag. Elements       Max           2-Norm
    ------------------------------------------------
    FROZEN_DOCC          0.0000000000   0.0000000000
    GAS1                 0.1205200025   0.1704410221
    RESTRICTED_DOCC      0.0000000000   0.0000000000
    RESTRICTED_UOCC      0.0457254909   0.0902702860
    ------------------------------------------------
  Integrals are about to be updated.
  Computing Conventional Integrals	Presorting SO-basis two-electron integrals.
	Sorting File: SO Ints (nn|nn) nbuckets = 1
	Constructing frozen core operators
	Starting first half-transformation.
	Sorting half-transformed integrals.
	First half integral transformation complete.
	Starting second half-transformation.
	Two-electron integral transformation complete.

  Integral transformation done. 0.00254246 s
  Reading the two-electron integrals from disk
  Size of two-electron integrals:   0.000327 GB
  Timing for conventional integral transformation:            0.007 s.
  Frozen-core energy         -75.818535539737638 a.u.
  Timing for frozen one-body operator:                        0.000 s.
  Resorting integrals after freezing core.
  Timing for freezing core and virtual orbitals:              0.000 s.
  Integrals update took     0.007 s.
  Orbital rotations on spin-dependent RDMs ...
    Transformed 1 RDMs.
    Transformed 2 RDMs.
    Transformed 3 RDMs.
  Timing for orbital canonicalization:                        0.119 s.

  ==> Multireference Driven Similarity Renormalization Group <==

    Computing Fock matrix and cleaning JK ........... Done
    Reading DSRG options ............................ Done
    Setting ambit MO space .......................... Done
    Preparing tensors for density cumulants ......... Done
    Filling Fock matrix from ForteIntegrals ......... Done

           ----------------------------------------------------------
             Multireference Driven Similarity Renormalization Group
                   written by Chenyang Li and Tianyuan Zhang
           ----------------------------------------------------------


  ==> Density Cumulant Summary <==

    2-body             AA           AB           BB
    -----------------------------------------------
    max          0.000000     0.000000     0.000000
    norm         0.000000     0.000000     0.000000
    -----------------------------------------------
    3-body            AAA          AAB          ABB          BBB
    ------------------------------------------------------------
    max          0.000000     0.000000     0.000000     0.000000
    norm         0.000000     0.000000     0.000000     0.000000
    ------------------------------------------------------------

  ==> Checking Semicanonical Orbitals <==

    Block             Fa Max         Fa Mean           Fb Max         Fb Mean
    -------------------------------------------------------------------------
    CORE        0.0000000000    0.0000000000     0.0000000000    0.0000000000
    VIRTUAL     0.0000000000    0.0000000000     0.0000000000    0.0000000000
    GAS1        0.0000000000    0.0000000000     0.0000000000    0.0000000000
    -------------------------------------------------------------------------
    Orbitals are semi-canonicalized.

  ==> Calculation Information <==

    Correlation level                                    PT2
    Integral type                               CONVENTIONAL
    Source operator                                 STANDARD
    Adaptive DSRG flow type                           DSRG_S
    Reference relaxation                             ITERATE
    DSRG transformation type                         UNITARY
    Core-Virtual source type                          NORMAL
    T1 amplitudes initial guess                          PT2
    PT2 0-order Hamiltonian                            FDIAG
    Restart amplitudes                                  TRUE
    Sequential DSRG transformation                     FALSE
    Omit blocks of >= 3 virtual indices                FALSE
    Read amplitudes from current dir                   FALSE
    Write amplitudes to current dir                    FALSE
    Flow parameter                                 1.000e+00
    Taylor expansion threshold                     1.000e-03
    Intruder amplitudes threshold                  1.000e-01
    Number of T amplitudes                                15
    DIIS start                                             2
    Min DIIS vectors                                       3
    Max DIIS vectors                                       8
    DIIS extrapolating freq                                1


  ==> Total Timings (s) for Computing Commutators <==

             [H1, T1]    [H1, T2]    [H2, T1]    [H2, T2]
    -----------------------------------------------------
    -> C0       0.000       0.002       0.000       0.022
    -> C1       0.001       0.004       0.004       0.047
    -> C2                   0.016       0.017       0.093
    -----------------------------------------------------


  ==> Build Initial Amplitudes Guesses <==

    Computing T2 amplitudes ...          Done. Timing      0.000 s
    Computing T1 amplitudes ...          Done. Timing      0.000 s

  ==> Initial Excitation Amplitudes Summary <==

    Active Indices:    1    2 
    Largest T1 amplitudes for spin case A:
       i       a                  i       a                  i       a               
    --------------------------------------------------------------------------------
    [  6       7    ] 0.084984 [  8       9    ] 0.084984 [  0       1    ]-0.059230 
    [  2       4    ] 0.049575 [  0       5    ]-0.041643 [  1       3    ]-0.030053 
    [  0       2    ]-0.020202 [  2       5    ] 0.017021 [  0       4    ]-0.009683 
    [  0       3    ] 0.008531 [  2       3    ]-0.008125 [  1       5    ]-0.008000 
    [  1       4    ] 0.001981 
    --------------------------------------------------------------------------------
    Norm of T1A vector: (nonzero elements: 13)                    0.155067743310629.
    --------------------------------------------------------------------------------
    Largest T1 amplitudes for spin case B:
       _       _                  _       _                  _       _               
       i       a                  i       a                  i       a               
    --------------------------------------------------------------------------------
    [  6       7    ] 0.084984 [  8       9    ] 0.084984 [  0       1    ]-0.059230 
    [  2       4    ] 0.049575 [  0       5    ]-0.041643 [  1       3    ]-0.030053 
    [  0       2    ]-0.020202 [  2       5    ] 0.017021 [  0       4    ]-0.009683 
    [  0       3    ] 0.008531 [  2       3    ]-0.008125 [  1       5    ]-0.008000 
    [  1       4    ] 0.001981 
    --------------------------------------------------------------------------------
    Norm of T1B vector: (nonzero elements: 13)                    0.155067743310629.
    --------------------------------------------------------------------------------
    Largest T2 amplitudes for spin case AA:
       i   j   a   b              i   j   a   b              i   j   a   b           
    --------------------------------------------------------------------------------
    [  1   6   1   7]-0.065484 [  1   8   1   9]-0.065484 [  2   6   1   7]-0.030807 
    [  2   8   1   9]-0.030807 [  0   1   1   5]-0.030251 [  1   2   1   4] 0.027944 
    [  1   2   1   3]-0.025767 [  0   1   1   2]-0.025074 [  0   2   1   2] 0.024894 
    [  1   6   2   7]-0.023876 [  1   8   2   9]-0.023876 [  6   8   7   9]-0.023706 
    [  1   6   4   7] 0.022580 [  1   8   4   9] 0.022580 [  2   6   2   7]-0.016123 
    --------------------------------------------------------------------------------
    Norm of T2AA vector: (nonzero elements: 240)                  0.277789793972377.
    --------------------------------------------------------------------------------
    Largest T2 amplitudes for spin case AB:
           _       _                  _       _                  _       _           
       i   j   a   b              i   j   a   b              i   j   a   b           
    --------------------------------------------------------------------------------
    [  2   2   2   3]-0.108754 [  1   1   1   4] 0.075150 [  1   2   1   4] 0.070205 
    [  1   6   1   7]-0.069304 [  1   8   1   9]-0.069304 [  2   2   3   3]-0.068504 
    [  0   0   1   1]-0.055429 [  2   2   1   4] 0.043496 [  6   6   7   7]-0.035752 
    [  8   8   9   9]-0.035752 [  0   2   1   2] 0.035624 [  2   6   1   7]-0.035016 
    [  2   8   1   9]-0.035016 [  1   1   4   4]-0.034302 [  1   2   1   3]-0.033936 
    --------------------------------------------------------------------------------
    Norm of T2AB vector: (nonzero elements: 405)                  0.357086428224370.
    --------------------------------------------------------------------------------
    Largest T2 amplitudes for spin case BB:
       _   _   _   _              _   _   _   _              _   _   _   _           
       i   j   a   b              i   j   a   b              i   j   a   b           
    --------------------------------------------------------------------------------
    [  1   6   1   7]-0.065484 [  1   8   1   9]-0.065484 [  2   6   1   7]-0.030807 
    [  2   8   1   9]-0.030807 [  0   1   1   5]-0.030251 [  1   2   1   4] 0.027944 
    [  1   2   1   3]-0.025767 [  0   1   1   2]-0.025074 [  0   2   1   2] 0.024894 
    [  1   6   2   7]-0.023876 [  1   8   2   9]-0.023876 [  6   8   7   9]-0.023706 
    [  1   6   4   7] 0.022580 [  1   8   4   9] 0.022580 [  2   6   2   7]-0.016123 
    --------------------------------------------------------------------------------
    Norm of T2BB vector: (nonzero elements: 240)                  0.277789793972377.
    --------------------------------------------------------------------------------

  ==> Possible Intruders <==

    T1 amplitudes larger than 0.1000 for spin case A: NULL
    T1 amplitudes larger than 0.1000 for spin case B: NULL
    T2 amplitudes larger than 0.1000 for spin case AA: NULL
    T2 amplitudes larger than 0.1000 for spin case AB:
        Amplitude         Value                               Denominator                           
    ------------------------------------------------------------------------------------------------
    [  2   2   2   3]   -0.10875359 ( -0.782363 +  -0.782363 -  -0.782363 -   0.252119 =  -1.034482)
    ------------------------------------------------------------------------------------------------
    T2 amplitudes larger than 0.1000 for spin case BB: NULL

  ==> Second-Order Perturbation DSRG-MRPT2 <==

    References:
      J. Chem. Theory Comput. 2015, 11, 2097-2108.
      J. Chem. Phys. 2017, 146, 124132.


  ==> DSRG-MRPT2 Energy Summary <==

    E0 (reference)                 =    -97.635187344718020
    <[F, A1]>                      =     -0.115719353408288
    <[F, A2]>                      =      0.000000000000000
    <[V, A1]>                      =      0.000000000000000
    <[V, A2]>                      =     -0.071374015470586
    DSRG-MRPT2 correlation energy  =     -0.187093368878874
    DSRG-MRPT2 total energy        =    -97.822280713596896

  ==> De-Normal-Order DSRG Transformed Hamiltonian <==

    Computing the scalar term                ... Done. Timing    0.001 s
    Computing the 1-body term                ... Done. Timing    0.001 s

  ==> Rotate DSRG Transformed Hamiltonian back to Original Basis <==

    Rotating 1-body term to original basis   ... Done. Timing    0.000 s
    Rotating 2-body term to original basis   ... Done. Timing    0.001 s

              ---------------------------------------------------
                Complete Active Space Configuration Interaction
                                  Chenyang Li
              ---------------------------------------------------


  ==> Input Summary <==

    No. a electrons in active      =     1
    No. b electrons in active      =     1
    multiplicity                   =     1
    spin ms (2 * Sz)               =     0

  ==> Orbital Spaces <==

    TOTAL MO                      [    7     0     2     2 ]
    FROZEN CORE                   [    1     0     0     0 ]
    FROZEN VIRTUAL                [    0     0     0     0 ]
    CORRELATED MO                 [    6     0     2     2 ]
    CORE                          [    1     0     1     1 ]
    ACTIVE                        [    2     0     0     0 ]
    VIRTUAL                       [    3     0     1     1 ]
  Forming alpha and beta strings      ...  Done. Timing        0.000006 s
  Forming determinants                ...  Done. Timing        0.000002 s

  ==> Determinants Summary <==

    number of alpha active electrons         =     1
    number of beta active electrons          =     1
    root symmetry (zero based)               =     0
    number of determinants                   =     4

  Diagonalizing Hamiltonian           ...

  ==> Computing 1 Coupling Lists <==

        α          1.625e-06 seconds
        β          1.417e-06 seconds

  ==> Computing 2 Coupling Lists <==

        αα         8.330e-07 seconds
        ββ         7.080e-07 seconds
        αβ         1.334e-06 seconds

  Davidson-Liu solver algorithm using SigmaVectorSparseList sigma algorithm

  Performing diagonalization of the H matrix
  Found 3 roots with 2S+1 = 1 *
  Found 1 roots with 2S+1 = 3  Done. Timing        0.000056 s

  * * * * * * * * * * * * * * * * *
  *  CI Vectors & Configurations  *
  * * * * * * * * * * * * * * * * *

  ==> Root No. 0 <==

    02          1.0000000000

    Total Energy:   -97.822280713596896



  ==> Energy Summary <==

    Multi.(2ms)  Irrep.  No.               Energy      <S^2>
    --------------------------------------------------------
       1  (  0)    A1     0      -97.822280713597   0.000000
    --------------------------------------------------------
 Computing  1RDMs (0 Singlet A1 - 0 Singlet A1) ... Done. Timing        0.000012 s
  Orbital rotations on spin-free RDMs ...
    Transformed 1 RDMs.

  ==> Permanent Dipole Moments [e a0] for Singlet (Ms = 0) A1 <==

       State           DM_X           DM_Y           DM_Z           |DM|
    --------------------------------------------------------------------
         0A1     0.00000000     0.00000000     2.61221130     2.61221130
    --------------------------------------------------------------------
 Computing  1RDMs (0 Singlet A1 - 0 Singlet A1) ... Done. Timing        0.000012 s
 Computing  2RDMs (0 Singlet A1 - 0 Singlet A1) ... Done. Timing        0.000008 s
 Computing  3RDMs (0 Singlet A1 - 0 Singlet A1) ... Done. Timing        0.000008 s
  Orbital rotations on spin-dependent RDMs ...
    Transformed 1 RDMs.
    Transformed 2 RDMs.
    Transformed 3 RDMs.

  ==> Semicanonicalize Orbitals <==

    MIX INACTIVE ORBITALS   ...... FALSE
    MIX GAS ACTIVE ORBITALS ...... FALSE
    FROZEN_DOCC     ...  CANONICAL
    FROZEN_UOCC     ...  CANONICAL
    GAS1            ...  CANONICAL
    RESTRICTED_DOCC ...  CANONICAL
    RESTRICTED_UOCC ...  CANONICAL

    Off-Diag. Elements       Max           2-Norm
    ------------------------------------------------
    FROZEN_DOCC          0.0000000000   0.0000000000
    GAS1                 0.0000000000   0.0000000000
    RESTRICTED_DOCC      0.0000000000   0.0000000000
    RESTRICTED_UOCC      0.0000000000   0.0000000000
    ------------------------------------------------
  Orbitals are already semicanonicalized.
  Timing for orbital canonicalization:                        0.000 s.

  ==> Multireference Driven Similarity Renormalization Group <==

    Computing Fock matrix and cleaning JK ........... Done
    Reading DSRG options ............................ Done
    Setting ambit MO space .......................... Done
    Preparing tensors for density cumulants ......... Done
    Filling Fock matrix from ForteIntegrals ......... Done

           ----------------------------------------------------------
             Multireference Driven Similarity Renormalization Group
                   written by Chenyang Li and Tianyuan Zhang
           ----------------------------------------------------------


  ==> Density Cumulant Summary <==

    2-body             AA           AB           BB
    -----------------------------------------------
    max          0.000000     0.000000     0.000000
    norm         0.000000     0.000000     0.000000
    -----------------------------------------------
    3-body            AAA          AAB          ABB          BBB
    ------------------------------------------------------------
    max          0.000000     0.000000     0.000000     0.000000
    norm         0.000000     0.000000     0.000000     0.000000
    ------------------------------------------------------------

  ==> Checking Semicanonical Orbitals <==

    Block             Fa Max         Fa Mean           Fb Max         Fb Mean
    -------------------------------------------------------------------------
    CORE        0.0000000000    0.0000000000     0.0000000000    0.0000000000
    VIRTUAL     0.0000000000    0.0000000000     0.0000000000    0.0000000000
    GAS1        0.0000000000    0.0000000000     0.0000000000    0.0000000000
    -------------------------------------------------------------------------
    Orbitals are semi-canonicalized.

  ==> Calculation Information <==

    Correlation level                                    PT2
    Integral type                               CONVENTIONAL
    Source operator                                 STANDARD
    Adaptive DSRG flow type                           DSRG_S
    Reference relaxation                             ITERATE
    DSRG transformation type                         UNITARY
    Core-Virtual source type                          NORMAL
    T1 amplitudes initial guess                          PT2
    PT2 0-order Hamiltonian                            FDIAG
    Restart amplitudes                                  TRUE
    Sequential DSRG transformation                     FALSE
    Omit blocks of >= 3 virtual indices                FALSE
    Read amplitudes from current dir                   FALSE
    Write amplitudes to current dir                    FALSE
    Flow parameter                                 1.000e+00
    Taylor expansion threshold                     1.000e-03
    Intruder amplitudes threshold                  1.000e-01
    Number of T amplitudes                                15
    DIIS start                                             2
    Min DIIS vectors                                       3
    Max DIIS vectors                                       8
    DIIS extrapolating freq                                1


  ==> Total Timings (s) for Computing Commutators <==

             [H1, T1]    [H1, T2]    [H2, T1]    [H2, T2]
    -----------------------------------------------------
    -> C0       0.000       0.002       0.000       0.021
    -> C1       0.001       0.004       0.004       0.047
    -> C2                   0.016       0.017       0.093
    -----------------------------------------------------


  ==> Build Initial Amplitudes Guesses <==

    Computing T2 amplitudes ...          Done. Timing      0.000 s
    Computing T1 amplitudes ...          Done. Timing      0.000 s

  ==> Initial Excitation Amplitudes Summary <==

    Active Indices:    1    2 
    Largest T1 amplitudes for spin case A:
       i       a                  i       a                  i       a               
    --------------------------------------------------------------------------------
    [  6       7    ] 0.084984 [  8       9    ] 0.084984 [  0       1    ]-0.059230 
    [  2       4    ] 0.049575 [  0       5    ]-0.041643 [  1       3    ]-0.030053 
    [  0       2    ]-0.020202 [  2       5    ] 0.017021 [  0       4    ]-0.009683 
    [  0       3    ] 0.008531 [  2       3    ]-0.008125 [  1       5    ]-0.008000 
    [  1       4    ] 0.001981 
    --------------------------------------------------------------------------------
    Norm of T1A vector: (nonzero elements: 13)                    0.155067743310629.
    --------------------------------------------------------------------------------
    Largest T1 amplitudes for spin case B:
       _       _                  _       _                  _       _               
       i       a                  i       a                  i       a               
    --------------------------------------------------------------------------------
    [  6       7    ] 0.084984 [  8       9    ] 0.084984 [  0       1    ]-0.059230 
    [  2       4    ] 0.049575 [  0       5    ]-0.041643 [  1       3    ]-0.030053 
    [  0       2    ]-0.020202 [  2       5    ] 0.017021 [  0       4    ]-0.009683 
    [  0       3    ] 0.008531 [  2       3    ]-0.008125 [  1       5    ]-0.008000 
    [  1       4    ] 0.001981 
    --------------------------------------------------------------------------------
    Norm of T1B vector: (nonzero elements: 13)                    0.155067743310629.
    --------------------------------------------------------------------------------
    Largest T2 amplitudes for spin case AA:
       i   j   a   b              i   j   a   b              i   j   a   b           
    --------------------------------------------------------------------------------
    [  1   6   1   7]-0.065484 [  1   8   1   9]-0.065484 [  2   6   1   7]-0.030807 
    [  2   8   1   9]-0.030807 [  0   1   1   5]-0.030251 [  1   2   1   4] 0.027944 
    [  1   2   1   3]-0.025767 [  0   1   1   2]-0.025074 [  0   2   1   2] 0.024894 
    [  1   6   2   7]-0.023876 [  1   8   2   9]-0.023876 [  6   8   7   9]-0.023706 
    [  1   6   4   7] 0.022580 [  1   8   4   9] 0.022580 [  2   6   2   7]-0.016123 
    --------------------------------------------------------------------------------
    Norm of T2AA vector: (nonzero elements: 240)                  0.277789793972377.
    --------------------------------------------------------------------------------
    Largest T2 amplitudes for spin case AB:
           _       _                  _       _                  _       _           
       i   j   a   b              i   j   a   b              i   j   a   b           
    --------------------------------------------------------------------------------
    [  2   2   2   3]-0.108754 [  1   1   1   4] 0.075150 [  1   2   1   4] 0.070205 
    [  1   6   1   7]-0.069304 [  1   8   1   9]-0.069304 [  2   2   3   3]-0.068504 
    [  0   0   1   1]-0.055429 [  2   2   1   4] 0.043496 [  6   6   7   7]-0.035752 
    [  8   8   9   9]-0.035752 [  0   2   1   2] 0.035624 [  2   6   1   7]-0.035016 
    [  2   8   1   9]-0.035016 [  1   1   4   4]-0.034302 [  1   2   1   3]-0.033936 
    --------------------------------------------------------------------------------
    Norm of T2AB vector: (nonzero elements: 405)                  0.357086428224370.
    --------------------------------------------------------------------------------
    Largest T2 amplitudes for spin case BB:
       _   _   _   _              _   _   _   _              _   _   _   _           
       i   j   a   b              i   j   a   b              i   j   a   b           
    --------------------------------------------------------------------------------
    [  1   6   1   7]-0.065484 [  1   8   1   9]-0.065484 [  2   6   1   7]-0.030807 
    [  2   8   1   9]-0.030807 [  0   1   1   5]-0.030251 [  1   2   1   4] 0.027944 
    [  1   2   1   3]-0.025767 [  0   1   1   2]-0.025074 [  0   2   1   2] 0.024894 
    [  1   6   2   7]-0.023876 [  1   8   2   9]-0.023876 [  6   8   7   9]-0.023706 
    [  1   6   4   7] 0.022580 [  1   8   4   9] 0.022580 [  2   6   2   7]-0.016123 
    --------------------------------------------------------------------------------
    Norm of T2BB vector: (nonzero elements: 240)                  0.277789793972377.
    --------------------------------------------------------------------------------

  ==> Possible Intruders <==

    T1 amplitudes larger than 0.1000 for spin case A: NULL
    T1 amplitudes larger than 0.1000 for spin case B: NULL
    T2 amplitudes larger than 0.1000 for spin case AA: NULL
    T2 amplitudes larger than 0.1000 for spin case AB:
        Amplitude         Value                               Denominator                           
    ------------------------------------------------------------------------------------------------
    [  2   2   2   3]   -0.10875359 ( -0.782363 +  -0.782363 -  -0.782363 -   0.252119 =  -1.034482)
    ------------------------------------------------------------------------------------------------
    T2 amplitudes larger than 0.1000 for spin case BB: NULL

  ==> Second-Order Perturbation DSRG-MRPT2 <==

    References:
      J. Chem. Theory Comput. 2015, 11, 2097-2108.
      J. Chem. Phys. 2017, 146, 124132.


  ==> DSRG-MRPT2 Energy Summary <==

    E0 (reference)                 =    -97.635187344718020
    <[F, A1]>                      =     -0.115719353408288
    <[F, A2]>                      =      0.000000000000000
    <[V, A1]>                      =      0.000000000000000
    <[V, A2]>                      =     -0.071374015470586
    DSRG-MRPT2 correlation energy  =     -0.187093368878874
    DSRG-MRPT2 total energy        =    -97.822280713596896

  ==> De-Normal-Order DSRG Transformed Hamiltonian <==

    Computing the scalar term                ... Done. Timing    0.001 s
    Computing the 1-body term                ... Done. Timing    0.001 s

  ==> Rotate DSRG Transformed Hamiltonian back to Original Basis <==

    Rotating 1-body term to original basis   ... Done. Timing    0.000 s
    Rotating 2-body term to original basis   ... Done. Timing    0.001 s

              ---------------------------------------------------
                Complete Active Space Configuration Interaction
                                  Chenyang Li
              ---------------------------------------------------


  ==> Input Summary <==

    No. a electrons in active      =     1
    No. b electrons in active      =     1
    multiplicity                   =     1
    spin ms (2 * Sz)               =     0

  ==> Orbital Spaces <==

    TOTAL MO                      [    7     0     2     2 ]
    FROZEN CORE                   [    1     0     0     0 ]
    FROZEN VIRTUAL                [    0     0     0     0 ]
    CORRELATED MO                 [    6     0     2     2 ]
    CORE                          [    1     0     1     1 ]
    ACTIVE                        [    2     0     0     0 ]
    VIRTUAL                       [    3     0     1     1 ]
  Forming alpha and beta strings      ...  Done. Timing        0.000005 s
  Forming determinants                ...  Done. Timing        0.000002 s

  ==> Determinants Summary <==

    number of alpha active electrons         =     1
    number of beta active electrons          =     1
    root symmetry (zero based)               =     0
    number of determinants                   =     4

  Diagonalizing Hamiltonian           ...

  ==> Computing 1 Coupling Lists <==

        α          1.417e-06 seconds
        β          1.291e-06 seconds

  ==> Computing 2 Coupling Lists <==

        αα         7.920e-07 seconds
        ββ         7.500e-07 seconds
        αβ         1.167e-06 seconds

  Davidson-Liu solver algorithm using SigmaVectorSparseList sigma algorithm

  Performing diagonalization of the H matrix
  Found 3 roots with 2S+1 = 1 *
  Found 1 roots with 2S+1 = 3  Done. Timing        0.000052 s

  * * * * * * * * * * * * * * * * *
  *  CI Vectors & Configurations  *
  * * * * * * * * * * * * * * * * *

  ==> Root No. 0 <==

    02          1.0000000000

    Total Energy:   -97.822280713596896



  ==> Energy Summary <==

    Multi.(2ms)  Irrep.  No.               Energy      <S^2>
    --------------------------------------------------------
       1  (  0)    A1     0      -97.822280713597   0.000000
    --------------------------------------------------------
 Computing  1RDMs (0 Singlet A1 - 0 Singlet A1) ... Done. Timing        0.000010 s
  Orbital rotations on spin-free RDMs ...
    Transformed 1 RDMs.

  ==> Permanent Dipole Moments [e a0] for Singlet (Ms = 0) A1 <==

       State           DM_X           DM_Y           DM_Z           |DM|
    --------------------------------------------------------------------
         0A1     0.00000000     0.00000000     2.61221130     2.61221130
    --------------------------------------------------------------------

  => MRDSRG Reference Relaxation Energy Summary <=

                         Fixed Ref. (a.u.)              Relaxed Ref. (a.u.)
           -------------------------------  -------------------------------
    Iter.          Total Energy      Delta          Total Energy      Delta
    -----------------------------------------------------------------------
        1      -99.494994198866 -9.949e+01      -99.496756048230 -9.950e+01
        2      -99.496203826163 -1.210e-03      -97.836078866964  1.661e+00
        3      -97.822280713597  1.674e+00      -97.822280713597  1.380e-02
        4      -97.822280713597  0.000e+00      -97.822280713597  0.000e+00
    -----------------------------------------------------------------------

  ==> Total Timings (s) for Computing Commutators <==

             [H1, T1]    [H1, T2]    [H2, T1]    [H2, T2]
    -----------------------------------------------------
    -> C0       0.000       0.002       0.000       0.021
    -> C1       0.001       0.004       0.004       0.047
    -> C2                   0.016       0.017       0.093
    -----------------------------------------------------


  Time to prepare integrals:        0.008 seconds
  Time to run job          :        1.571 seconds
  Total                    :        1.579 seconds
    MRDSRG fully relaxed energy...........................................................FAILED
Traceback (most recent call last):
  File "/Users/fevange/Source/psi4/objdir-Release/stage/bin/psi4", line 338, in <module>
    exec(content)
  File "<string>", line 57, in <module>
  File "/Users/fevange/Source/psi4/objdir-Release/stage/lib/psi4/driver/qcdb/testing.py", line 104, in _mergedapis_compare_values
    return qcel.testing.compare_values(expected, computed, **kwargs)
  File "/Users/fevange/Source/psi4/objdir-Release/stage/lib/qcelemental/testing.py", line 178, in compare_values
    return return_handler(allclose, label, message, return_message, quiet)
  File "/Users/fevange/Source/psi4/objdir-Release/stage/lib/psi4/driver/p4util/testing.py", line 195, in _psi4_true_raise_handler
    raise TestComparisonError(message)

psi4.driver.p4util.exceptions.TestComparisonError: 	MRDSRG fully relaxed energy: computed value (-97.8222807136) does not match (-99.4961896266) to atol=1e-08 by difference (1.6739089130).


Printing out the relevant lines from the Psithon --> Python processed input file:
    core.set_local_option("FORTE", "MAXITER", 100)
    core.set_local_option("FORTE", "E_CONVERGENCE", 8)
    Emcscf, wfn = energy('mcscf', return_wfn=True)
    compare_values(refmcscf,variable("CURRENT ENERGY"),10,"MCSCF energy")
    energy('forte', ref_wfn=wfn)
--> compare_values(refdsrgpt2,variable("CURRENT ENERGY"),8,"MRDSRG fully relaxed energy")

!----------------------------------------------------------------------------------!
!                                                                                  !
!         MRDSRG fully relaxed energy: computed value (-97.8222807136) does not    !
!     match (-99.4961896266) to atol=1e-08 by difference (1.6739089130).           !
!                                                                                  !
!----------------------------------------------------------------------------------!

    Psi4 stopped on: Saturday, 28 May 2022 02:01PM
    Psi4 wall time for execution: 0:00:01.67

*** Psi4 encountered an error. Buy a developer more coffee!
*** Resources and help at github.com/psi4/psi4.
