    -----------------------------------------------------------------------
          Psi4: An Open-Source Ab Initio Electronic Structure Package
                              Psi4 0.3.399 Driver

                          Git: Rev {master} db4a06b 

    J. M. Turney, A. C. Simmonett, R. M. Parrish, E. G. Hohenstein,
    F. A. Evangelista, J. T. Fermann, B. J. Mintz, L. A. Burns, J. J. Wilke,
    M. L. Abrams, N. J. Russ, M. L. Leininger, C. L. Janssen, E. T. Seidl,
    W. D. Allen, H. F. Schaefer, R. A. King, E. F. Valeev, C. D. Sherrill,
    and T. D. Crawford, WIREs Comput. Mol. Sci. 2, 556-565 (2012)
    (doi: 10.1002/wcms.93)

                         Additional Contributions by
    A. E. DePrince, M. Saitow, U. Bozkaya, A. Yu. Sokolov
    -----------------------------------------------------------------------


    Psi4 started on: Mon Dec 28 21:05:35 2015

    Process ID:  97506
    PSI4DATADIR: /Users/ChenyangLi/src/psi4private/lib
    Memory level set to 256.000 MB

  ==> Input File <==

--------------------------------------------------------------------------
#! Generated using commit GITCOMMIT

import forte

refmcscf     = -99.406065222746975
refdsrgpt2   = -99.498923591476725

memory 500 mb

molecule HF{
  0 1
  F
  H  1 R
  R = 1.50
}

set globals{
   basis                   3-21g
   reference               twocon
   scf_type                pk
   e_convergence           8
   maxiter                 100
   docc                   [3,0,1,1]
}

set mcscf{
   docc                   [2,0,1,1]
   socc                   [2,0,0,0]
   maxiter                 1000
   level_shift             0.5
   d_convergence           10
   e_convergence           12
}

set forte{
   job_type                mrdsrg
   frozen_docc            [1,0,0,0]
   restricted_docc        [1,0,1,1]
   active                 [2,0,0,0]
   root_sym                0
   nroot                   1
   dsrg_s                  1.0
   relax_ref               iterate
   maxiter                 100
   e_convergence           8
}

energy('mcscf')
compare_values(refmcscf,get_variable("CURRENT ENERGY"),10,"MCSCF energy") #TEST

energy('forte')
compare_values(refdsrgpt2,get_variable("CURRENT ENERGY"),8,"MRDSRG relaxed energy") #TEST
--------------------------------------------------------------------------
/Users/ChenyangLi/src/forte/forte.so loaded.

  Memory set to 500.000 MiB by Python script.

         ------------------------------------------
           MCSCF: a self-consistent field program
            written by Francesco A. Evangelista
         ------------------------------------------ MINTS: Wrapper to libmints.
   by Justin Turney

   Calculation information:
      Number of atoms:                   2
      Number of AO shells:               7
      Number of SO shells:               7
      Number of primitives:             12
      Number of atomic orbitals:        11
      Number of basis functions:        11

      Number of irreps:                  4
      Integral cutoff                 1.00e-12
      Number of functions per irrep: [   7    0    2    2 ]

 OEINTS: Overlap, kinetic, potential, dipole, and quadrupole integrals
         stored in file 35.

      Computing two-electron integrals...done
      Computed 677 non-zero two-electron integrals.
        Stored in file 33.



  MOs per irrep:                                      A1  A2  B1  B2 Total
  ----------------------------------------------------------------------------
  Total                                                7    0    2    2    11
  Doubly Occupied                                      2    0    1    1     4
  Active/Singly Occupied                               2    0    0    0     2
  ----------------------------------------------------------------------------

  Running an SCF calculation
  TWOCON MOs = [2 (A1),3 (A1)]

  Generated 66 pairs
  Distributed as [34 A1][4 A2][14 B1][14 B2]
  batch   0 pq = [       0,      34] index = [               0,             595]

  Allocated the PK matrix (595 elements) 
  Allocated the  K matrix (595 elements) 
  Reading the two-electron integrals to form PK and K ... 
  batch   0 ... done.


  =========================================================================================
         Cycle          Energy               D(Energy)            D(Density)            DIIS
  ===========================================================================================
  Setting level shift to 0.500 S
  @SCF    0      -90.711680135674     -90.711680135674       0.179571427031
    ci      = [ 0.00000000, 0.00000000]
    ci_grad = [ 0.00000000, 0.00000000]
  Setting level shift to 0.500 S
  @SCF    1      -99.209208289695      -8.497528154021       0.171539036589
    ci      = [ 0.00000000, 0.00000000]
    ci_grad = [ 0.00000000, 0.00000000]
  Setting level shift to 0.500 S
  @SCF    2      -99.181126225609       0.028082064085       0.014194650032
    ci      = [ 0.00000000, 0.00000000]
    ci_grad = [ 0.00000000, 0.00000000]
  Setting level shift to 0.500 S
  @SCF    3      -99.187147055735      -0.006020830126       0.007187093255
    ci      = [ 0.00000000, 0.00000000]
    ci_grad = [ 0.00000000, 0.00000000]
  Setting level shift to 0.500 S
  @SCF    4      -99.185505238170       0.001641817566       0.004582734244
    ci      = [ 0.00000000, 0.00000000]
    ci_grad = [ 0.00000000, 0.00000000]
  Setting level shift to 0.500 S
  @SCF    5      -99.188474394436      -0.002969156266       0.002877713537
    ci      = [ 0.00000000, 0.00000000]
    ci_grad = [ 0.00000000, 0.00000000]
  Setting level shift to 0.500 S
  @SCF    6      -99.186908014980       0.001566379456       0.001957181715
    ci      = [ 0.00000000, 0.00000000]
    ci_grad = [ 0.00000000, 0.00000000]
  Setting level shift to 0.500 S/E
  @SCF    7      -99.189018415622      -0.002110400641       0.001358833721
    ci      = [ 0.00000000, 0.00000000]
    ci_grad = [ 0.00000000, 0.00000000]
  Setting level shift to 0.500 S/E
  @SCF    8      -99.188321586517       0.000696829105       0.000571003443
    ci      = [ 0.00000000, 0.00000000]
    ci_grad = [ 0.00000000, 0.00000000]
  Setting level shift to 0.500 S/E
  @SCF    9      -99.188265995166       0.000055591351       0.000013369739
    ci      = [ 0.00000000, 0.00000000]
    ci_grad = [ 0.00000000, 0.00000000]
  Setting level shift to 0.500 S/E
  @SCF   10      -99.188257103034       0.000008892132       0.000002169527
    ci      = [-0.93934204, 0.34298182]
    ci_grad = [ 0.00000000, 0.00000000]
  Setting level shift to 0.500 S/E
  @SCF   11      -99.188255334686       0.000001768348       0.000000855765
    ci      = [-0.93934230, 0.34298112]
    ci_grad = [-0.00000152, 0.00000100]
  Setting level shift to 0.500 S/E
  @SCF   12      -99.188255068103       0.000000266583       0.000000113202
    ci      = [-0.93934223, 0.34298130]
    ci_grad = [-0.00000029,-0.00000001]
  Setting level shift to 0.500 S/E
  @SCF   13      -99.188257583168      -0.000002515065       0.000000557801
    ci      = [-0.93934249, 0.34298061]
    ci_grad = [ 0.00000250,-0.00000048]
  Setting level shift to 0.500 S/E
  @SCF   14      -99.188256441408       0.000001141760       0.000000350205
    ci      = [-0.93934242, 0.34298079]
    ci_grad = [-0.00000111, 0.00000029]
  Setting level shift to 0.500 S/E
  @SCF   15      -99.188256647047      -0.000000205640       0.000000028668
    ci      = [-0.93934243, 0.34298075]
    ci_grad = [ 0.00000020,-0.00000005]
  Setting level shift to 0.500 S/E
  @SCF   16      -99.188272230388      -0.000015583341       0.000001972314
    ci      = [-0.93934243, 0.34298075]
    ci_grad = [ 0.00001561,-0.00000267]
  Setting level shift to 0.500 S/E
  @SCF   17      -99.188250694329       0.000021536059       0.000002904474
    ci      = [-0.93934243, 0.34298075]
    ci_grad = [-0.00002003, 0.00000793]
  Setting level shift to 0.500 S/E
  @SCF   18      -99.338059184802      -0.149808490473       0.036353629431
    ci      = [-0.93934243, 0.34298075]
    ci_grad = [ 0.16016501, 0.02882643]
  Setting level shift to 0.500 S/E
  @SCF   19      -99.382637637933      -0.044578453131       0.017254209079
    ci      = [-0.93934243, 0.34298075]
    ci_grad = [ 0.05104853, 0.01348607]
  Setting level shift to 0.500 S/E
  @SCF   20      -99.391018325186      -0.008380687253       0.006384377750
    ci      = [-0.93934243, 0.34298075]
    ci_grad = [ 0.01838755, 0.03075611]
  Setting level shift to 0.500 S/E
  @SCF   21      -99.396615701211      -0.005597376025       0.005352057196
    ci      = [-0.93934243, 0.34298075]
    ci_grad = [ 0.01346021, 0.02328629]
  Setting level shift to 0.500 S/E
  @SCF   22      -99.402015052174      -0.005399350964       0.006405889785
    ci      = [-0.93934243, 0.34298075]
    ci_grad = [ 0.01309215, 0.02265974]
  Setting level shift to 0.500 S/E
  @SCF   23      -99.404448472505      -0.002433420330       0.004513280662
    ci      = [-0.93934243, 0.34298075]
    ci_grad = [ 0.00879147, 0.01858268]
  Setting level shift to 0.500 S/E
  @SCF   24      -99.405884153468      -0.001435680963       0.005154808161
    ci      = [-0.93934243, 0.34298075]
    ci_grad = [ 0.00790136, 0.01904287]
  Setting level shift to 0.500 S/E
  @SCF   25      -99.405932987140      -0.000048833672       0.000641261050
    ci      = [-0.93934243, 0.34298075]
    ci_grad = [ 0.00659313, 0.01949740]
  Setting level shift to 0.500 S/E
  @SCF   26      -99.405964415635      -0.000031428495       0.000494155887
    ci      = [-0.93934243, 0.34298075]
    ci_grad = [ 0.00660635, 0.01959748]
  Setting level shift to 0.500 S/E
  @SCF   27      -99.405975007972      -0.000010592337       0.000412810712
    ci      = [-0.93934243, 0.34298075]
    ci_grad = [ 0.00657026, 0.01955139]
  Setting level shift to 0.500 S/E
  @SCF   28      -99.405962786466       0.000012221505       0.000190190514
    ci      = [-0.93934243, 0.34298075]
    ci_grad = [ 0.00647208, 0.01930929]
  Setting level shift to 0.500 S/E
  @SCF   29      -99.405970257051      -0.000007470585       0.000155314923
    ci      = [-0.94800833, 0.31824552]
    ci_grad = [ 0.00652150, 0.01940315]
  Setting level shift to 0.500 S/E
  @SCF   30      -99.405970917443      -0.000000660392       0.000041838294
    ci      = [-0.94801192, 0.31823481]
    ci_grad = [ 0.00000343, 0.00000816]
  Setting level shift to 0.500 S/E
  @SCF   31      -99.405968019414       0.000002898029       0.000018858777
    ci      = [-0.94799011, 0.31829979]
    ci_grad = [-0.00001979,-0.00004984]
  Setting level shift to 0.500 S/E
  @SCF   32      -99.405961970042       0.000006049371       0.000036311919
    ci      = [-0.94794607, 0.31843090]
    ci_grad = [-0.00004012,-0.00010045]
  Setting level shift to 0.500 S/E
  @SCF   33      -99.405956738771       0.000005231272       0.000034856621
    ci      = [-0.94790946, 0.31853989]
    ci_grad = [-0.00003355,-0.00008341]
  Setting level shift to 0.500 S/E
  @SCF   34      -99.405976051236      -0.000019312465       0.000148868138
    ci      = [-0.94790946, 0.31853989]
    ci_grad = [ 0.00012755, 0.00031942]
  Setting level shift to 0.500 S/E
  @SCF   35      -99.406023028815      -0.000046977579       0.000468141019
    ci      = [-0.94790946, 0.31853989]
    ci_grad = [ 0.00048835, 0.00131359]
  Setting level shift to 0.500 S/E
  @SCF   36      -99.406037187179      -0.000014158365       0.000195376463
    ci      = [-0.94790946, 0.31853989]
    ci_grad = [ 0.00059523, 0.00174034]
  Setting level shift to 0.500 S/E
  @SCF   37      -99.406062394033      -0.000025206853       0.000595014534
    ci      = [-0.94790946, 0.31853989]
    ci_grad = [ 0.00102845, 0.00302183]
  Setting level shift to 0.500 S/E
  @SCF   38      -99.406062880067      -0.000000486034       0.000023987698
    ci      = [-0.94921115, 0.31463978]
    ci_grad = [ 0.00102238, 0.00308280]
  Setting level shift to 0.500 S/E
  @SCF   39      -99.406062941084      -0.000000061017       0.000027962110
    ci      = [-0.94921171, 0.31463810]
    ci_grad = [ 0.00000050, 0.00000131]
  Setting level shift to 0.500 S/E
  @SCF   40      -99.406065080128      -0.000002139044       0.000192408228
    ci      = [-0.94938170, 0.31412478]
    ci_grad = [ 0.00013643, 0.00040553]
  Setting level shift to 0.500 S/E
  @SCF   41      -99.406064747739       0.000000332390       0.000045703270
    ci      = [-0.94933372, 0.31426976]
    ci_grad = [-0.00003828,-0.00011457]
  Setting level shift to 0.500 S/E
  @SCF   42      -99.406065172028      -0.000000424289       0.000080691225
    ci      = [-0.94940335, 0.31405935]
    ci_grad = [ 0.00005550, 0.00016642]
  Setting level shift to 0.500 S/E
  @SCF   43      -99.406065209927      -0.000000037900       0.000018033645
    ci      = [-0.94942011, 0.31400868]
    ci_grad = [ 0.00001330, 0.00004010]
  Setting level shift to 0.500 S/E
  @SCF   44      -99.406065221780      -0.000000011853       0.000014284041
    ci      = [-0.94943249, 0.31397125]
    ci_grad = [ 0.00000981, 0.00002963]
  Setting level shift to 0.500 S/E
  @SCF   45      -99.406065222308      -0.000000000527       0.000008566087
    ci      = [-0.94943994, 0.31394871]
    ci_grad = [ 0.00000590, 0.00001785]
  Setting level shift to 0.500 S/E
  @SCF   46      -99.406065222660      -0.000000000352       0.000002178409
    ci      = [-0.94943830, 0.31395367]
    ci_grad = [-0.00000130,-0.00000393]
  Setting level shift to 0.500 S/E
  @SCF   47      -99.406065222740      -0.000000000080       0.000001799561
    ci      = [-0.94943669, 0.31395855]
    ci_grad = [-0.00000128,-0.00000386]
  Setting level shift to 0.500 S/E
  @SCF   48      -99.406065222743      -0.000000000003       0.000000156457
    ci      = [-0.94943675, 0.31395837]
    ci_grad = [ 0.00000005, 0.00000014]
  Setting level shift to 0.500 S/E
  @SCF   49      -99.406065222735       0.000000000008       0.000000316946
    ci      = [-0.94943646, 0.31395924]
    ci_grad = [-0.00000023,-0.00000069]
  Setting level shift to 0.500 S/E
  @SCF   50      -99.406065222747      -0.000000000012       0.000000599070
    ci      = [-0.94943694, 0.31395778]
    ci_grad = [ 0.00000038, 0.00000115]
  Setting level shift to 0.500 S/E
  @SCF   51      -99.406065222746       0.000000000001       0.000000200248
    ci      = [-0.94943708, 0.31395736]
    ci_grad = [ 0.00000011, 0.00000033]
  Setting level shift to 0.500 S/E
  @SCF   52      -99.406065222747      -0.000000000001       0.000000081358
    ci      = [-0.94943701, 0.31395758]
    ci_grad = [-0.00000006,-0.00000018]
  Setting level shift to 0.500 S/E
  @SCF   53      -99.406065222747       0.000000000000       0.000000011527
    ci      = [-0.94943700, 0.31395760]
    ci_grad = [-0.00000000,-0.00000001]
  Setting level shift to 0.500 S/E
  @SCF   54      -99.406065222747      -0.000000000000       0.000000051564
    ci      = [-0.94943696, 0.31395774]
    ci_grad = [-0.00000004,-0.00000011]
  Setting level shift to 0.500 S/E
  @SCF   55      -99.406065222747      -0.000000000000       0.000000006960
    ci      = [-0.94943696, 0.31395772]
    ci_grad = [ 0.00000000, 0.00000001]
  Setting level shift to 0.500 S/E
  @SCF   56      -99.406065222747       0.000000000000       0.000000011207
    ci      = [-0.94943696, 0.31395775]
    ci_grad = [-0.00000001,-0.00000002]
  Setting level shift to 0.500 S/E
  @SCF   57      -99.406065222747      -0.000000000000       0.000000022502
    ci      = [-0.94943698, 0.31395769]
    ci_grad = [ 0.00000002, 0.00000005]
  Setting level shift to 0.500 S/E
  @SCF   58      -99.406065222747      -0.000000000000       0.000000009309
    ci      = [-0.94943697, 0.31395771]
    ci_grad = [-0.00000001,-0.00000002]
  Setting level shift to 0.500 S/E
  @SCF   59      -99.406065222747       0.000000000000       0.000000003423
    ci      = [-0.94943697, 0.31395770]
    ci_grad = [ 0.00000000, 0.00000001]
  Setting level shift to 0.500 S/E
  @SCF   60      -99.406065222747      -0.000000000000       0.000000002006
    ci      = [-0.94943697, 0.31395771]
    ci_grad = [-0.00000000,-0.00000000]
  Setting level shift to 0.500 S/E
  @SCF   61      -99.406065222747      -0.000000000000       0.000000002598
    ci      = [-0.94943697, 0.31395771]
    ci_grad = [-0.00000000,-0.00000000]
  Setting level shift to 0.500 S/E
  @SCF   62      -99.406065222747       0.000000000000       0.000000000834
    ci      = [-0.94943697, 0.31395771]
    ci_grad = [ 0.00000000, 0.00000000]
  Setting level shift to 0.500 S/E
  @SCF   63      -99.406065222747      -0.000000000000       0.000000000272
    ci      = [-0.94943697, 0.31395771]
    ci_grad = [-0.00000000,-0.00000000]
  Setting level shift to 0.500 S/E
  @SCF   64      -99.406065222747       0.000000000000       0.000000000030
    ci      = [-0.94943697, 0.31395771]
    ci_grad = [ 0.00000000, 0.00000000]
  Setting level shift to 0.500 S/E
  @SCF   65      -99.406065222747       0.000000000000       0.000000000109
    ci      = [-0.94943697, 0.31395771]
    ci_grad = [ 0.00000000, 0.00000000]
  Setting level shift to 0.500 S/E
  @SCF   66      -99.406065222747      -0.000000000000       0.000000000065
    ci      = [-0.94943697, 0.31395771]
    ci_grad = [ 0.00000000, 0.00000000]
  Setting level shift to 0.500 S/E
  @SCF   67      -99.406065222747      -0.000000000000       0.000000000016
    ci      = [-0.94943697, 0.31395771]
    ci_grad = [-0.00000000,-0.00000000]
  =========================================================================================

      * SCF total energy   =     -99.406065222747


      CI coefficients  = [-0.949436968, 0.313957711]

  End of SCF
  MOs orthonormality check passed.

  Orbitals are canonicalized as:
  inactive (docc + uocc) : Fock(core)
  active   (actv)        : Fock(core)

  =========================================================================
  Eigenvalues (Eh)
  -------------------------------------------------------------------------
  Doubly occupied orbitals
      1    -26.175209  A1      2     -1.495695  A1      3     -0.623385  B1
      4     -0.623385  B2
  Active orbitals
      5     -0.510102  A1      6      0.074682  A1
  Unoccupied orbitals
      7      1.595133  A1      8      2.709370  B1      9      2.709370  B2
     10      2.796416  A1     11      3.870480  A1
  =========================================================================


  MCSCF Execution Completed.


*** tstop() called on dhcp190-250.emerson.emory.edu at Mon Dec 28 21:05:36 2015
Module time:
	user time   =       0.17 seconds =       0.00 minutes
	system time =       0.07 seconds =       0.00 minutes
	total time  = 1451354736 seconds = 24189245.60 minutes
Total time:
	user time   =       0.17 seconds =       0.00 minutes
	system time =       0.07 seconds =       0.00 minutes
	total time  = 1451354736 seconds = 24189245.60 minutes
Reading options from the FORTE block
Calling plugin /Users/ChenyangLi/src/forte/forte.so.


  ==> MO Space Information <==

  Read options for space FROZEN_DOCC
  Read options for space RESTRICTED_DOCC
  Read options for space ACTIVE
 Removing orbital 0
  -------------------------------------------------
                       A1    A2    B1    B2   Sum
  -------------------------------------------------
    FROZEN_DOCC         1     0     0     0     1
    RESTRICTED_DOCC     1     0     1     1     3
    ACTIVE              2     0     0     0     2
    RESTRICTED_UOCC     3     0     1     1     5
    FROZEN_UOCC         0     0     0     0     0
    Total               7     0     2     2    11
  -------------------------------------------------

  ==> Integral Transformation <==

  Number of molecular orbitals:               11
  Number of correlated molecular orbitals:    10
  Number of frozen occupied orbitals:          1
  Number of frozen unoccupied orbitals:        0


  Overall Conventional Integrals timings

	Presorting SO-basis two-electron integrals.
	Sorting File: SO Ints (nn|nn) nbuckets = 1
	Transforming the one-electron integrals and constructing Fock matrices
	Starting first half-transformation.
	Sorting half-transformed integrals.
	First half integral transformation complete.
	Starting second half-transformation.
	Two-electron integral transformation complete.

  Integral transformation done. 0.00493200 s
  Reading the two-electron integrals from disk
  Size of two-electron integrals:   0.000327 GB MINTS: Wrapper to libmints.
   by Justin Turney

   Calculation information:
      Number of atoms:                   2
      Number of AO shells:               7
      Number of SO shells:               7
      Number of primitives:             12
      Number of atomic orbitals:        11
      Number of basis functions:        11

      Number of irreps:                  4
      Integral cutoff                 1.00e-12
      Number of functions per irrep: [   7    0    2    2 ]

 OEINTS: Overlap, kinetic, potential, dipole, and quadrupole integrals
         stored in file 35.

      Computing two-electron integrals...done
      Computed 677 non-zero two-electron integrals.
        Stored in file 33.

	Batch   1 pq = [       0,      34] index = [             0,595]

  Frozen-core energy            -75.818535536960 a.u.

 FrozenOneBody Operator takes  0.05399800 s
  Resorting integrals after freezing core.
  Conventional integrals take 0.05997600 s

                -----------------------------------------------
                  String-based Full Configuration Interaction
                          by Francesco A. Evangelista
                -----------------------------------------------

  Number of electrons: 10
  Charge: 0
  Multiplicity: 1
  Davidson subspace max dim: 8
  Davidson subspace min dim: 2
  M_s: 0

  ==> String Lists <==

  Number of alpha electrons     = 1
  Number of beta electrons      = 1
  Number of alpha strings       = 2
  Number of beta strings        = 2
  Timing for strings        =      0.000 s
  Timing for NN strings     =      0.000 s
  Timing for VO strings     =      0.000 s
  Timing for OO strings     =      0.000 s
  Timing for Knowles-Handy  =      0.000 s
  Timing for VVOO strings   =      0.000 s
  Timing for VOVO strings   =      0.000 s
  Timing for 1-hole strings =      0.000 s
  Timing for 2-hole strings =      0.000 s
  Timing for 3-hole strings =      0.000 s
  Total timing              =      0.000 s

  ==> FCI Solver <==

    Number of determinants                           4
    Symmetry                                         0
    Multiplicity                                     1
    Number of roots                                  1
    Target root                                      0
    Trial vectors per root                          10

  Allocating memory for the Hamiltonian algorithm. Size: 2 x 2 x 2.   Memory: 0.000000 GB

  ==> FCI Initial Guess <==

  ---------------------------------------------
    Root            Energy     <S^2>   Spin
  ---------------------------------------------
      0      -99.406065222747  0.000  singlet
      1      -99.266219555567  2.000  triplet
      2      -98.863152604975  0.000  singlet
      3      -98.545355422536  0.000  singlet
  ---------------------------------------------
  Timing for initial guess  =      0.000 s

  Projecting out root 1
  ==> Diagonalizing Hamiltonian <==

  ----------------------------------------
    Iter.      Avg. Energy       Delta_E
  ----------------------------------------
      1      -99.406065222747  -9.941e+01
      2      -99.406065222747  +1.421e-14
  ----------------------------------------
  The Davidson-Liu algorithm converged in 3 iterations.

  ==> Root No. 0 <==

    20      0.94943697
    02     -0.31395771

    Total Energy:       -99.406065222746960

  ==> RDMs for Root No. 0 <==
    Timing for 1-RDM: 0.000 s
    Timing for 2-RDM: 0.000 s
    Timing for 3-RDM: 0.000 s

  ==> NATURAL ORBITALS <==

        1A1     1.802861      2A1     0.197139  



                          ----------------------------
                            Semi-Canonical Orbitals
                            Francesco A. Evangelista
                          ----------------------------


  ==> Integral transformation <==
	Presorting SO-basis two-electron integrals.
	Sorting File: SO Ints (nn|nn) nbuckets = 1
	Transforming the one-electron integrals and constructing Fock matrices
	Starting first half-transformation.
	Sorting half-transformed integrals.
	First half integral transformation complete.
	Starting second half-transformation.
	Two-electron integral transformation complete.

  Integral transformation done. 0.00524100 s
  Reading the two-electron integrals from disk
  Size of two-electron integrals:   0.000327 GB MINTS: Wrapper to libmints.
   by Justin Turney

   Calculation information:
      Number of atoms:                   2
      Number of AO shells:               7
      Number of SO shells:               7
      Number of primitives:             12
      Number of atomic orbitals:        11
      Number of basis functions:        11

      Number of irreps:                  4
      Integral cutoff                 1.00e-12
      Number of functions per irrep: [   7    0    2    2 ]

 OEINTS: Overlap, kinetic, potential, dipole, and quadrupole integrals
         stored in file 35.

      Computing two-electron integrals...done
      Computed 677 non-zero two-electron integrals.
        Stored in file 33.

	Batch   1 pq = [       0,      34] index = [             0,595]

  Frozen-core energy            -75.818535536960 a.u.

 FrozenOneBody Operator takes  0.05331400 s
  Resorting integrals after freezing core.
 Frozen Orbitals takes 0.05350700 s

                -----------------------------------------------
                  String-based Full Configuration Interaction
                          by Francesco A. Evangelista
                -----------------------------------------------

  Number of electrons: 10
  Charge: 0
  Multiplicity: 1
  Davidson subspace max dim: 8
  Davidson subspace min dim: 2
  M_s: 0

  ==> String Lists <==

  Number of alpha electrons     = 1
  Number of beta electrons      = 1
  Number of alpha strings       = 2
  Number of beta strings        = 2
  Timing for strings        =      0.000 s
  Timing for NN strings     =      0.000 s
  Timing for VO strings     =      0.000 s
  Timing for OO strings     =      0.000 s
  Timing for Knowles-Handy  =      0.000 s
  Timing for VVOO strings   =      0.000 s
  Timing for VOVO strings   =      0.000 s
  Timing for 1-hole strings =      0.000 s
  Timing for 2-hole strings =      0.000 s
  Timing for 3-hole strings =      0.000 s
  Total timing              =      0.000 s

  ==> FCI Solver <==

    Number of determinants                           4
    Symmetry                                         0
    Multiplicity                                     1
    Number of roots                                  1
    Target root                                      0
    Trial vectors per root                          10

  Allocating memory for the Hamiltonian algorithm. Size: 2 x 2 x 2.   Memory: 0.000000 GB

  ==> FCI Initial Guess <==

  ---------------------------------------------
    Root            Energy     <S^2>   Spin
  ---------------------------------------------
      0      -99.406065222747  0.000  singlet
      1      -99.266219555567  2.000  triplet
      2      -98.863152604975  0.000  singlet
      3      -98.545355422536  0.000  singlet
  ---------------------------------------------
  Timing for initial guess  =      0.000 s

  Projecting out root 1
  ==> Diagonalizing Hamiltonian <==

  ----------------------------------------
    Iter.      Avg. Energy       Delta_E
  ----------------------------------------
      1      -99.406065222747  -9.941e+01
      2      -99.406065222747  +1.421e-14
  ----------------------------------------
  The Davidson-Liu algorithm converged in 3 iterations.

  ==> Root No. 0 <==

    20      0.94498921
    02     -0.30950995

    Total Energy:       -99.406065222747031

  ==> RDMs for Root No. 0 <==
    Timing for 1-RDM: 0.000 s
    Timing for 2-RDM: 0.000 s
    Timing for 3-RDM: 0.000 s

  ==> NATURAL ORBITALS <==

        1A1     1.802861      2A1     0.197139  



           ----------------------------------------------------------
             Multireference Driven Similarity Renormalization Group
                                  Chenyang Li
           ----------------------------------------------------------


  ==> Calculation Information <==

    ntamp                                            15
    diis_min_vecs                                     2
    diis_max_vecs                                     5
    flow parameter                            1.000e+00
    taylor expansion threshold                1.000e-03
    intruder_tamp                             1.000e-01
    corr_level                                      PT2
    int_type                               CONVENTIONAL
    source operator                            STANDARD
    smart_dsrg_s                                 DSRG_S
    reference relaxation                        ITERATE
    dsrg transformation type                    UNITARY
    core virtual source type                     NORMAL

  ==> Density Cumulant Summary <==

    2-body               AA           AB           BB
    -------------------------------------------------
    max            0.088854     0.085515     0.088854
    norm           0.177707     0.457479     0.177707
    -------------------------------------------------
    3-body              AAA          AAB          ABB          BBB
    --------------------------------------------------------------
    max            0.000000     0.070835     0.070835     0.000000
    norm           0.000000     0.201772     0.201772     0.000000
    --------------------------------------------------------------
  Warning: I am forcing Fb = Fa to avoid spin symmetry breaking.
  If this is not desired, go to mrdsrg.cc around line 220.

  ==> Checking Orbitals <==

    Checking if orbitals are semi-canonicalized ...     OK.
    Orbitals are semi-canonicalized.

  ==> Build Initial Amplitude from DSRG-MRPT2 <==

    Computing T2 amplitudes ...          Done. Timing      0.003 s
    Computing T1 amplitudes ...          Done. Timing      0.003 s

  ==> First-Order Excitation Amplitudes Summary <==

    Active Indices:    1    2 
    Largest T1 amplitudes for spin case A:
       i       a                  i       a                  i       a               
    --------------------------------------------------------------------------------
    [  2       4    ]-0.102481 [  2       3    ]-0.096228 [  0       1    ] 0.039643 
    [  1       4    ]-0.020489 [  1       3    ] 0.007567 [  0       2    ]-0.006771 
    [  2       5    ] 0.004893 [  1       5    ] 0.003082 [  8       9    ] 0.000313 
    [  6       7    ] 0.000313 [  0       3    ]-0.000094 [  0       5    ]-0.000043 
    [  0       4    ] 0.000023 
    --------------------------------------------------------------------------------
    Norm of T1A vector: (nonzero elements: 13)                    0.147953918769967.
    --------------------------------------------------------------------------------
    Largest T1 amplitudes for spin case B:
       _       _                  _       _                  _       _               
       i       a                  i       a                  i       a               
    --------------------------------------------------------------------------------
    [  2       4    ]-0.102481 [  2       3    ]-0.096228 [  0       1    ] 0.039643 
    [  1       4    ]-0.020489 [  1       3    ] 0.007567 [  0       2    ]-0.006771 
    [  2       5    ] 0.004893 [  1       5    ] 0.003082 [  8       9    ] 0.000313 
    [  6       7    ] 0.000313 [  0       3    ]-0.000094 [  0       5    ]-0.000043 
    [  0       4    ] 0.000023 
    --------------------------------------------------------------------------------
    Norm of T1B vector: (nonzero elements: 13)                    0.147953918769964.
    --------------------------------------------------------------------------------
    Largest T2 amplitudes for spin case AA:
       i   j   a   b              i   j   a   b              i   j   a   b           
    --------------------------------------------------------------------------------
    [  1   8   1   9]-0.046847 [  1   6   1   7]-0.046847 [  2   8   1   9]-0.045393 
    [  2   6   1   7]-0.045393 [  2   8   2   9]-0.036068 [  2   6   2   7]-0.036068 
    [  0   1   1   2] 0.034294 [  1   8   2   9]-0.030773 [  1   6   2   7]-0.030773 
    [  1   2   1   3]-0.024606 [  6   8   7   9]-0.024088 [  0   1   1   5]-0.021278 
    [  1   2   1   4]-0.019808 [  2   6   4   7]-0.019572 [  2   8   4   9]-0.019572 
    --------------------------------------------------------------------------------
    Norm of T2AA vector: (nonzero elements: 240)                  0.282244263518410.
    --------------------------------------------------------------------------------
    Largest T2 amplitudes for spin case AB:
           _       _                  _       _                  _       _           
       i   j   a   b              i   j   a   b              i   j   a   b           
    --------------------------------------------------------------------------------
    [  2   2   2   3]-0.075866 [  2   2   1   4]-0.074388 [  0   0   1   1]-0.060158 
    [  2   2   3   3]-0.051717 [  1   2   1   3]-0.050780 [  1   2   1   4]-0.050276 
    [  2   8   1   9]-0.050009 [  2   6   1   7]-0.050009 [  1   8   1   9]-0.048770 
    [  1   6   1   7]-0.048770 [  1   2   2   4]-0.046425 [  2   8   2   9]-0.039894 
    [  2   6   2   7]-0.039894 [  8   8   9   9]-0.036327 [  6   6   7   7]-0.036327 
    --------------------------------------------------------------------------------
    Norm of T2AB vector: (nonzero elements: 405)                  0.349806856060943.
    --------------------------------------------------------------------------------
    Largest T2 amplitudes for spin case BB:
       _   _   _   _              _   _   _   _              _   _   _   _           
       i   j   a   b              i   j   a   b              i   j   a   b           
    --------------------------------------------------------------------------------
    [  1   8   1   9]-0.046847 [  1   6   1   7]-0.046847 [  2   8   1   9]-0.045393 
    [  2   6   1   7]-0.045393 [  2   8   2   9]-0.036068 [  2   6   2   7]-0.036068 
    [  0   1   1   2] 0.034294 [  1   8   2   9]-0.030773 [  1   6   2   7]-0.030773 
    [  1   2   1   3]-0.024606 [  6   8   7   9]-0.024088 [  0   1   1   5]-0.021278 
    [  1   2   1   4]-0.019808 [  2   6   4   7]-0.019572 [  2   8   4   9]-0.019572 
    --------------------------------------------------------------------------------
    Norm of T2BB vector: (nonzero elements: 240)                  0.282244263518410.
    --------------------------------------------------------------------------------

  ==> Possible Intruders <==

    T1 amplitudes larger than 0.1000 for spin case A:
        Amplitude         Value                  Denominator              
    ----------------------------------------------------------------------
    [  2       4    ]   -0.10248098 (  0.076755 -   2.296416 =  -2.219660)
    ----------------------------------------------------------------------
    T1 amplitudes larger than 0.1000 for spin case B:
        Amplitude         Value                  Denominator              
    ----------------------------------------------------------------------
    [  2       4    ]   -0.10248098 (  0.076755 -   2.296416 =  -2.219660)
    ----------------------------------------------------------------------
    T2 amplitudes larger than 0.1000 for spin case AA: NULL
    T2 amplitudes larger than 0.1000 for spin case AB: NULL
    T2 amplitudes larger than 0.1000 for spin case BB: NULL

  ==> Second-Order Perturbation DSRG-MRPT2 <==

    Reference:
      J. Chem. Theory Comput. 2015, 11, 2097-2108.

    Checking if orbitals are semi-canonicalized ...     OK.

  ==> DSRG-MRPT2 Energy Summary <==

    E0 (reference)                 =    -99.406065222747031
    <[F, A1]>                      =     -0.011206934796081
    <[F, A2]>                      =      0.009420145973523
    <[V, A1]>                      =      0.010656819218053
    <[V, A2]>                      =     -0.097799005519659
    DSRG-MRPT2 correlation energy  =     -0.088928975124163
    DSRG-MRPT2 total energy        =    -99.494994197871193

  ==> De-Normal-Order the DSRG Transformed Hamiltonian <==

    Computing the scalar term   ...      Done. Timing      0.014 s
    Computing the one-body term ...      Done. Timing      0.007 s
    Updating integrals          ...      Done. Timing      0.006 s

  ==> Scalar of the DSRG Hamiltonian (WRT True Vacuum) <==

    Scalar0                        =    -26.851521912451673
    Scalar1                        =      6.556800957525161
    Scalar2                        =     19.068170581235318
    Total Scalar W/O Frozen-Core   =     -1.226550373691193
    Total Scalar W/  Frozen-Core   =    -77.045085910650712

  ==> Test De-Normal-Ordered Hamiltonian <==

    One-Body Energy (after)        =    -44.397868000896551
    Two-Body Energy (after)        =     18.772896462136067
    Total Energy (after)           =    -99.494994197871193
    Total Energy (before)          =    -99.494994197871193
 Frozen Orbitals takes 0.00000200 s

  ==> String Lists <==

  Number of alpha electrons     = 1
  Number of beta electrons      = 1
  Number of alpha strings       = 2
  Number of beta strings        = 2
  Timing for strings        =      0.000 s
  Timing for NN strings     =      0.000 s
  Timing for VO strings     =      0.000 s
  Timing for OO strings     =      0.000 s
  Timing for Knowles-Handy  =      0.000 s
  Timing for VVOO strings   =      0.000 s
  Timing for VOVO strings   =      0.000 s
  Timing for 1-hole strings =      0.000 s
  Timing for 2-hole strings =      0.000 s
  Timing for 3-hole strings =      0.000 s
  Total timing              =      0.000 s

  ==> FCI Solver <==

    Number of determinants                           4
    Symmetry                                         0
    Multiplicity                                     1
    Number of roots                                  0
    Target root                                      0
    Trial vectors per root                          10

  Allocating memory for the Hamiltonian algorithm. Size: 2 x 2 x 2.   Memory: 0.000000 GB

  ==> FCI Initial Guess <==

  ---------------------------------------------
    Root            Energy     <S^2>   Spin
  ---------------------------------------------
      0      -99.496756047235  0.000  singlet
      1      -99.366765009389  2.000  triplet
      2      -99.145811988232  0.000  singlet
      3      -98.795670952695  0.000  singlet
  ---------------------------------------------
  Timing for initial guess  =      0.000 s

  Projecting out root 1
  ==> Diagonalizing Hamiltonian <==

  ----------------------------------------
    Iter.      Avg. Energy       Delta_E
  ----------------------------------------
      1      -99.496756047235  -9.950e+01
      2      -99.496756047235  +1.421e-14
  ----------------------------------------
  The Davidson-Liu algorithm converged in 3 iterations.

  ==> Root No. 0 <==

    20      0.96308756
    02     -0.26072611

    Total Energy:       -99.496756047235351

  ==> RDMs for Root No. 0 <==
    Timing for 1-RDM: 0.000 s
    Timing for 2-RDM: 0.000 s
    Timing for 3-RDM: 0.000 s

  ==> NATURAL ORBITALS <==

        1A1     1.862129      2A1     0.137871  



  ==> Density Cumulant Summary <==

    2-body               AA           AB           BB
    -------------------------------------------------
    max            0.064183     0.063047     0.064183
    norm           0.128367     0.380584     0.128367
    -------------------------------------------------
    3-body              AAA          AAB          ABB          BBB
    --------------------------------------------------------------
    max            0.000000     0.055169     0.055169     0.000000
    norm           0.000000     0.156509     0.156509     0.000000
    --------------------------------------------------------------
  Warning: I am forcing Fb = Fa to avoid spin symmetry breaking.
  If this is not desired, go to mrdsrg.cc around line 220.

  ==> Semi-canonicalize Orbitals <==

    Checking if orbitals are semi-canonicalized ...
    Warning! Orbitals are not semi-canonicalized!
    Off-Diagonal norms of the core, active, virtual blocks of Fock matrix
                  core          active         virtual
    ---------------------------------------------------
    Fa    0.0000000000    0.0068739868    0.0061599176
    Fb    0.0000000000    0.0068739868    0.0061599176
    ---------------------------------------------------

    Timing for block-diagonalizing Fock matrix:        0.000
    Timing for transforming one-electron integral:     0.071
 Frozen Orbitals takes 0.00000200 s
    Timing for transforming two-electron integral:     2.882

  ==> String Lists <==

  Number of alpha electrons     = 1
  Number of beta electrons      = 1
  Number of alpha strings       = 2
  Number of beta strings        = 2
  Timing for strings        =      0.000 s
  Timing for NN strings     =      0.000 s
  Timing for VO strings     =      0.000 s
  Timing for OO strings     =      0.000 s
  Timing for Knowles-Handy  =      0.000 s
  Timing for VVOO strings   =      0.000 s
  Timing for VOVO strings   =      0.000 s
  Timing for 1-hole strings =      0.000 s
  Timing for 2-hole strings =      0.000 s
  Timing for 3-hole strings =      0.000 s
  Total timing              =      0.000 s

  ==> FCI Solver <==

    Number of determinants                           4
    Symmetry                                         0
    Multiplicity                                     1
    Number of roots                                  0
    Target root                                      0
    Trial vectors per root                          10

  Allocating memory for the Hamiltonian algorithm. Size: 2 x 2 x 2.   Memory: 0.000000 GB

  ==> FCI Initial Guess <==

  ---------------------------------------------
    Root            Energy     <S^2>   Spin
  ---------------------------------------------
      0      -99.496756047235  0.000  singlet
      1      -99.366765009389  2.000  triplet
      2      -99.145811988232  0.000  singlet
      3      -98.795670952695  0.000  singlet
  ---------------------------------------------
  Timing for initial guess  =      0.000 s

  Projecting out root 1
  ==> Diagonalizing Hamiltonian <==

  ----------------------------------------
    Iter.      Avg. Energy       Delta_E
  ----------------------------------------
      1      -99.496756047235  -9.950e+01
      2      -99.496756047235  -1.421e-14
  ----------------------------------------
  The Davidson-Liu algorithm converged in 3 iterations.

  ==> Root No. 0 <==

    20      0.96376909
    02     -0.26140763

    Total Energy:       -99.496756047235351

  ==> RDMs for Root No. 0 <==
    Timing for 1-RDM: 0.000 s
    Timing for 2-RDM: 0.000 s
    Timing for 3-RDM: 0.000 s

  ==> NATURAL ORBITALS <==

        1A1     1.862129      2A1     0.137871  



  ==> Density Cumulant Summary <==

    2-body               AA           AB           BB
    -------------------------------------------------
    max            0.064183     0.063470     0.064183
    norm           0.128367     0.380584     0.128367
    -------------------------------------------------
    3-body              AAA          AAB          ABB          BBB
    --------------------------------------------------------------
    max            0.000000     0.055231     0.055231     0.000000
    norm           0.000000     0.156509     0.156509     0.000000
    --------------------------------------------------------------
  Warning: I am forcing Fb = Fa to avoid spin symmetry breaking.
  If this is not desired, go to mrdsrg.cc around line 220.

  ==> Build Initial Amplitude from DSRG-MRPT2 <==

    Computing T2 amplitudes ...          Done. Timing      0.003 s
    Computing T1 amplitudes ...          Done. Timing      0.003 s

  ==> First-Order Excitation Amplitudes Summary <==

    Active Indices:    1    2 
    Largest T1 amplitudes for spin case A:
       i       a                  i       a                  i       a               
    --------------------------------------------------------------------------------
    [  2       4    ] 0.105818 [  2       3    ] 0.094633 [  0       1    ]-0.041380 
    [  1       4    ] 0.020397 [  1       3    ]-0.007301 [  0       2    ] 0.007270 
    [  2       5    ]-0.005646 [  1       5    ]-0.003120 [  6       7    ]-0.002618 
    [  8       9    ]-0.002618 [  0       5    ] 0.001438 [  0       4    ]-0.000094 
    [  0       3    ]-0.000026 
    --------------------------------------------------------------------------------
    Norm of T1A vector: (nonzero elements: 13)                    0.149815236177811.
    --------------------------------------------------------------------------------
    Largest T1 amplitudes for spin case B:
       _       _                  _       _                  _       _               
       i       a                  i       a                  i       a               
    --------------------------------------------------------------------------------
    [  2       4    ] 0.105818 [  2       3    ] 0.094633 [  0       1    ]-0.041380 
    [  1       4    ] 0.020397 [  1       3    ]-0.007301 [  0       2    ] 0.007270 
    [  2       5    ]-0.005646 [  1       5    ]-0.003120 [  6       7    ]-0.002618 
    [  8       9    ]-0.002618 [  0       5    ] 0.001438 [  0       4    ]-0.000094 
    [  0       3    ]-0.000026 
    --------------------------------------------------------------------------------
    Norm of T1B vector: (nonzero elements: 13)                    0.149815236177835.
    --------------------------------------------------------------------------------
    Largest T2 amplitudes for spin case AA:
       i   j   a   b              i   j   a   b              i   j   a   b           
    --------------------------------------------------------------------------------
    [  1   8   1   9]-0.046280 [  1   6   1   7]-0.046280 [  2   8   1   9]-0.045834 
    [  2   6   1   7]-0.045834 [  2   8   2   9]-0.036675 [  2   6   2   7]-0.036675 
    [  0   1   1   2]-0.034513 [  1   8   2   9]-0.030706 [  1   6   2   7]-0.030706 
    [  1   2   1   3] 0.024385 [  6   8   7   9]-0.024099 [  0   1   1   5]-0.021016 
    [  2   6   4   7] 0.019711 [  2   8   4   9] 0.019711 [  1   2   1   4] 0.019700 
    --------------------------------------------------------------------------------
    Norm of T2AA vector: (nonzero elements: 240)                  0.282555550852714.
    --------------------------------------------------------------------------------
    Largest T2 amplitudes for spin case AB:
           _       _                  _       _                  _       _           
       i   j   a   b              i   j   a   b              i   j   a   b           
    --------------------------------------------------------------------------------
    [  2   2   1   4] 0.075163 [  2   2   2   3] 0.074563 [  0   0   1   1]-0.060754 
    [  2   2   3   3]-0.052152 [  1   2   1   3] 0.050801 [  2   8   1   9]-0.050464 
    [  2   6   1   7]-0.050464 [  1   2   1   4] 0.049630 [  1   8   1   9]-0.048152 
    [  1   6   1   7]-0.048152 [  1   2   2   4] 0.046363 [  2   8   2   9]-0.040554 
    [  2   6   2   7]-0.040554 [  8   8   9   9]-0.036345 [  6   6   7   7]-0.036345 
    --------------------------------------------------------------------------------
    Norm of T2AB vector: (nonzero elements: 405)                  0.349761088760538.
    --------------------------------------------------------------------------------
    Largest T2 amplitudes for spin case BB:
       _   _   _   _              _   _   _   _              _   _   _   _           
       i   j   a   b              i   j   a   b              i   j   a   b           
    --------------------------------------------------------------------------------
    [  1   8   1   9]-0.046280 [  1   6   1   7]-0.046280 [  2   8   1   9]-0.045834 
    [  2   6   1   7]-0.045834 [  2   8   2   9]-0.036675 [  2   6   2   7]-0.036675 
    [  0   1   1   2]-0.034513 [  1   8   2   9]-0.030706 [  1   6   2   7]-0.030706 
    [  1   2   1   3] 0.024385 [  6   8   7   9]-0.024099 [  0   1   1   5]-0.021016 
    [  2   6   4   7] 0.019711 [  2   8   4   9] 0.019711 [  1   2   1   4] 0.019700 
    --------------------------------------------------------------------------------
    Norm of T2BB vector: (nonzero elements: 240)                  0.282555550852714.
    --------------------------------------------------------------------------------

  ==> Possible Intruders <==

    T1 amplitudes larger than 0.1000 for spin case A:
        Amplitude         Value                  Denominator              
    ----------------------------------------------------------------------
    [  2       4    ]    0.10581772 (  0.087723 -   2.314280 =  -2.226557)
    ----------------------------------------------------------------------
    T1 amplitudes larger than 0.1000 for spin case B:
        Amplitude         Value                  Denominator              
    ----------------------------------------------------------------------
    [  2       4    ]    0.10581772 (  0.087723 -   2.314280 =  -2.226557)
    ----------------------------------------------------------------------
    T2 amplitudes larger than 0.1000 for spin case AA: NULL
    T2 amplitudes larger than 0.1000 for spin case AB: NULL
    T2 amplitudes larger than 0.1000 for spin case BB: NULL

  ==> Second-Order Perturbation DSRG-MRPT2 <==

    Reference:
      J. Chem. Theory Comput. 2015, 11, 2097-2108.

    Checking if orbitals are semi-canonicalized ...     OK.

  ==> DSRG-MRPT2 Energy Summary <==

    E0 (reference)                 =    -99.406065222747031
    <[F, A1]>                      =     -0.009013327785830
    <[F, A2]>                      =      0.008218875101132
    <[V, A1]>                      =      0.009228566380061
    <[V, A2]>                      =     -0.101165611232708
    DSRG-MRPT2 correlation energy  =     -0.092731497537345
    DSRG-MRPT2 total energy        =    -99.498796720284375

  ==> De-Normal-Order the DSRG Transformed Hamiltonian <==

    Computing the scalar term   ...      Done. Timing      0.014 s
    Computing the one-body term ...      Done. Timing      0.007 s
    Updating integrals          ...      Done. Timing      0.006 s

  ==> Scalar of the DSRG Hamiltonian (WRT True Vacuum) <==

    Scalar0                        =    -26.855324434864855
    Scalar1                        =      6.518527115311832
    Scalar2                        =     19.095000062644257
    Total Scalar W/O Frozen-Core   =     -1.241797256908765
    Total Scalar W/  Frozen-Core   =    -77.060332793868284

  ==> Test De-Normal-Ordered Hamiltonian <==

    One-Body Energy (after)        =    -44.475721849364831
    Two-Body Energy (after)        =     18.862194671408730
    Total Energy (after)           =    -99.498796720284389
    Total Energy (before)          =    -99.498796720284375
 Frozen Orbitals takes 0.00000300 s

  ==> String Lists <==

  Number of alpha electrons     = 1
  Number of beta electrons      = 1
  Number of alpha strings       = 2
  Number of beta strings        = 2
  Timing for strings        =      0.000 s
  Timing for NN strings     =      0.000 s
  Timing for VO strings     =      0.000 s
  Timing for OO strings     =      0.000 s
  Timing for Knowles-Handy  =      0.000 s
  Timing for VVOO strings   =      0.000 s
  Timing for VOVO strings   =      0.000 s
  Timing for 1-hole strings =      0.000 s
  Timing for 2-hole strings =      0.000 s
  Timing for 3-hole strings =      0.000 s
  Total timing              =      0.000 s

  ==> FCI Solver <==

    Number of determinants                           4
    Symmetry                                         0
    Multiplicity                                     1
    Number of roots                                  0
    Target root                                      0
    Trial vectors per root                          10

  Allocating memory for the Hamiltonian algorithm. Size: 2 x 2 x 2.   Memory: 0.000000 GB

  ==> FCI Initial Guess <==

  ---------------------------------------------
    Root            Energy     <S^2>   Spin
  ---------------------------------------------
      0      -99.498797953279  0.000  singlet
      1      -99.368128183817  2.000  triplet
      2      -99.147249195859  0.000  singlet
      3      -98.797161675987  0.000  singlet
  ---------------------------------------------
  Timing for initial guess  =      0.000 s

  Projecting out root 1
  ==> Diagonalizing Hamiltonian <==

  ----------------------------------------
    Iter.      Avg. Energy       Delta_E
  ----------------------------------------
      1      -99.498797953279  -9.950e+01
      2      -99.498797953279  -2.842e-14
  ----------------------------------------
  The Davidson-Liu algorithm converged in 3 iterations.

  ==> Root No. 0 <==

    20      0.96418281
    02     -0.26006611

    Total Energy:       -99.498797953278768

  ==> RDMs for Root No. 0 <==
    Timing for 1-RDM: 0.000 s
    Timing for 2-RDM: 0.000 s
    Timing for 3-RDM: 0.000 s

  ==> NATURAL ORBITALS <==

        1A1     1.863575      2A1     0.136425  



  ==> Density Cumulant Summary <==

    2-body               AA           AB           BB
    -------------------------------------------------
    max            0.063559     0.062874     0.063559
    norm           0.127119     0.378521     0.127119
    -------------------------------------------------
    3-body              AAA          AAB          ABB          BBB
    --------------------------------------------------------------
    max            0.000000     0.054789     0.054789     0.000000
    norm           0.000000     0.155248     0.155248     0.000000
    --------------------------------------------------------------
  Warning: I am forcing Fb = Fa to avoid spin symmetry breaking.
  If this is not desired, go to mrdsrg.cc around line 220.

  ==> Semi-canonicalize Orbitals <==

    Checking if orbitals are semi-canonicalized ...
    Warning! Orbitals are not semi-canonicalized!
    Off-Diagonal norms of the core, active, virtual blocks of Fock matrix
                  core          active         virtual
    ---------------------------------------------------
    Fa    0.0000000000    0.0001676803    0.0001582926
    Fb    0.0000000000    0.0001676803    0.0001582926
    ---------------------------------------------------

    Timing for block-diagonalizing Fock matrix:        0.000
    Timing for transforming one-electron integral:     0.068
 Frozen Orbitals takes 0.00000200 s
    Timing for transforming two-electron integral:     2.874

  ==> String Lists <==

  Number of alpha electrons     = 1
  Number of beta electrons      = 1
  Number of alpha strings       = 2
  Number of beta strings        = 2
  Timing for strings        =      0.000 s
  Timing for NN strings     =      0.000 s
  Timing for VO strings     =      0.000 s
  Timing for OO strings     =      0.000 s
  Timing for Knowles-Handy  =      0.000 s
  Timing for VVOO strings   =      0.000 s
  Timing for VOVO strings   =      0.000 s
  Timing for 1-hole strings =      0.000 s
  Timing for 2-hole strings =      0.000 s
  Timing for 3-hole strings =      0.000 s
  Total timing              =      0.000 s

  ==> FCI Solver <==

    Number of determinants                           4
    Symmetry                                         0
    Multiplicity                                     1
    Number of roots                                  0
    Target root                                      0
    Trial vectors per root                          10

  Allocating memory for the Hamiltonian algorithm. Size: 2 x 2 x 2.   Memory: 0.000000 GB

  ==> FCI Initial Guess <==

  ---------------------------------------------
    Root            Energy     <S^2>   Spin
  ---------------------------------------------
      0      -99.498797953279  0.000  singlet
      1      -99.368128183817  2.000  triplet
      2      -99.147249195859  0.000  singlet
      3      -98.797161675987  0.000  singlet
  ---------------------------------------------
  Timing for initial guess  =      0.000 s

  Projecting out root 1
  ==> Diagonalizing Hamiltonian <==

  ----------------------------------------
    Iter.      Avg. Energy       Delta_E
  ----------------------------------------
      1      -99.498797953279  -9.950e+01
      2      -99.498797953279  +0.000e+00
  ----------------------------------------
  The Davidson-Liu algorithm converged in 3 iterations.

  ==> Root No. 0 <==

    20      0.96419719
    02     -0.26008049

    Total Energy:       -99.498797953278853

  ==> RDMs for Root No. 0 <==
    Timing for 1-RDM: 0.000 s
    Timing for 2-RDM: 0.000 s
    Timing for 3-RDM: 0.000 s

  ==> NATURAL ORBITALS <==

        1A1     1.863575      2A1     0.136425  



  ==> Density Cumulant Summary <==

    2-body               AA           AB           BB
    -------------------------------------------------
    max            0.063559     0.062883     0.063559
    norm           0.127119     0.378521     0.127119
    -------------------------------------------------
    3-body              AAA          AAB          ABB          BBB
    --------------------------------------------------------------
    max            0.000000     0.054790     0.054790     0.000000
    norm           0.000000     0.155248     0.155248     0.000000
    --------------------------------------------------------------
  Warning: I am forcing Fb = Fa to avoid spin symmetry breaking.
  If this is not desired, go to mrdsrg.cc around line 220.

  ==> Build Initial Amplitude from DSRG-MRPT2 <==

    Computing T2 amplitudes ...          Done. Timing      0.003 s
    Computing T1 amplitudes ...          Done. Timing      0.003 s

  ==> First-Order Excitation Amplitudes Summary <==

    Active Indices:    1    2 
    Largest T1 amplitudes for spin case A:
       i       a                  i       a                  i       a               
    --------------------------------------------------------------------------------
    [  2       4    ]-0.105903 [  2       3    ]-0.094590 [  0       1    ] 0.041423 
    [  1       4    ]-0.020395 [  1       3    ] 0.007294 [  0       2    ]-0.007281 
    [  2       5    ] 0.005665 [  1       5    ] 0.003120 [  6       7    ]-0.002696 
    [  8       9    ]-0.002696 [  0       5    ] 0.001477 [  0       4    ]-0.000097 
    [  0       3    ]-0.000024 
    --------------------------------------------------------------------------------
    Norm of T1A vector: (nonzero elements: 13)                    0.149864617201516.
    --------------------------------------------------------------------------------
    Largest T1 amplitudes for spin case B:
       _       _                  _       _                  _       _               
       i       a                  i       a                  i       a               
    --------------------------------------------------------------------------------
    [  2       4    ]-0.105903 [  2       3    ]-0.094590 [  0       1    ] 0.041423 
    [  1       4    ]-0.020395 [  1       3    ] 0.007294 [  0       2    ]-0.007281 
    [  2       5    ] 0.005665 [  1       5    ] 0.003120 [  6       7    ]-0.002696 
    [  8       9    ]-0.002696 [  0       5    ] 0.001477 [  0       4    ]-0.000097 
    [  0       3    ]-0.000024 
    --------------------------------------------------------------------------------
    Norm of T1B vector: (nonzero elements: 13)                    0.149864617201335.
    --------------------------------------------------------------------------------
    Largest T2 amplitudes for spin case AA:
       i   j   a   b              i   j   a   b              i   j   a   b           
    --------------------------------------------------------------------------------
    [  1   8   1   9]-0.046266 [  1   6   1   7]-0.046266 [  2   8   1   9]-0.045844 
    [  2   6   1   7]-0.045844 [  2   8   2   9]-0.036690 [  2   6   2   7]-0.036690 
    [  0   1   1   2] 0.034518 [  1   8   2   9]-0.030704 [  1   6   2   7]-0.030704 
    [  1   2   1   3]-0.024380 [  6   8   7   9]-0.024099 [  0   1   1   5]-0.021009 
    [  2   6   4   7]-0.019714 [  2   8   4   9]-0.019714 [  1   2   1   4]-0.019697 
    --------------------------------------------------------------------------------
    Norm of T2AA vector: (nonzero elements: 240)                  0.282563175975250.
    --------------------------------------------------------------------------------
    Largest T2 amplitudes for spin case AB:
           _       _                  _       _                  _       _           
       i   j   a   b              i   j   a   b              i   j   a   b           
    --------------------------------------------------------------------------------
    [  2   2   1   4]-0.075181 [  2   2   2   3]-0.074530 [  0   0   1   1]-0.060769 
    [  2   2   3   3]-0.052163 [  1   2   1   3]-0.050801 [  2   8   1   9]-0.050475 
    [  2   6   1   7]-0.050475 [  1   2   1   4]-0.049614 [  1   8   1   9]-0.048137 
    [  1   6   1   7]-0.048137 [  1   2   2   4]-0.046361 [  2   8   2   9]-0.040570 
    [  2   6   2   7]-0.040570 [  8   8   9   9]-0.036345 [  6   6   7   7]-0.036345 
    --------------------------------------------------------------------------------
    Norm of T2AB vector: (nonzero elements: 405)                  0.349759636719822.
    --------------------------------------------------------------------------------
    Largest T2 amplitudes for spin case BB:
       _   _   _   _              _   _   _   _              _   _   _   _           
       i   j   a   b              i   j   a   b              i   j   a   b           
    --------------------------------------------------------------------------------
    [  1   8   1   9]-0.046266 [  1   6   1   7]-0.046266 [  2   8   1   9]-0.045844 
    [  2   6   1   7]-0.045844 [  2   8   2   9]-0.036690 [  2   6   2   7]-0.036690 
    [  0   1   1   2] 0.034518 [  1   8   2   9]-0.030704 [  1   6   2   7]-0.030704 
    [  1   2   1   3]-0.024380 [  6   8   7   9]-0.024099 [  0   1   1   5]-0.021009 
    [  2   6   4   7]-0.019714 [  2   8   4   9]-0.019714 [  1   2   1   4]-0.019697 
    --------------------------------------------------------------------------------
    Norm of T2BB vector: (nonzero elements: 240)                  0.282563175975250.
    --------------------------------------------------------------------------------

  ==> Possible Intruders <==

    T1 amplitudes larger than 0.1000 for spin case A:
        Amplitude         Value                  Denominator              
    ----------------------------------------------------------------------
    [  2       4    ]   -0.10590310 (  0.087991 -   2.314744 =  -2.226753)
    ----------------------------------------------------------------------
    T1 amplitudes larger than 0.1000 for spin case B:
        Amplitude         Value                  Denominator              
    ----------------------------------------------------------------------
    [  2       4    ]   -0.10590310 (  0.087991 -   2.314744 =  -2.226753)
    ----------------------------------------------------------------------
    T2 amplitudes larger than 0.1000 for spin case AA: NULL
    T2 amplitudes larger than 0.1000 for spin case AB: NULL
    T2 amplitudes larger than 0.1000 for spin case BB: NULL

  ==> Second-Order Perturbation DSRG-MRPT2 <==

    Reference:
      J. Chem. Theory Comput. 2015, 11, 2097-2108.

    Checking if orbitals are semi-canonicalized ...     OK.

  ==> DSRG-MRPT2 Energy Summary <==

    E0 (reference)                 =    -99.406065222747031
    <[F, A1]>                      =     -0.008963777405620
    <[F, A2]>                      =      0.008182925379028
    <[V, A1]>                      =      0.009186530423791
    <[V, A2]>                      =     -0.101260809303699
    DSRG-MRPT2 correlation energy  =     -0.092855130906500
    DSRG-MRPT2 total energy        =    -99.498920353653531

  ==> De-Normal-Order the DSRG Transformed Hamiltonian <==

    Computing the scalar term   ...      Done. Timing      0.013 s
    Computing the one-body term ...      Done. Timing      0.008 s
    Updating integrals          ...      Done. Timing      0.006 s

  ==> Scalar of the DSRG Hamiltonian (WRT True Vacuum) <==

    Scalar0                        =    -26.855448068234011
    Scalar1                        =      6.517557795387174
    Scalar2                        =     19.095654482080217
    Total Scalar W/O Frozen-Core   =     -1.242235790766621
    Total Scalar W/  Frozen-Core   =    -77.060771327726144

  ==> Test De-Normal-Ordered Hamiltonian <==

    One-Body Energy (after)        =    -44.477682000296674
    Two-Body Energy (after)        =     18.864469722829284
    Total Energy (after)           =    -99.498920353653546
    Total Energy (before)          =    -99.498920353653531
 Frozen Orbitals takes 0.00000300 s

  ==> String Lists <==

  Number of alpha electrons     = 1
  Number of beta electrons      = 1
  Number of alpha strings       = 2
  Number of beta strings        = 2
  Timing for strings        =      0.000 s
  Timing for NN strings     =      0.000 s
  Timing for VO strings     =      0.000 s
  Timing for OO strings     =      0.000 s
  Timing for Knowles-Handy  =      0.000 s
  Timing for VVOO strings   =      0.000 s
  Timing for VOVO strings   =      0.000 s
  Timing for 1-hole strings =      0.000 s
  Timing for 2-hole strings =      0.000 s
  Timing for 3-hole strings =      0.000 s
  Total timing              =      0.000 s

  ==> FCI Solver <==

    Number of determinants                           4
    Symmetry                                         0
    Multiplicity                                     1
    Number of roots                                  0
    Target root                                      0
    Trial vectors per root                          10

  Allocating memory for the Hamiltonian algorithm. Size: 2 x 2 x 2.   Memory: 0.000000 GB

  ==> FCI Initial Guess <==

  ---------------------------------------------
    Root            Energy     <S^2>   Spin
  ---------------------------------------------
      0      -99.498920354435  0.000  singlet
      1      -99.368234395510  2.000  triplet
      2      -99.147360075207  0.000  singlet
      3      -98.797271112423  0.000  singlet
  ---------------------------------------------
  Timing for initial guess  =      0.000 s

  Projecting out root 1
  ==> Diagonalizing Hamiltonian <==

  ----------------------------------------
    Iter.      Avg. Energy       Delta_E
  ----------------------------------------
      1      -99.498920354435  -9.950e+01
      2      -99.498920354435  -1.421e-14
  ----------------------------------------
  The Davidson-Liu algorithm converged in 3 iterations.

  ==> Root No. 0 <==

    20      0.96420750
    02     -0.26004737

    Total Energy:       -99.498920354435370

  ==> RDMs for Root No. 0 <==
    Timing for 1-RDM: 0.000 s
    Timing for 2-RDM: 0.000 s
    Timing for 3-RDM: 0.000 s

  ==> NATURAL ORBITALS <==

        1A1     1.863611      2A1     0.136389  



  ==> Density Cumulant Summary <==

    2-body               AA           AB           BB
    -------------------------------------------------
    max            0.063544     0.062869     0.063544
    norm           0.127088     0.378470     0.127088
    -------------------------------------------------
    3-body              AAA          AAB          ABB          BBB
    --------------------------------------------------------------
    max            0.000000    -0.054779     0.054779     0.000000
    norm           0.000000     0.155216     0.155216     0.000000
    --------------------------------------------------------------
  Warning: I am forcing Fb = Fa to avoid spin symmetry breaking.
  If this is not desired, go to mrdsrg.cc around line 220.

  ==> Semi-canonicalize Orbitals <==

    Checking if orbitals are semi-canonicalized ...
    Warning! Orbitals are not semi-canonicalized!
    Off-Diagonal norms of the core, active, virtual blocks of Fock matrix
                  core          active         virtual
    ---------------------------------------------------
    Fa    0.0000000000    0.0000043417    0.0000042798
    Fb    0.0000000000    0.0000043417    0.0000042798
    ---------------------------------------------------

    Timing for block-diagonalizing Fock matrix:        0.000
    Timing for transforming one-electron integral:     0.068
 Frozen Orbitals takes 0.00000200 s
    Timing for transforming two-electron integral:     2.852

  ==> String Lists <==

  Number of alpha electrons     = 1
  Number of beta electrons      = 1
  Number of alpha strings       = 2
  Number of beta strings        = 2
  Timing for strings        =      0.000 s
  Timing for NN strings     =      0.000 s
  Timing for VO strings     =      0.000 s
  Timing for OO strings     =      0.000 s
  Timing for Knowles-Handy  =      0.000 s
  Timing for VVOO strings   =      0.000 s
  Timing for VOVO strings   =      0.000 s
  Timing for 1-hole strings =      0.000 s
  Timing for 2-hole strings =      0.000 s
  Timing for 3-hole strings =      0.000 s
  Total timing              =      0.000 s

  ==> FCI Solver <==

    Number of determinants                           4
    Symmetry                                         0
    Multiplicity                                     1
    Number of roots                                  0
    Target root                                      0
    Trial vectors per root                          10

  Allocating memory for the Hamiltonian algorithm. Size: 2 x 2 x 2.   Memory: 0.000000 GB

  ==> FCI Initial Guess <==

  ---------------------------------------------
    Root            Energy     <S^2>   Spin
  ---------------------------------------------
      0      -99.498920354435  0.000  singlet
      1      -99.368234395510  2.000  triplet
      2      -99.147360075207  0.000  singlet
      3      -98.797271112423  0.000  singlet
  ---------------------------------------------
  Timing for initial guess  =      0.000 s

  Projecting out root 1
  ==> Diagonalizing Hamiltonian <==

  ----------------------------------------
    Iter.      Avg. Energy       Delta_E
  ----------------------------------------
      1      -99.498920354435  -9.950e+01
      2      -99.498920354435  +0.000e+00
  ----------------------------------------
  The Davidson-Liu algorithm converged in 3 iterations.

  ==> Root No. 0 <==

    20      0.96420788
    02     -0.26004774

    Total Energy:       -99.498920354435242

  ==> RDMs for Root No. 0 <==
    Timing for 1-RDM: 0.000 s
    Timing for 2-RDM: 0.000 s
    Timing for 3-RDM: 0.000 s

  ==> NATURAL ORBITALS <==

        1A1     1.863611      2A1     0.136389  



  ==> Density Cumulant Summary <==

    2-body               AA           AB           BB
    -------------------------------------------------
    max            0.063544     0.062869     0.063544
    norm           0.127088     0.378470     0.127088
    -------------------------------------------------
    3-body              AAA          AAB          ABB          BBB
    --------------------------------------------------------------
    max            0.000000     0.054779     0.054779     0.000000
    norm           0.000000     0.155216     0.155216     0.000000
    --------------------------------------------------------------
  Warning: I am forcing Fb = Fa to avoid spin symmetry breaking.
  If this is not desired, go to mrdsrg.cc around line 220.

  ==> Build Initial Amplitude from DSRG-MRPT2 <==

    Computing T2 amplitudes ...          Done. Timing      0.003 s
    Computing T1 amplitudes ...          Done. Timing      0.003 s

  ==> First-Order Excitation Amplitudes Summary <==

    Active Indices:    1    2 
    Largest T1 amplitudes for spin case A:
       i       a                  i       a                  i       a               
    --------------------------------------------------------------------------------
    [  2       4    ] 0.105905 [  2       3    ] 0.094589 [  0       1    ]-0.041424 
    [  1       4    ] 0.020395 [  1       3    ]-0.007294 [  0       2    ] 0.007282 
    [  2       5    ]-0.005666 [  1       5    ]-0.003120 [  6       7    ]-0.002698 
    [  8       9    ]-0.002698 [  0       5    ] 0.001478 [  0       4    ]-0.000097 
    [  0       3    ]-0.000024 
    --------------------------------------------------------------------------------
    Norm of T1A vector: (nonzero elements: 13)                    0.149865912677851.
    --------------------------------------------------------------------------------
    Largest T1 amplitudes for spin case B:
       _       _                  _       _                  _       _               
       i       a                  i       a                  i       a               
    --------------------------------------------------------------------------------
    [  2       4    ] 0.105905 [  2       3    ] 0.094589 [  0       1    ]-0.041424 
    [  1       4    ] 0.020395 [  1       3    ]-0.007294 [  0       2    ] 0.007282 
    [  2       5    ]-0.005666 [  1       5    ]-0.003120 [  6       7    ]-0.002698 
    [  8       9    ]-0.002698 [  0       5    ] 0.001478 [  0       4    ]-0.000097 
    [  0       3    ]-0.000024 
    --------------------------------------------------------------------------------
    Norm of T1B vector: (nonzero elements: 13)                    0.149865912679205.
    --------------------------------------------------------------------------------
    Largest T2 amplitudes for spin case AA:
       i   j   a   b              i   j   a   b              i   j   a   b           
    --------------------------------------------------------------------------------
    [  1   8   1   9]-0.046265 [  1   6   1   7]-0.046265 [  2   8   1   9]-0.045845 
    [  2   6   1   7]-0.045845 [  2   8   2   9]-0.036691 [  2   6   2   7]-0.036691 
    [  0   1   1   2]-0.034519 [  1   8   2   9]-0.030704 [  1   6   2   7]-0.030704 
    [  1   2   1   3] 0.024379 [  6   8   7   9]-0.024099 [  0   1   1   5]-0.021009 
    [  2   6   4   7] 0.019714 [  2   8   4   9] 0.019714 [  1   2   1   4] 0.019697 
    --------------------------------------------------------------------------------
    Norm of T2AA vector: (nonzero elements: 240)                  0.282563365256648.
    --------------------------------------------------------------------------------
    Largest T2 amplitudes for spin case AB:
           _       _                  _       _                  _       _           
       i   j   a   b              i   j   a   b              i   j   a   b           
    --------------------------------------------------------------------------------
    [  2   2   1   4] 0.075181 [  2   2   2   3] 0.074529 [  0   0   1   1]-0.060770 
    [  2   2   3   3]-0.052163 [  1   2   1   3] 0.050801 [  2   8   1   9]-0.050475 
    [  2   6   1   7]-0.050475 [  1   2   1   4] 0.049614 [  1   8   1   9]-0.048137 
    [  1   6   1   7]-0.048137 [  1   2   2   4] 0.046361 [  2   8   2   9]-0.040571 
    [  2   6   2   7]-0.040571 [  8   8   9   9]-0.036345 [  6   6   7   7]-0.036345 
    --------------------------------------------------------------------------------
    Norm of T2AB vector: (nonzero elements: 405)                  0.349759586580371.
    --------------------------------------------------------------------------------
    Largest T2 amplitudes for spin case BB:
       _   _   _   _              _   _   _   _              _   _   _   _           
       i   j   a   b              i   j   a   b              i   j   a   b           
    --------------------------------------------------------------------------------
    [  1   8   1   9]-0.046265 [  1   6   1   7]-0.046265 [  2   8   1   9]-0.045845 
    [  2   6   1   7]-0.045845 [  2   8   2   9]-0.036691 [  2   6   2   7]-0.036691 
    [  0   1   1   2]-0.034519 [  1   8   2   9]-0.030704 [  1   6   2   7]-0.030704 
    [  1   2   1   3] 0.024379 [  6   8   7   9]-0.024099 [  0   1   1   5]-0.021009 
    [  2   6   4   7] 0.019714 [  2   8   4   9] 0.019714 [  1   2   1   4] 0.019697 
    --------------------------------------------------------------------------------
    Norm of T2BB vector: (nonzero elements: 240)                  0.282563365256648.
    --------------------------------------------------------------------------------

  ==> Possible Intruders <==

    T1 amplitudes larger than 0.1000 for spin case A:
        Amplitude         Value                  Denominator              
    ----------------------------------------------------------------------
    [  2       4    ]    0.10590537 (  0.087998 -   2.314757 =  -2.226758)
    ----------------------------------------------------------------------
    T1 amplitudes larger than 0.1000 for spin case B:
        Amplitude         Value                  Denominator              
    ----------------------------------------------------------------------
    [  2       4    ]    0.10590537 (  0.087998 -   2.314757 =  -2.226758)
    ----------------------------------------------------------------------
    T2 amplitudes larger than 0.1000 for spin case AA: NULL
    T2 amplitudes larger than 0.1000 for spin case AB: NULL
    T2 amplitudes larger than 0.1000 for spin case BB: NULL

  ==> Second-Order Perturbation DSRG-MRPT2 <==

    Reference:
      J. Chem. Theory Comput. 2015, 11, 2097-2108.

    Checking if orbitals are semi-canonicalized ...     OK.

  ==> DSRG-MRPT2 Energy Summary <==

    E0 (reference)                 =    -99.406065222747031
    <[F, A1]>                      =     -0.008962603032320
    <[F, A2]>                      =      0.008182063028169
    <[V, A1]>                      =      0.009185511767816
    <[V, A2]>                      =     -0.101263258183452
    DSRG-MRPT2 correlation energy  =     -0.092858286419788
    DSRG-MRPT2 total energy        =    -99.498923509166815

  ==> De-Normal-Order the DSRG Transformed Hamiltonian <==

    Computing the scalar term   ...      Done. Timing      0.013 s
    Computing the one-body term ...      Done. Timing      0.008 s
    Updating integrals          ...      Done. Timing      0.008 s

  ==> Scalar of the DSRG Hamiltonian (WRT True Vacuum) <==

    Scalar0                        =    -26.855451223747295
    Scalar1                        =      6.517528670753216
    Scalar2                        =     19.095672703864196
    Total Scalar W/O Frozen-Core   =     -1.242249849129884
    Total Scalar W/  Frozen-Core   =    -77.060785386089407

  ==> Test De-Normal-Ordered Hamiltonian <==

    One-Body Energy (after)        =    -44.477729756572224
    Two-Body Energy (after)        =     18.864528381954820
    Total Energy (after)           =    -99.498923509166815
    Total Energy (before)          =    -99.498923509166815
 Frozen Orbitals takes 0.00000300 s

  ==> String Lists <==

  Number of alpha electrons     = 1
  Number of beta electrons      = 1
  Number of alpha strings       = 2
[...]
    [  1   2   1   3]-0.024379 [  6   8   7   9]-0.024099 [  0   1   1   5]-0.021009 
    [  2   6   4   7]-0.019714 [  2   8   4   9]-0.019714 [  1   2   1   4]-0.019697 
    --------------------------------------------------------------------------------
    Norm of T2AA vector: (nonzero elements: 240)                  0.282563370119894.
    --------------------------------------------------------------------------------
    Largest T2 amplitudes for spin case AB:
           _       _                  _       _                  _       _           
       i   j   a   b              i   j   a   b              i   j   a   b           
    --------------------------------------------------------------------------------
    [  2   2   1   4]-0.075181 [  2   2   2   3]-0.074529 [  0   0   1   1]-0.060770 
    [  2   2   3   3]-0.052163 [  1   2   1   3]-0.050801 [  2   8   1   9]-0.050475 
    [  2   6   1   7]-0.050475 [  1   2   1   4]-0.049614 [  1   8   1   9]-0.048137 
    [  1   6   1   7]-0.048137 [  1   2   2   4]-0.046361 [  2   8   2   9]-0.040571 
    [  2   6   2   7]-0.040571 [  8   8   9   9]-0.036345 [  6   6   7   7]-0.036345 
    --------------------------------------------------------------------------------
    Norm of T2AB vector: (nonzero elements: 405)                  0.349759585466097.
    --------------------------------------------------------------------------------
    Largest T2 amplitudes for spin case BB:
       _   _   _   _              _   _   _   _              _   _   _   _           
       i   j   a   b              i   j   a   b              i   j   a   b           
    --------------------------------------------------------------------------------
    [  1   8   1   9]-0.046265 [  1   6   1   7]-0.046265 [  2   8   1   9]-0.045845 
    [  2   6   1   7]-0.045845 [  2   8   2   9]-0.036691 [  2   6   2   7]-0.036691 
    [  0   1   1   2] 0.034519 [  1   8   2   9]-0.030704 [  1   6   2   7]-0.030704 
    [  1   2   1   3]-0.024379 [  6   8   7   9]-0.024099 [  0   1   1   5]-0.021009 
    [  2   6   4   7]-0.019714 [  2   8   4   9]-0.019714 [  1   2   1   4]-0.019697 
    --------------------------------------------------------------------------------
    Norm of T2BB vector: (nonzero elements: 240)                  0.282563370119894.
    --------------------------------------------------------------------------------

  ==> Possible Intruders <==

    T1 amplitudes larger than 0.1000 for spin case A:
        Amplitude         Value                  Denominator              
    ----------------------------------------------------------------------
    [  2       4    ]   -0.10590543 (  0.087998 -   2.314757 =  -2.226759)
    ----------------------------------------------------------------------
    T1 amplitudes larger than 0.1000 for spin case B:
        Amplitude         Value                  Denominator              
    ----------------------------------------------------------------------
    [  2       4    ]   -0.10590543 (  0.087998 -   2.314757 =  -2.226759)
    ----------------------------------------------------------------------
    T2 amplitudes larger than 0.1000 for spin case AA: NULL
    T2 amplitudes larger than 0.1000 for spin case AB: NULL
    T2 amplitudes larger than 0.1000 for spin case BB: NULL

  ==> Second-Order Perturbation DSRG-MRPT2 <==

    Reference:
      J. Chem. Theory Comput. 2015, 11, 2097-2108.

    Checking if orbitals are semi-canonicalized ...     OK.

  ==> DSRG-MRPT2 Energy Summary <==

    E0 (reference)                 =    -99.406065222747031
    <[F, A1]>                      =     -0.008962572203602
    <[F, A2]>                      =      0.008182040436426
    <[V, A1]>                      =      0.009185485219648
    <[V, A2]>                      =     -0.101263320148221
    DSRG-MRPT2 correlation energy  =     -0.092858366695747
    DSRG-MRPT2 total energy        =    -99.498923589442782

  ==> De-Normal-Order the DSRG Transformed Hamiltonian <==

    Computing the scalar term   ...      Done. Timing      0.013 s
    Computing the one-body term ...      Done. Timing      0.007 s
    Updating integrals          ...      Done. Timing      0.007 s

  ==> Scalar of the DSRG Hamiltonian (WRT True Vacuum) <==

    Scalar0                        =    -26.855451304023262
    Scalar1                        =      6.517527985459622
    Scalar2                        =     19.095673147021746
    Total Scalar W/O Frozen-Core   =     -1.242250171541894
    Total Scalar W/  Frozen-Core   =    -77.060785708501413

  ==> Test De-Normal-Ordered Hamiltonian <==

    One-Body Energy (after)        =    -44.477730994831518
    Two-Body Energy (after)        =     18.864529862350157
    Total Energy (after)           =    -99.498923589442782
    Total Energy (before)          =    -99.498923589442782
 Frozen Orbitals takes 0.00000200 s

  ==> String Lists <==

  Number of alpha electrons     = 1
  Number of beta electrons      = 1
  Number of alpha strings       = 2
  Number of beta strings        = 2
  Timing for strings        =      0.000 s
  Timing for NN strings     =      0.000 s
  Timing for VO strings     =      0.000 s
  Timing for OO strings     =      0.000 s
  Timing for Knowles-Handy  =      0.000 s
  Timing for VVOO strings   =      0.000 s
  Timing for VOVO strings   =      0.000 s
  Timing for 1-hole strings =      0.000 s
  Timing for 2-hole strings =      0.000 s
  Timing for 3-hole strings =      0.000 s
  Total timing              =      0.000 s

  ==> FCI Solver <==

    Number of determinants                           4
    Symmetry                                         0
    Multiplicity                                     1
    Number of roots                                  0
    Target root                                      0
    Trial vectors per root                          10

  Allocating memory for the Hamiltonian algorithm. Size: 2 x 2 x 2.   Memory: 0.000000 GB

  ==> FCI Initial Guess <==

  ---------------------------------------------
    Root            Energy     <S^2>   Spin
  ---------------------------------------------
      0      -99.498923589502  0.000  singlet
      1      -99.368237199920  2.000  triplet
      2      -99.147363004305  0.000  singlet
      3      -98.797274044160  0.000  singlet
  ---------------------------------------------
  Timing for initial guess  =      0.000 s

  Projecting out root 1
  ==> Diagonalizing Hamiltonian <==

  ----------------------------------------
    Iter.      Avg. Energy       Delta_E
  ----------------------------------------
      1      -99.498923589502  -9.950e+01
      2      -99.498923589502  +1.421e-14
  ----------------------------------------
  The Davidson-Liu algorithm converged in 3 iterations.

  ==> Root No. 0 <==

    20      0.96420816
    02     -0.26004688

    Total Energy:       -99.498923589501885

  ==> RDMs for Root No. 0 <==
    Timing for 1-RDM: 0.000 s
    Timing for 2-RDM: 0.000 s
    Timing for 3-RDM: 0.000 s

  ==> NATURAL ORBITALS <==

        1A1     1.863612      2A1     0.136388  



  ==> Density Cumulant Summary <==

    2-body               AA           AB           BB
    -------------------------------------------------
    max            0.063544     0.062868     0.063544
    norm           0.127087     0.378468     0.127087
    -------------------------------------------------
    3-body              AAA          AAB          ABB          BBB
    --------------------------------------------------------------
    max            0.000000     0.054779     0.054779     0.000000
    norm           0.000000     0.155216     0.155216     0.000000
    --------------------------------------------------------------
  Warning: I am forcing Fb = Fa to avoid spin symmetry breaking.
  If this is not desired, go to mrdsrg.cc around line 220.

  ==> Semi-canonicalize Orbitals <==

    Checking if orbitals are semi-canonicalized ...     OK.

  ==> Build Initial Amplitude from DSRG-MRPT2 <==

    Computing T2 amplitudes ...          Done. Timing      0.003 s
    Computing T1 amplitudes ...          Done. Timing      0.003 s

  ==> First-Order Excitation Amplitudes Summary <==

    Active Indices:    1    2 
    Largest T1 amplitudes for spin case A:
       i       a                  i       a                  i       a               
    --------------------------------------------------------------------------------
    [  2       4    ]-0.105905 [  2       3    ]-0.094589 [  0       1    ] 0.041424 
    [  1       4    ]-0.020395 [  1       3    ] 0.007294 [  0       2    ]-0.007282 
    [  2       5    ] 0.005666 [  1       5    ] 0.003120 [  6       7    ]-0.002698 
    [  8       9    ]-0.002698 [  0       5    ] 0.001478 [  0       4    ]-0.000097 
    [  0       3    ]-0.000024 
    --------------------------------------------------------------------------------
    Norm of T1A vector: (nonzero elements: 13)                    0.149865945879017.
    --------------------------------------------------------------------------------
    Largest T1 amplitudes for spin case B:
       _       _                  _       _                  _       _               
       i       a                  i       a                  i       a               
    --------------------------------------------------------------------------------
    [  2       4    ]-0.105905 [  2       3    ]-0.094589 [  0       1    ] 0.041424 
    [  1       4    ]-0.020395 [  1       3    ] 0.007294 [  0       2    ]-0.007282 
    [  2       5    ] 0.005666 [  1       5    ] 0.003120 [  6       7    ]-0.002698 
    [  8       9    ]-0.002698 [  0       5    ] 0.001478 [  0       4    ]-0.000097 
    [  0       3    ]-0.000024 
    --------------------------------------------------------------------------------
    Norm of T1B vector: (nonzero elements: 13)                    0.149865945955238.
    --------------------------------------------------------------------------------
    Largest T2 amplitudes for spin case AA:
       i   j   a   b              i   j   a   b              i   j   a   b           
    --------------------------------------------------------------------------------
    [  1   8   1   9]-0.046265 [  1   6   1   7]-0.046265 [  2   8   1   9]-0.045845 
    [  2   6   1   7]-0.045845 [  2   8   2   9]-0.036691 [  2   6   2   7]-0.036691 
    [  0   1   1   2] 0.034519 [  1   8   2   9]-0.030704 [  1   6   2   7]-0.030704 
    [  1   2   1   3]-0.024379 [  6   8   7   9]-0.024099 [  0   1   1   5]-0.021009 
    [  2   6   4   7]-0.019714 [  2   8   4   9]-0.019714 [  1   2   1   4]-0.019697 
    --------------------------------------------------------------------------------
    Norm of T2AA vector: (nonzero elements: 240)                  0.282563370246075.
    --------------------------------------------------------------------------------
    Largest T2 amplitudes for spin case AB:
           _       _                  _       _                  _       _           
       i   j   a   b              i   j   a   b              i   j   a   b           
    --------------------------------------------------------------------------------
    [  2   2   1   4]-0.075181 [  2   2   2   3]-0.074529 [  0   0   1   1]-0.060770 
    [  2   2   3   3]-0.052163 [  1   2   1   3]-0.050801 [  2   8   1   9]-0.050475 
    [  2   6   1   7]-0.050475 [  1   2   1   4]-0.049614 [  1   8   1   9]-0.048137 
    [  1   6   1   7]-0.048137 [  1   2   2   4]-0.046361 [  2   8   2   9]-0.040571 
    [  2   6   2   7]-0.040571 [  8   8   9   9]-0.036345 [  6   6   7   7]-0.036345 
    --------------------------------------------------------------------------------
    Norm of T2AB vector: (nonzero elements: 405)                  0.349759585432004.
    --------------------------------------------------------------------------------
    Largest T2 amplitudes for spin case BB:
       _   _   _   _              _   _   _   _              _   _   _   _           
       i   j   a   b              i   j   a   b              i   j   a   b           
    --------------------------------------------------------------------------------
    [  1   8   1   9]-0.046265 [  1   6   1   7]-0.046265 [  2   8   1   9]-0.045845 
    [  2   6   1   7]-0.045845 [  2   8   2   9]-0.036691 [  2   6   2   7]-0.036691 
    [  0   1   1   2] 0.034519 [  1   8   2   9]-0.030704 [  1   6   2   7]-0.030704 
    [  1   2   1   3]-0.024379 [  6   8   7   9]-0.024099 [  0   1   1   5]-0.021009 
    [  2   6   4   7]-0.019714 [  2   8   4   9]-0.019714 [  1   2   1   4]-0.019697 
    --------------------------------------------------------------------------------
    Norm of T2BB vector: (nonzero elements: 240)                  0.282563370246075.
    --------------------------------------------------------------------------------

  ==> Possible Intruders <==

    T1 amplitudes larger than 0.1000 for spin case A:
        Amplitude         Value                  Denominator              
    ----------------------------------------------------------------------
    [  2       4    ]   -0.10590543 (  0.087998 -   2.314757 =  -2.226759)
    ----------------------------------------------------------------------
    T1 amplitudes larger than 0.1000 for spin case B:
        Amplitude         Value                  Denominator              
    ----------------------------------------------------------------------
    [  2       4    ]   -0.10590543 (  0.087998 -   2.314757 =  -2.226759)
    ----------------------------------------------------------------------
    T2 amplitudes larger than 0.1000 for spin case AA: NULL
    T2 amplitudes larger than 0.1000 for spin case AB: NULL
    T2 amplitudes larger than 0.1000 for spin case BB: NULL

  ==> Second-Order Perturbation DSRG-MRPT2 <==

    Reference:
      J. Chem. Theory Comput. 2015, 11, 2097-2108.

    Checking if orbitals are semi-canonicalized ...     OK.

  ==> DSRG-MRPT2 Energy Summary <==

    E0 (reference)                 =    -99.406065222747031
    <[F, A1]>                      =     -0.008962571403374
    <[F, A2]>                      =      0.008182039853730
    <[V, A1]>                      =      0.009185484544218
    <[V, A2]>                      =     -0.101263321688506
    DSRG-MRPT2 correlation energy  =     -0.092858368693933
    DSRG-MRPT2 total energy        =    -99.498923591440970

  ==> De-Normal-Order the DSRG Transformed Hamiltonian <==

    Computing the scalar term   ...      Done. Timing      0.013 s
    Computing the one-body term ...      Done. Timing      0.007 s
    Updating integrals          ...      Done. Timing      0.006 s

  ==> Scalar of the DSRG Hamiltonian (WRT True Vacuum) <==

    Scalar0                        =    -26.855451306021450
    Scalar1                        =      6.517527969654263
    Scalar2                        =     19.095673159592646
    Total Scalar W/O Frozen-Core   =     -1.242250176774540
    Total Scalar W/  Frozen-Core   =    -77.060785713734049

  ==> Test De-Normal-Ordered Hamiltonian <==

    One-Body Energy (after)        =    -44.477731030111585
    Two-Body Energy (after)        =     18.864529900864671
    Total Energy (after)           =    -99.498923591440970
    Total Energy (before)          =    -99.498923591440970
 Frozen Orbitals takes 0.00000400 s

  ==> String Lists <==

  Number of alpha electrons     = 1
  Number of beta electrons      = 1
  Number of alpha strings       = 2
  Number of beta strings        = 2
  Timing for strings        =      0.000 s
  Timing for NN strings     =      0.000 s
  Timing for VO strings     =      0.000 s
  Timing for OO strings     =      0.000 s
  Timing for Knowles-Handy  =      0.000 s
  Timing for VVOO strings   =      0.000 s
  Timing for VOVO strings   =      0.000 s
  Timing for 1-hole strings =      0.000 s
  Timing for 2-hole strings =      0.000 s
  Timing for 3-hole strings =      0.000 s
  Total timing              =      0.000 s

  ==> FCI Solver <==

    Number of determinants                           4
    Symmetry                                         0
    Multiplicity                                     1
    Number of roots                                  0
    Target root                                      0
    Trial vectors per root                          10

  Allocating memory for the Hamiltonian algorithm. Size: 2 x 2 x 2.   Memory: 0.000000 GB

  ==> FCI Initial Guess <==

  ---------------------------------------------
    Root            Energy     <S^2>   Spin
  ---------------------------------------------
      0      -99.498923590998  0.000  singlet
      1      -99.368237200716  2.000  triplet
      2      -99.147363007176  0.000  singlet
      3      -98.797274042592  0.000  singlet
  ---------------------------------------------
  Timing for initial guess  =      0.000 s

  Projecting out root 1
  ==> Diagonalizing Hamiltonian <==

  ----------------------------------------
    Iter.      Avg. Energy       Delta_E
  ----------------------------------------
      1      -99.498923590998  -9.950e+01
      2      -99.498923590998  +1.421e-14
  ----------------------------------------
  The Davidson-Liu algorithm converged in 3 iterations.

  ==> Root No. 0 <==

    20      0.96420816
    02     -0.26004688

    Total Energy:       -99.498923590997535

  ==> RDMs for Root No. 0 <==
    Timing for 1-RDM: 0.000 s
    Timing for 2-RDM: 0.000 s
    Timing for 3-RDM: 0.000 s

  ==> NATURAL ORBITALS <==

        1A1     1.863612      2A1     0.136388  



  ==> Density Cumulant Summary <==

    2-body               AA           AB           BB
    -------------------------------------------------
    max            0.063544     0.062868     0.063544
    norm           0.127087     0.378468     0.127087
    -------------------------------------------------
    3-body              AAA          AAB          ABB          BBB
    --------------------------------------------------------------
    max            0.000000     0.054779     0.054779     0.000000
    norm           0.000000     0.155216     0.155216     0.000000
    --------------------------------------------------------------
  Warning: I am forcing Fb = Fa to avoid spin symmetry breaking.
  If this is not desired, go to mrdsrg.cc around line 220.

  ==> Semi-canonicalize Orbitals <==

    Checking if orbitals are semi-canonicalized ...     OK.

  ==> MRDSRG Reference Relaxation Summary <==

                  Fixed Ref. (a.u.)               Relaxed Ref. (a.u.)      
           -------------------------------  -------------------------------
    Iter.      Total Energy        Delta        Total Energy        Delta  
    -----------------------------------------------------------------------
        0      -99.494994197871 -9.949e+01      -99.496756047235 -9.950e+01
        1      -99.498796720284 -3.803e-03      -99.498797953279 -2.042e-03
        2      -99.498920353654 -1.236e-04      -99.498920354435 -1.224e-04
        3      -99.498923509167 -3.156e-06      -99.498923509159 -3.155e-06
        4      -99.498923589443 -8.028e-08      -99.498923589502 -8.034e-08
        5      -99.498923591441 -1.998e-09      -99.498923590998 -1.496e-09
    -----------------------------------------------------------------------
    MRDSRG Total Energy            =     -99.498923591440970
    MRDSRG Total Energy (relaxed)  =     -99.498923590997535


  ==> Total Timings (s) for Computing Commutators <==

             [H1, T1]    [H1, T2]    [H2, T1]    [H2, T2]
    -----------------------------------------------------
    -> C0       0.010       0.021       0.046       0.669
    -> C1       0.052       0.285       0.203       2.914
    -> C2                   0.997       1.069       6.253
    -----------------------------------------------------


  Your calculation took 25.22513000 seconds

*** PSI4 exiting successfully. Buy a developer a beer!
