    -----------------------------------------------------------------------
          PSI4: An Open-Source Ab Initio Electronic Structure Package
                              PSI 4.0.0-beta5+ Driver

               Git: Rev {master} 30a48d815f3153a18ae7228905e0178f35826763

    J. M. Turney, A. C. Simmonett, R. M. Parrish, E. G. Hohenstein,
    F. A. Evangelista, J. T. Fermann, B. J. Mintz, L. A. Burns, J. J. Wilke,
    M. L. Abrams, N. J. Russ, M. L. Leininger, C. L. Janssen, E. T. Seidl,
    W. D. Allen, H. F. Schaefer, R. A. King, E. F. Valeev, C. D. Sherrill,
    and T. D. Crawford, WIREs Comput. Mol. Sci. 2, 556-565 (2012)
    (doi: 10.1002/wcms.93)

                         Additional Contributions by
    A. E. DePrince, M. Saitow, U. Bozkaya, A. Yu. Sokolov
    -----------------------------------------------------------------------

    Process ID:  23893
    PSI4DATADIR: /Users/francesco/Source/psi4-github-bin-c++11-debug/share/psi

    Using LocalCommunicator (Number of processes = 1)

    Memory level set to 256.000 MB

  ==> Input File <==

--------------------------------------------------------------------------
import libbtl
import libadaptive

refscf = -14.351880476202
refct  = -14.413735630340293 # From a spin-orbit pilot code

molecule {
0 1
Be
}

set {
  basis sto-3g
  reference rhf
  e_convergence 12
}

set libadaptive {
  job_type srg
  srg_mode ct 
  charge 0
  det_threshold 0.01
  maxiter 100
}

print energy('sr-lctsd')

compare_values(refscf, get_variable("SCF total energy"),10, "SCF energy") #TEST
compare_values(refct, get_variable("CURRENT ENERGY"),10, "SR-CTSD energy") #TEST


--------------------------------------------------------------------------
/Users/francesco/Source/libbtl/libbtl.so loaded.
/Users/francesco/Source/libadaptive/libadaptive.so loaded.

*** tstart() called on che-fevange-01i
*** at Sat Mar  8 20:59:57 2014


         ---------------------------------------------------------
                                   SCF
            by Justin Turney, Rob Parrish, and Andy Simmonett
                              RHF Reference
                        1 Threads,    256 MiB Core
         ---------------------------------------------------------

  ==> Geometry <==

    Molecular point group: d2h
    Geometry (in Angstrom), charge = 0, multiplicity = 1:

       Center              X                  Y                   Z       
    ------------   -----------------  -----------------  -----------------
          BE          0.000000000000     0.000000000000     0.000000000000

  Running in d2h symmetry.


	Rotational constants (cm^-1):
	A = **********    B = **********    C = **********  

	Rotational constants (MHz):
	A = **********    B = **********    C = **********  
  Nuclear repulsion =    0.000000000000000

  Charge       = 0
  Multiplicity = 1
  Electrons    = 4
  Nalpha       = 2
  Nbeta        = 2

  ==> Algorithm <==

  SCF Algorithm Type is PK.
  DIIS enabled.
  MOM disabled.
  Fractional occupation disabled.
  Guess Type is CORE.
  Energy threshold   = 1.00e-12
  Density threshold  = 1.00e-08
  Integral threshold = 0.00e+00

  ==> Primary Basis <==

  Basis Set: STO-3G
    Number of shells: 3
    Number of basis function: 5
    Number of Cartesian functions: 5
    Spherical Harmonics?: true
    Max angular momentum: 1

  ==> Pre-Iterations <==

   -------------------------------------------------------
    Irrep   Nso     Nmo     Nalpha   Nbeta   Ndocc  Nsocc
   -------------------------------------------------------
     Ag         2       2       0       0       0       0
     B1g        0       0       0       0       0       0
     B2g        0       0       0       0       0       0
     B3g        0       0       0       0       0       0
     Au         0       0       0       0       0       0
     B1u        1       1       0       0       0       0
     B2u        1       1       0       0       0       0
     B3u        1       1       0       0       0       0
   -------------------------------------------------------
    Total       5       5       2       2       2       0
   -------------------------------------------------------

  Starting with a DF guess...

 OEINTS: Wrapper to libmints.
   by Justin Turney

   Calculation information:
      Number of atoms:                   1
      Number of AO shells:               3
      Number of SO shells:               3
      Number of primitives:              9
      Number of atomic orbitals:         5
      Number of basis functions:         5

      Number of irreps:                  8
      Number of functions per irrep: [   2    0    0    0    0    1    1    1 ]

      Overlap, kinetic, potential, dipole, and quadrupole integrals
        stored in file 35.

  ==> Integral Setup <==

!!!!!!!!!!!!!!!!!!!!!!!!!!!!!!!!!!!!!!!!!!!!!!!!!

   Turning off DF and switching to PK method.
!!!!!!!!!!!!!!!!!!!!!!!!!!!!!!!!!!!!!!!!!!!!!!!!!
 MINTS: Wrapper to libmints.
   by Justin Turney

   Calculation information:
      Number of atoms:                   1
      Number of AO shells:               3
      Number of SO shells:               3
      Number of primitives:              9
      Number of atomic orbitals:         5
      Number of basis functions:         5

      Number of irreps:                  8
      Integral cutoff                 0.00e+00
      Number of functions per irrep: [   2    0    0    0    0    1    1    1 ]

      Overlap, kinetic, potential, dipole, and quadrupole integrals
        stored in file 35.

      Computing two-electron integrals...done
      Computed 33 non-zero two-electron integrals.
        Stored in file 33.

	Batch   1 pq = [       0,       6] index = [             0,21]
  ==> DiskJK: Disk-Based J/K Matrices <==

    J tasked:                  Yes
    K tasked:                  Yes
    wK tasked:                  No
    Memory (MB):               183
    Schwarz Cutoff:          1E-12

  Minimum eigenvalue in the overlap matrix is 7.4048273641E-01.
  Using Symmetric Orthogonalization.
  SCF Guess: Core (One-Electron) Hamiltonian.

  ==> Iterations <==

                        Total Energy        Delta E     RMS |[F,P]|

   @RHF iter   1:   -14.35188047620201   -1.43519e+01   1.22899e-16 
   @RHF iter   2:   -14.35188047620201   -3.55271e-15   1.22899e-16 DIIS

  ==> Post-Iterations <==

	Orbital Energies (a.u.)
	-----------------------

	Doubly Occupied:                                                      

	   1Ag    -4.483992     2Ag    -0.254038  

	Virtual:                                                              

	   1B2u    0.221086     1B3u    0.221086     1B1u    0.221086  

	Final Occupation by Irrep:
	         Ag   B1g   B2g   B3g    Au   B1u   B2u   B3u 
	DOCC [     2,    0,    0,    0,    0,    0,    0,    0 ]

  Energy converged.

  @RHF Final Energy:   -14.35188047620201

   => Energetics <=

    Nuclear Repulsion Energy =              0.0000000000000000
    One-Electron Energy =                 -19.2277013517437858
    Two-Electron Energy =                   4.8758208755417725
    DFT Exchange-Correlation Energy =       0.0000000000000000
    Empirical Dispersion Energy =           0.0000000000000000
    Total Energy =                        -14.3518804762020125



Properties will be evaluated at   0.000000,   0.000000,   0.000000 Bohr
  ==> Properties <==


Properties computed using the SCF density density matrix
  Nuclear Dipole Moment: (a.u.)
     X:     0.0000      Y:     0.0000      Z:     0.0000

  Electronic Dipole Moment: (a.u.)
     X:     0.0000      Y:     0.0000      Z:     0.0000

  Dipole Moment: (a.u.)
     X:     0.0000      Y:     0.0000      Z:     0.0000     Total:     0.0000

  Dipole Moment: (Debye)
     X:     0.0000      Y:     0.0000      Z:     0.0000     Total:     0.0000


  Saving occupied orbitals to File 180.

*** tstop() called on che-fevange-01i at Sat Mar  8 20:59:57 2014
Module time:
	user time   =       0.06 seconds =       0.00 minutes
	system time =       0.01 seconds =       0.00 minutes
	total time  =          0 seconds =       0.00 minutes
Total time:
	user time   =       0.06 seconds =       0.00 minutes
	system time =       0.01 seconds =       0.00 minutes
	total time  =          0 seconds =       0.00 minutes
Reading options from the LIBADAPTIVE block
Calling plugin libadaptive.so.
	Presorting SO-basis two-electron integrals.
	Sorting File: SO Ints (nn|nn) nbuckets = 1
	Transforming the one-electron integrals and constructing Fock matrices
	Starting first half-transformation.
	Sorting half-transformed integrals.
	First half integral transformation complete.
	Starting second half-transformation.
	Two-electron integral transformation complete.

  Frozen-core energy =       0.000000000000 a.u.
  The model space comprises all the determinants.
  Modifying the model and intermediate space thresholds.

  Determinant threshold        = 0.010 (Eh)
  Denominator threshold        = 0.020 (Eh)
  Model space threshold        = 0.010 (Eh)
  Intermediate space threshold = 0.010 (Eh)
  Coupling threshold           = 1.000 (muEh)
  String screening: Moller-Plesset denominators (MP)

                Molecular orbitals:
  ====================================================
     MO         alpha                  beta
           irrep    energy  occ   irrep    energy  occ
  ----------------------------------------------------
      0      0    -4.483992  1      0    -4.483992  1
      1      0    -0.254038  1      0    -0.254038  1
      2      5     0.221086  0      5     0.221086  0
      3      6     0.221086  0      6     0.221086  0
      4      7     0.221086  0      7     0.221086  0
  ----------------------------------------------------
  Occupation numbers of the refence determinant:| 2 0 0 0 0 0 0 0 > x | 2 0 0 0 0 0 0 0 >
  Energy of the alpha/beta HOMO:    -0.254038    -0.254038
  Energy of the alpha/beta LUMO:     0.221086     0.221086
  Orbital ranges:| 0/2 0/0 0/0 0/0 0/0 0/0 0/0 0/0 > x | 0/2 0/0 0/0 0/0 0/0 0/0 0/0 0/0 >
  The tentative reference determinant is:
  |11000|11000>
  and its energy: -14.351880476202 Eh

  Starting Explorer.



  Exploring the space of Slater determinants


  Cartographer initialized with range [-14.350000,-14.300000]
  The histogram bin width is 0.050000 Hartree

  The density of determinants will be sampled at 41-points
  +++ Screening the alpha strings +++

  Maximum excitation level = 2
  Excitation level  0. occupied: 1, virtual: 1, total: 1. Screening strings... done.
  Excitation level  1. occupied: 0
  Zero strings at excitation level 1, stopping here.
  Strings per excitation level and irrep:
        Ag       B1g       B2g       B3g        Au       B1u       B2u       B3u     Total
   0         1         0         0         0         0         0         0         0         1
 Sum         1         0         0         0         0         0         0         0
  Time required: 0.000165 s

  +++ Screening the beta strings +++

  Maximum excitation level = 2
  Excitation level  0. occupied: 1, virtual: 1, total: 1. Screening strings... done.
  Excitation level  1. occupied: 0
  Zero strings at excitation level 1, stopping here.
  Strings per excitation level and irrep:
        Ag       B1g       B2g       B3g        Au       B1u       B2u       B3u     Total
   0         1         0         0         0         0         0         0         0         1
 Sum         1         0         0         0         0         0         0         0
  Time required: 0.000114 s
  denominator_threshold_: 0.020000 s
   0              1              1
   1              0              0
   2              0              0
   3              0              0
   4              0              0

  Sorting the determinants according to their energy.

  0 determinants were deleted because their energy is above the determinat threshold.

  The new reference determinant is:
  |11000|11000>
  and its energy: -14.351880476202 Eh
  Occupation numbers of the minimum energy determinant:| 2 0 0 0 0 0 0 0 > x | 2 0 0 0 0 0 0 0 >

  The determinants visited fall in the range [-14.351880,-14.351880]

  Number of full ci determinants    = 100

  Number of determinants visited    = 1 (1.000000e-02)
  Number of determinants accepted   = 1 (1.000000e-02)
  Time spent on generating strings  = 0.000000 s
  Time spent on generating dets     = 0.000148 s
  Precompute algorithm time elapsed = 0.000598 s
  Cartographer is writing the density of determinants to the file: density_of_determinants.txt

  Cartographer is preparing a gnuplot file for the range [-14.600,-14.000]

  Diagonalizing the Hamiltonian in the model + intermediate space


  Building the Hamiltonian using determinants with excitation energy less than 0.010000 Eh
  This requires a total of 1 determinants
  Time spent building H             = 0.000039 s

  The model space of dimension 1 will be split into 1 (main) + 0 (intermediate) states
  Time spent smoothing H            = 0.000018 s
  Using the Davidson-Liu algorithm.
  Time spent diagonalizing H        = 0.000046 s
  Adaptive CI Energy Root   1 = -14.351880476202 Eh =   0.0000 eV (S^2 = 0.000000)
  The most important determinants (95% of the wave functions) for root 1:
   0   +1.000000    1.000000   -14.351880   0
  2-norm of the CI vector: 1.000000
  Occupation numbers
     1  0     0   1.000    1.000
     2  0     1   1.000    1.000
     3  5     0   0.000    0.000
     4  6     0   0.000    0.000
     5  7     0   0.000    0.000
  Total number of alpha/beta electrons: 2.000000/2.000000
  Explorer ran in 0.001804 s
  The energy of the reference is:     -14.351880476202 Eh
  Diagonal elements of the Fock matrix:
  SO            Epsilon         ON
   0       -4.483992106533   1.000000       -4.483992106533   1.000000
   1       -0.254037693797   1.000000       -0.254037693797   1.000000
   2        0.221085957259   0.000000        0.221085957259   0.000000
   3        0.221085957259   0.000000        0.221085957259   0.000000
   4        0.221085957259   0.000000        0.221085957259   0.000000

      --------------------------------------
          Similarity Renormalization Group
                Spin-integrated code

                Version 0.1.0

       written by Francesco A. Evangelista
      --------------------------------------


  emp2 =      -0.024358374639

  Using a unitary operator


  ######################################
  ### Computing the CCSD BCH energy  ###
  ######################################

  Computing the BCH expansion using the single-reference normal ordering formalism.
  -----------------------------------------------------------------
  nComm           C0                 |C1|                  |C2|
  -----------------------------------------------------------------
   0     -14.351880476202         6.374536e+00         2.570376e+00
   1       0.000000000000         0.000000e+00         0.000000e+00
  -----------------------------------------------------------------
  Updating the S amplitudes... done.
  Compute recursive single commutator...

  Computing the BCH expansion using the single-reference normal ordering formalism.
  -----------------------------------------------------------------
  nComm           C0                 |C1|                  |C2|
  -----------------------------------------------------------------
   0     -14.351880476202         6.374536e+00         2.570376e+00
   1      -0.048716749279         8.248269e-02         7.999041e-02
   2       0.010343725978         1.285379e-02         1.758629e-02
   3      -0.000272921655         4.276200e-04         4.457300e-04
   4       0.000029113159         3.456322e-05         4.787258e-05
   5      -0.000000458546         7.010195e-07         7.480058e-07
   6       0.000000032726         3.837751e-08         5.339983e-08
   7      -0.000000000367         5.560361e-10         5.981967e-10
   8       0.000000000020         2.300595e-11         3.207422e-11
   9      -0.000000000000         2.585249e-13         2.790726e-13
  ----------------------------------------------------------------- done.
  --------------------------------------------
  nExc           |S|                  |R|
  --------------------------------------------
    1        0.000000e+00         0.000000e+00
    2        1.121149e-01         1.121149e-01
  --------------------------------------------
  @CC    0       -14.390497734166155       -14.390497734166155
  NEXT CYCLE
  Updating the S amplitudes... done.
  Compute recursive single commutator...

  Computing the BCH expansion using the single-reference normal ordering formalism.
  -----------------------------------------------------------------
  nComm           C0                 |C1|                  |C2|
  -----------------------------------------------------------------
   0     -14.351880476202         6.374536e+00         2.570376e+00
   1      -0.077450457717         1.224463e-01         1.274046e-01
   2       0.025709495402         3.104119e-02         4.290864e-02
   3      -0.001111170420         1.681355e-03         1.816767e-03
   4       0.000184608668         2.176408e-04         3.028189e-04
   5      -0.000004781320         7.140107e-06         7.806485e-06
   6       0.000000529969         6.208346e-07         8.657338e-07
   7      -0.000000009795         1.456408e-08         1.598828e-08
   8       0.000000000815         9.527500e-10         1.329755e-09
   9      -0.000000000012         1.737271e-11         1.910362e-11
  10       0.000000000001         9.106208e-13         1.271495e-12
  11      -0.000000000000         1.357501e-14         1.493981e-14
  ----------------------------------------------------------------- done.
  --------------------------------------------
  nExc           |S|                  |R|
  --------------------------------------------
    1        0.000000e+00         0.000000e+00
    2        1.795398e-01         1.795398e-01
  --------------------------------------------
  @CC    1       -14.404552260610782        -0.014054526444626
  NEXT CYCLE
  Updating the S amplitudes... done.
  Compute recursive single commutator...

  Computing the BCH expansion using the single-reference normal ordering formalism.
  -----------------------------------------------------------------
  nComm           C0                 |C1|                  |C2|
  -----------------------------------------------------------------
   0     -14.351880476202         6.374536e+00         2.570376e+00
   1      -0.095291651817         1.474446e-01         1.568705e-01
   2       0.038786968468         4.635299e-02         6.427871e-02
   3      -0.002082050129         3.120546e-03         3.405458e-03
   4       0.000423885083         4.984595e-04         6.943845e-04
   5      -0.000013644647         2.025765e-05         2.228346e-05
   6       0.000001852442         2.168969e-06         3.026121e-06
   7      -0.000000042574         6.301171e-08         6.950721e-08
   8       0.000000004336         5.070660e-09         7.078772e-09
   9      -0.000000000077         1.145375e-10         1.264937e-10
  10       0.000000000006         7.380966e-12         1.030695e-11
  11      -0.000000000000         1.363518e-13         1.506737e-13
  ----------------------------------------------------------------- done.
  --------------------------------------------
  nExc           |S|                  |R|
  --------------------------------------------
    1        0.000000e+00         0.000000e+00
    2        2.216127e-01         2.216127e-01
  --------------------------------------------
  @CC    2       -14.410055155112582        -0.005502894501801
  NEXT CYCLE
  Updating the S amplitudes... done.
  Compute recursive single commutator...

  Computing the BCH expansion using the single-reference normal ordering formalism.
  -----------------------------------------------------------------
  nComm           C0                 |C1|                  |C2|
  -----------------------------------------------------------------
   0     -14.351880476202         6.374536e+00         2.570376e+00
   1      -0.106539881274         1.633817e-01         1.754527e-01
   2       0.048443209233         5.764068e-02         8.004108e-02
   3      -0.002918539583         4.357643e-03         4.774528e-03
   4       0.000663626431         7.795221e-04         1.086483e-03
   5      -0.000023981073         3.552407e-05         3.916889e-05
   6       0.000003635682         4.255919e-06         5.939127e-06
   7      -0.000000093821         1.386195e-07         1.531863e-07
   8       0.000000010669         1.247670e-08         1.741959e-08
   9      -0.000000000214         3.160030e-10         3.495460e-10
  10       0.000000000019         2.277155e-11         3.180011e-11
  11      -0.000000000000         4.717410e-13         5.220673e-13
  ----------------------------------------------------------------- done.
  --------------------------------------------
  nExc           |S|                  |R|
  --------------------------------------------
    1        0.000000e+00         0.000000e+00
    2        2.481698e-01         2.481698e-01
  --------------------------------------------
  @CC    3       -14.412252490132373        -0.002197335019790
  NEXT CYCLE
  Updating the S amplitudes... done.
  Compute recursive single commutator...

  Computing the BCH expansion using the single-reference normal ordering formalism.
  -----------------------------------------------------------------
  nComm           C0                 |C1|                  |C2|
  -----------------------------------------------------------------
   0     -14.351880476202         6.374536e+00         2.570376e+00
   1      -0.113668621206         1.735605e-01         1.872299e-01
   2       0.055129901281         6.545636e-02         9.095551e-02
   3      -0.003550197411         5.291216e-03         5.808449e-03
   4       0.000860996780         1.010811e-03         1.409207e-03
   5      -0.000033260041         4.921841e-05         5.432789e-05
   6       0.000005377802         6.294480e-06         8.784902e-06
   7      -0.000000148363         2.190355e-07         2.422528e-07
   8       0.000000017992         2.104120e-08         2.937861e-08
   9      -0.000000000386         5.693830e-10         6.302723e-10
  10       0.000000000037         4.378667e-11         6.114887e-11
  11      -0.000000000001         9.692155e-13         1.073323e-12
  12       0.000000000000         6.213366e-14         8.677996e-14
  ----------------------------------------------------------------- done.
  --------------------------------------------
  nExc           |S|                  |R|
  --------------------------------------------
    1        0.000000e+00         0.000000e+00
    2        2.650041e-01         2.650041e-01
  --------------------------------------------
  @CC    4       -14.413136409717534        -0.000883919585162
  NEXT CYCLE
  Updating the S amplitudes... done.
  Compute recursive single commutator...

  Computing the BCH expansion using the single-reference normal ordering formalism.
  -----------------------------------------------------------------
  nComm           C0                 |C1|                  |C2|
  -----------------------------------------------------------------
   0     -14.351880476202         6.374536e+00         2.570376e+00
   1      -0.118194733187         1.800524e-01         1.947073e-01
   2       0.059603682682         7.068603e-02         9.825851e-02
   3      -0.003995087087         5.948593e-03         6.536697e-03
   4       0.001007366408         1.182299e-03         1.648512e-03
   5      -0.000040505871         5.990850e-05         6.616579e-05
   6       0.000006809263         7.969405e-06         1.112318e-05
   7      -0.000000195545         2.885768e-07         3.193014e-07
   8       0.000000024655         2.883234e-08         4.025810e-08
   9      -0.000000000551         8.119028e-10         8.990556e-10
  10       0.000000000056         6.493530e-11         9.068454e-11
  11      -0.000000000001         1.495760e-12         1.656983e-12
  12       0.000000000000         9.972266e-14         1.392799e-13
  ----------------------------------------------------------------- done.
  --------------------------------------------
  nExc           |S|                  |R|
  --------------------------------------------
    1        0.000000e+00         0.000000e+00
    2        2.756923e-01         2.756923e-01
  --------------------------------------------
  @CC    5       -14.413493115380126        -0.000356705662591
  NEXT CYCLE
  Updating the S amplitudes... done.
  Compute recursive single commutator...

  Computing the BCH expansion using the single-reference normal ordering formalism.
  -----------------------------------------------------------------
  nComm           C0                 |C1|                  |C2|
  -----------------------------------------------------------------
   0     -14.351880476202         6.374536e+00         2.570376e+00
   1      -0.121070263254         1.841877e-01         1.994579e-01
   2       0.062538070146         7.411654e-02         1.030489e-01
   3      -0.004296183373         6.393450e-03         7.029581e-03
   4       0.001109603344         1.302068e-03         1.815653e-03
   5      -0.000045729340         6.761355e-05         7.469982e-05
   6       0.000007873985         9.215168e-06         1.286239e-05
   7      -0.000000231765         3.419515e-07         3.784490e-07
   8       0.000000029930         3.500185e-08         4.887330e-08
   9      -0.000000000685         1.010057e-09         1.118707e-09
  10       0.000000000071         8.275945e-11         1.155776e-10
  11      -0.000000000001         1.953604e-12         2.164576e-12
  12       0.000000000000         1.334306e-13         1.863595e-13
  ----------------------------------------------------------------- done.
  --------------------------------------------
  nExc           |S|                  |R|
  --------------------------------------------
    1        0.000000e+00         0.000000e+00
    2        2.824825e-01         2.824825e-01
  --------------------------------------------
  @CC    6       -14.413637307144191        -0.000144191764065
  NEXT CYCLE
  Updating the S amplitudes... done.
  Compute recursive single commutator...

  Computing the BCH expansion using the single-reference normal ordering formalism.
  -----------------------------------------------------------------
  nComm           C0                 |C1|                  |C2|
  -----------------------------------------------------------------
   0     -14.351880476202         6.374536e+00         2.570376e+00
   1      -0.122897564444         1.868197e-01         2.024766e-01
   2       0.064439952745         7.634012e-02         1.061539e-01
   3      -0.004495163708         6.687419e-03         7.355309e-03
   4       0.001178503401         1.382778e-03         1.928289e-03
   5      -0.000049319257         7.290846e-05         8.056506e-05
   6       0.000008620116         1.008815e-05         1.408117e-05
   7      -0.000000257649         3.800931e-07         4.207203e-07
   8       0.000000033774         3.949720e-08         5.515075e-08
   9      -0.000000000785         1.157288e-09         1.281927e-09
  10       0.000000000082         9.626208e-11         1.344353e-10
  11      -0.000000000002         2.307269e-12         2.556710e-12
  12       0.000000000000         1.599760e-13         2.234353e-13
  ----------------------------------------------------------------- done.
  --------------------------------------------
  nExc           |S|                  |R|
  --------------------------------------------
    1        0.000000e+00         0.000000e+00
    2        2.867973e-01         2.867973e-01
  --------------------------------------------
  @CC    7       -14.413695671929844        -0.000058364785653
  NEXT CYCLE
  Updating the S amplitudes... done.
  Compute recursive single commutator...

  Computing the BCH expansion using the single-reference normal ordering formalism.
  -----------------------------------------------------------------
  nComm           C0                 |C1|                  |C2|
  -----------------------------------------------------------------
   0     -14.351880476202         6.374536e+00         2.570376e+00
   1      -0.124058843191         1.884940e-01         2.043951e-01
   2       0.065663642147         7.777085e-02         1.081518e-01
   3      -0.004624756031         6.878869e-03         7.567453e-03
   4       0.001223930658         1.435989e-03         2.002552e-03
   5      -0.000051715407         7.644242e-05         8.447993e-05
   6       0.000009124251         1.067798e-05         1.490466e-05
   7      -0.000000275355         4.061818e-07         4.496354e-07
   8       0.000000036436         4.260978e-08         5.949728e-08
   9      -0.000000000855         1.260488e-09         1.396341e-09
  10       0.000000000091         1.058426e-10         1.478155e-10
  11      -0.000000000002         2.561299e-12         2.838387e-12
  12       0.000000000000         1.792760e-13         2.503915e-13
  ----------------------------------------------------------------- done.
  --------------------------------------------
  nExc           |S|                  |R|
  --------------------------------------------
    1        0.000000e+00         0.000000e+00
    2        2.895394e-01         2.895394e-01
  --------------------------------------------
  @CC    8       -14.413719333460426        -0.000023661530582
  NEXT CYCLE
  Updating the S amplitudes... done.
  Compute recursive single commutator...

  Computing the BCH expansion using the single-reference normal ordering formalism.
  -----------------------------------------------------------------
  nComm           C0                 |C1|                  |C2|
  -----------------------------------------------------------------
   0     -14.351880476202         6.374536e+00         2.570376e+00
   1      -0.124796871885         1.895587e-01         2.056144e-01
   2       0.066447397787         7.868724e-02         1.094314e-01
   3      -0.004708395932         7.002429e-03         7.704373e-03
   4       0.001253477138         1.470598e-03         2.050852e-03
   5      -0.000053285991         7.875872e-05         8.704599e-05
   6       0.000009457244         1.106758e-05         1.544860e-05
   7      -0.000000287142         4.235475e-07         4.688832e-07
   8       0.000000038222         4.469767e-08         6.241290e-08
   9      -0.000000000903         1.330251e-09         1.473687e-09
  10       0.000000000096         1.123690e-10         1.569303e-10
  11      -0.000000000002         2.735691e-12         3.031765e-12
  12       0.000000000000         1.926274e-13         2.690395e-13
  ----------------------------------------------------------------- done.
  --------------------------------------------
  nExc           |S|                  |R|
  --------------------------------------------
    1        0.000000e+00         0.000000e+00
    2        2.912820e-01         2.912820e-01
  --------------------------------------------
  @CC    9       -14.413728947569430        -0.000009614109004
  NEXT CYCLE
  Updating the S amplitudes... done.
  Compute recursive single commutator...

  Computing the BCH expansion using the single-reference normal ordering formalism.
  -----------------------------------------------------------------
  nComm           C0                 |C1|                  |C2|
  -----------------------------------------------------------------
   0     -14.351880476202         6.374536e+00         2.570376e+00
   1      -0.125265914413         1.902355e-01         2.063892e-01
   2       0.066947950075         7.927251e-02         1.102487e-01
   3      -0.004762072237         7.081724e-03         7.792242e-03
   4       0.001272531513         1.492916e-03         2.082000e-03
   5      -0.000054303814         8.025977e-05         8.870894e-05
   6       0.000009674094         1.132129e-05         1.580281e-05
   7      -0.000000294855         4.349116e-07         4.814793e-07
   8       0.000000039396         4.607065e-08         6.433021e-08
   9      -0.000000000934         1.376351e-09         1.524800e-09
  10       0.000000000100         1.167027e-10         1.629828e-10
  11      -0.000000000002         2.852063e-12         3.160809e-12
  12       0.000000000000         2.015802e-13         2.815438e-13
  ----------------------------------------------------------------- done.
  --------------------------------------------
  nExc           |S|                  |R|
  --------------------------------------------
    1        0.000000e+00         0.000000e+00
    2        2.923895e-01         2.923895e-01
  --------------------------------------------
  @CC   10       -14.413732867280633        -0.000003919711203
  NEXT CYCLE
  Updating the S amplitudes... done.
  Compute recursive single commutator...

  Computing the BCH expansion using the single-reference normal ordering formalism.
  -----------------------------------------------------------------
  nComm           C0                 |C1|                  |C2|
  -----------------------------------------------------------------
   0     -14.351880476202         6.374536e+00         2.570376e+00
   1      -0.125564006768         1.906658e-01         2.068817e-01
   2       0.067267056950         7.964562e-02         1.107697e-01
   3      -0.004796396333         7.132430e-03         7.848432e-03
   4       0.001284753829         1.507232e-03         2.101980e-03
   5      -0.000054958714         8.122558e-05         8.977894e-05
   6       0.000009814052         1.148503e-05         1.603143e-05
   7      -0.000000299848         4.422689e-07         4.896343e-07
   8       0.000000040158         4.696229e-08         6.557534e-08
   9      -0.000000000954         1.406383e-09         1.558097e-09
  10       0.000000000102         1.195346e-10         1.669379e-10
  11      -0.000000000002         2.928341e-12         3.245394e-12
  12       0.000000000000         2.074666e-13         2.897653e-13
  ----------------------------------------------------------------- done.
  --------------------------------------------
  nExc           |S|                  |R|
  --------------------------------------------
    1        0.000000e+00         0.000000e+00
    2        2.930934e-01         2.930934e-01
  --------------------------------------------
  @CC   11       -14.413734473730647        -0.000001606450015
  NEXT CYCLE
  Updating the S amplitudes... done.
  Compute recursive single commutator...

  Computing the BCH expansion using the single-reference normal ordering formalism.
  -----------------------------------------------------------------
  nComm           C0                 |C1|                  |C2|
  -----------------------------------------------------------------
   0     -14.351880476202         6.374536e+00         2.570376e+00
   1      -0.125753454112         1.909393e-01         2.071947e-01
   2       0.067470259152         7.988322e-02         1.111014e-01
   3      -0.004818295846         7.164782e-03         7.884282e-03
   4       0.001292567227         1.516384e-03         2.114753e-03
   5      -0.000055378195         8.184421e-05         9.046431e-05
   6       0.000009903875         1.159012e-05         1.617815e-05
   7      -0.000000303059         4.470000e-07         4.948783e-07
   8       0.000000040649         4.753677e-08         6.637758e-08
   9      -0.000000000967         1.425770e-09         1.579593e-09
  10       0.000000000104         1.213664e-10         1.694961e-10
  11      -0.000000000002         2.977777e-12         3.300215e-12
  12       0.000000000000         2.112890e-13         2.951041e-13
  ----------------------------------------------------------------- done.
  --------------------------------------------
  nExc           |S|                  |R|
  --------------------------------------------
    1        0.000000e+00         0.000000e+00
    2        2.935407e-01         2.935407e-01
  --------------------------------------------
  @CC   12       -14.413735137377056        -0.000000663646409
  NEXT CYCLE
  Updating the S amplitudes... done.
  Compute recursive single commutator...

  Computing the BCH expansion using the single-reference normal ordering formalism.
  -----------------------------------------------------------------
  nComm           C0                 |C1|                  |C2|
  -----------------------------------------------------------------
   0     -14.351880476202         6.374536e+00         2.570376e+00
   1      -0.125873853790         1.911132e-01         2.073936e-01
   2       0.067599561807         8.003441e-02         1.113125e-01
   3      -0.004832248232         7.185393e-03         7.907122e-03
   4       0.001297551411         1.522222e-03         2.122900e-03
   5      -0.000055646117         8.223932e-05         9.090205e-05
   6       0.000009961315         1.165733e-05         1.627198e-05
   7      -0.000000305115         4.500292e-07         4.982360e-07
   8       0.000000040964         4.790507e-08         6.689188e-08
   9      -0.000000000976         1.438215e-09         1.593391e-09
  10       0.000000000105         1.225436e-10         1.711402e-10
  11      -0.000000000002         3.009588e-12         3.335491e-12
  12       0.000000000000         2.137517e-13         2.985438e-13
  ----------------------------------------------------------------- done.
  --------------------------------------------
  nExc           |S|                  |R|
  --------------------------------------------
    1        0.000000e+00         0.000000e+00
    2        2.938250e-01         2.938250e-01
  --------------------------------------------
  @CC   13       -14.413735414832217        -0.000000277455161
  NEXT CYCLE
  Updating the S amplitudes... done.
  Compute recursive single commutator...

  Computing the BCH expansion using the single-reference normal ordering formalism.
  -----------------------------------------------------------------
  nComm           C0                 |C1|                  |C2|
  -----------------------------------------------------------------
   0     -14.351880476202         6.374536e+00         2.570376e+00
   1      -0.125950371411         1.912236e-01         2.075200e-01
   2       0.067681802700         8.013057e-02         1.114468e-01
   3      -0.004841129368         7.198512e-03         7.921661e-03
   4       0.001300726508         1.525941e-03         2.128091e-03
   5      -0.000055816927         8.249122e-05         9.118112e-05
   6       0.000009997965         1.170021e-05         1.633184e-05
   7      -0.000000306428         4.519635e-07         5.003801e-07
   8       0.000000041166         4.814042e-08         6.722054e-08
   9      -0.000000000981         1.446174e-09         1.602215e-09
  10       0.000000000105         1.232971e-10         1.721926e-10
  11      -0.000000000002         3.029965e-12         3.358088e-12
  12       0.000000000000         2.153305e-13         3.007488e-13
  ----------------------------------------------------------------- done.
  --------------------------------------------
  nExc           |S|                  |R|
  --------------------------------------------
    1        0.000000e+00         0.000000e+00
    2        2.940057e-01         2.940057e-01
  --------------------------------------------
  @CC   14       -14.413735532876213        -0.000000118043996
  NEXT CYCLE
  Updating the S amplitudes... done.
  Compute recursive single commutator...

  Computing the BCH expansion using the single-reference normal ordering formalism.
  -----------------------------------------------------------------
  nComm           C0                 |C1|                  |C2|
  -----------------------------------------------------------------
   0     -14.351880476202         6.374536e+00         2.570376e+00
   1      -0.125999000611         1.912939e-01         2.076003e-01
   2       0.067734095527         8.019171e-02         1.115322e-01
   3      -0.004846779240         7.206859e-03         7.930910e-03
   4       0.001302747408         1.528308e-03         2.131394e-03
   5      -0.000055925700         8.265163e-05         9.135884e-05
   6       0.000010021315         1.172753e-05         1.636998e-05
   7      -0.000000307265         4.531965e-07         5.017468e-07
   8       0.000000041294         4.829052e-08         6.743015e-08
   9      -0.000000000985         1.451252e-09         1.607846e-09
  10       0.000000000106         1.237781e-10         1.728644e-10
  11      -0.000000000002         3.042981e-12         3.372521e-12
  12       0.000000000000         2.163394e-13         3.021580e-13
  ----------------------------------------------------------------- done.
  --------------------------------------------
  nExc           |S|                  |R|
  --------------------------------------------
    1        0.000000e+00         0.000000e+00
    2        2.941205e-01         2.941205e-01
  --------------------------------------------
  @CC   15       -14.413735584354768        -0.000000051478555
  NEXT CYCLE
  Updating the S amplitudes... done.
  Compute recursive single commutator...

  Computing the BCH expansion using the single-reference normal ordering formalism.
  -----------------------------------------------------------------
  nComm           C0                 |C1|                  |C2|
  -----------------------------------------------------------------
   0     -14.351880476202         6.374536e+00         2.570376e+00
   1      -0.126029905875         1.913385e-01         2.076514e-01
   2       0.067767339762         8.023059e-02         1.115865e-01
   3      -0.004850372179         7.212166e-03         7.936792e-03
   4       0.001304032975         1.529814e-03         2.133496e-03
   5      -0.000055994916         8.275370e-05         9.147193e-05
   6       0.000010036178         1.174491e-05         1.639426e-05
   7      -0.000000307798         4.539816e-07         5.026171e-07
   8       0.000000041376         4.838613e-08         6.756366e-08
   9      -0.000000000987         1.454488e-09         1.611434e-09
  10       0.000000000106         1.240847e-10         1.732926e-10
  11      -0.000000000002         3.051279e-12         3.381723e-12
  12       0.000000000000         2.169829e-13         3.030567e-13
  ----------------------------------------------------------------- done.
  --------------------------------------------
  nExc           |S|                  |R|
  --------------------------------------------
    1        0.000000e+00         0.000000e+00
    2        2.941935e-01         2.941935e-01
  --------------------------------------------
  @CC   16       -14.413735607562421        -0.000000023207653
  NEXT CYCLE
  Updating the S amplitudes... done.
  Compute recursive single commutator...

  Computing the BCH expansion using the single-reference normal ordering formalism.
  -----------------------------------------------------------------
  nComm           C0                 |C1|                  |C2|
  -----------------------------------------------------------------
   0     -14.351880476202         6.374536e+00         2.570376e+00
   1      -0.126049547056         1.913668e-01         2.076838e-01
   2       0.067788471720         8.025530e-02         1.116210e-01
   3      -0.004852656517         7.215541e-03         7.940531e-03
   4       0.001304850485         1.530771e-03         2.134832e-03
   5      -0.000056038941         8.281863e-05         9.154386e-05
   6       0.000010045634         1.175598e-05         1.640971e-05
   7      -0.000000308137         4.544812e-07         5.031708e-07
   8       0.000000041428         4.844698e-08         6.764863e-08
   9      -0.000000000988         1.456547e-09         1.613717e-09
  10       0.000000000106         1.242799e-10         1.735652e-10
  11      -0.000000000002         3.056563e-12         3.387584e-12
  12       0.000000000000         2.173927e-13         3.036291e-13
  ----------------------------------------------------------------- done.
  --------------------------------------------
  nExc           |S|                  |R|
  --------------------------------------------
    1        0.000000e+00         0.000000e+00
    2        2.942398e-01         2.942398e-01
  --------------------------------------------
  @CC   17       -14.413735618471126        -0.000000010908705
  NEXT CYCLE
  Updating the S amplitudes... done.
  Compute recursive single commutator...

  Computing the BCH expansion using the single-reference normal ordering formalism.
  -----------------------------------------------------------------
  nComm           C0                 |C1|                  |C2|
  -----------------------------------------------------------------
   0     -14.351880476202         6.374536e+00         2.570376e+00
   1      -0.126062029585         1.913849e-01         2.077044e-01
   2       0.067801903414         8.027100e-02         1.116429e-01
   3      -0.004854108651         7.217686e-03         7.942909e-03
   4       0.001305370235         1.531380e-03         2.135682e-03
   5      -0.000056066934         8.285991e-05         9.158959e-05
   6       0.000010051647         1.176301e-05         1.641953e-05
   7      -0.000000308353         4.547989e-07         5.035230e-07
   8       0.000000041461         4.848568e-08         6.770268e-08
   9      -0.000000000989         1.457858e-09         1.615170e-09
  10       0.000000000106         1.244041e-10         1.737386e-10
  11      -0.000000000002         3.059926e-12         3.391313e-12
  12       0.000000000000         2.176536e-13         3.039934e-13
  ----------------------------------------------------------------- done.
  --------------------------------------------
  nExc           |S|                  |R|
  --------------------------------------------
    1        0.000000e+00         0.000000e+00
    2        2.942693e-01         2.942693e-01
  --------------------------------------------
  @CC   18       -14.413735623852785        -0.000000005381660
  NEXT CYCLE
  Updating the S amplitudes... done.
  Compute recursive single commutator...

  Computing the BCH expansion using the single-reference normal ordering formalism.
  -----------------------------------------------------------------
  nComm           C0                 |C1|                  |C2|
  -----------------------------------------------------------------
   0     -14.351880476202         6.374536e+00         2.570376e+00
   1      -0.126069962586         1.913963e-01         2.077176e-01
   2       0.067810440336         8.028098e-02         1.116569e-01
   3      -0.004855031673         7.219050e-03         7.944420e-03
   4       0.001305700633         1.531767e-03         2.136222e-03
   5      -0.000056084730         8.288615e-05         9.161867e-05
   6       0.000010055470         1.176749e-05         1.642578e-05
   7      -0.000000308490         4.550010e-07         5.037469e-07
   8       0.000000041482         4.851029e-08         6.773705e-08
   9      -0.000000000990         1.458691e-09         1.616094e-09
  10       0.000000000106         1.244831e-10         1.738490e-10
  11      -0.000000000002         3.062065e-12         3.393684e-12
  12       0.000000000000         2.178195e-13         3.042252e-13
  ----------------------------------------------------------------- done.
  --------------------------------------------
  nExc           |S|                  |R|
  --------------------------------------------
    1        0.000000e+00         0.000000e+00
    2        2.942880e-01         2.942880e-01
  --------------------------------------------
  @CC   19       -14.413735626646485        -0.000000002793699
  NEXT CYCLE
  Updating the S amplitudes... done.
  Compute recursive single commutator...

  Computing the BCH expansion using the single-reference normal ordering formalism.
  -----------------------------------------------------------------
  nComm           C0                 |C1|                  |C2|
  -----------------------------------------------------------------
   0     -14.351880476202         6.374536e+00         2.570376e+00
   1      -0.126075004232         1.914036e-01         2.077259e-01
   2       0.067815866075         8.028733e-02         1.116657e-01
   3      -0.004855618341         7.219916e-03         7.945380e-03
   4       0.001305910642         1.532013e-03         2.136565e-03
   5      -0.000056096043         8.290283e-05         9.163715e-05
   6       0.000010057900         1.177033e-05         1.642975e-05
   7      -0.000000308577         4.551294e-07         5.038893e-07
   8       0.000000041495         4.852594e-08         6.775890e-08
   9      -0.000000000990         1.459221e-09         1.616682e-09
  10       0.000000000107         1.245333e-10         1.739191e-10
  11      -0.000000000002         3.063425e-12         3.395192e-12
  12       0.000000000000         2.179250e-13         3.043725e-13
  ----------------------------------------------------------------- done.
  --------------------------------------------
  nExc           |S|                  |R|
  --------------------------------------------
    1        0.000000e+00         0.000000e+00
    2        2.942999e-01         2.942999e-01
  --------------------------------------------
  @CC   20       -14.413735628168929        -0.000000001522444
  NEXT CYCLE
  Updating the S amplitudes... done.
  Compute recursive single commutator...

  Computing the BCH expansion using the single-reference normal ordering formalism.
  -----------------------------------------------------------------
  nComm           C0                 |C1|                  |C2|
  -----------------------------------------------------------------
   0     -14.351880476202         6.374536e+00         2.570376e+00
   1      -0.126078208340         1.914082e-01         2.077312e-01
   2       0.067819314398         8.029136e-02         1.116713e-01
   3      -0.004855991210         7.220467e-03         7.945990e-03
   4       0.001306044122         1.532170e-03         2.136783e-03
   5      -0.000056103233         8.291344e-05         9.164890e-05
   6       0.000010059445         1.177214e-05         1.643227e-05
   7      -0.000000308633         4.552110e-07         5.039798e-07
   8       0.000000041504         4.853589e-08         6.777279e-08
   9      -0.000000000990         1.459558e-09         1.617055e-09
  10       0.000000000107         1.245652e-10         1.739637e-10
  11      -0.000000000002         3.064289e-12         3.396151e-12
  12       0.000000000000         2.179920e-13         3.044662e-13
  ----------------------------------------------------------------- done.
  --------------------------------------------
  nExc           |S|                  |R|
  --------------------------------------------
    1        0.000000e+00         0.000000e+00
    2        2.943075e-01         2.943075e-01
  --------------------------------------------
  @CC   21       -14.413735629034274        -0.000000000865345
  NEXT CYCLE
  Updating the S amplitudes... done.
  Compute recursive single commutator...

  Computing the BCH expansion using the single-reference normal ordering formalism.
  -----------------------------------------------------------------
  nComm           C0                 |C1|                  |C2|
  -----------------------------------------------------------------
   0     -14.351880476202         6.374536e+00         2.570376e+00
   1      -0.126080244641         1.914112e-01         2.077345e-01
   2       0.067821505951         8.029392e-02         1.116749e-01
   3      -0.004856228188         7.220817e-03         7.946378e-03
   4       0.001306128958         1.532269e-03         2.136922e-03
   5      -0.000056107803         8.292018e-05         9.165637e-05
   6       0.000010060427         1.177329e-05         1.643387e-05
   7      -0.000000308668         4.552629e-07         5.040373e-07
   8       0.000000041509         4.854221e-08         6.778162e-08
   9      -0.000000000990         1.459772e-09         1.617292e-09
  10       0.000000000107         1.245855e-10         1.739920e-10
  11      -0.000000000002         3.064839e-12         3.396761e-12
  12       0.000000000000         2.180347e-13         3.045257e-13
  ----------------------------------------------------------------- done.
  --------------------------------------------
  nExc           |S|                  |R|
  --------------------------------------------
    1        0.000000e+00         0.000000e+00
    2        2.943123e-01         2.943123e-01
  --------------------------------------------
  @CC   22       -14.413735629542950        -0.000000000508676
  NEXT CYCLE
  Updating the S amplitudes... done.
  Compute recursive single commutator...

  Computing the BCH expansion using the single-reference normal ordering formalism.
  -----------------------------------------------------------------
  nComm           C0                 |C1|                  |C2|
  -----------------------------------------------------------------
   0     -14.351880476202         6.374536e+00         2.570376e+00
   1      -0.126081538768         1.914130e-01         2.077367e-01
   2       0.067822898764         8.029555e-02         1.116772e-01
   3      -0.004856378799         7.221040e-03         7.946625e-03
   4       0.001306182875         1.532332e-03         2.137010e-03
   5      -0.000056110708         8.292446e-05         9.166111e-05
   6       0.000010061051         1.177402e-05         1.643489e-05
   7      -0.000000308690         4.552959e-07         5.040739e-07
   8       0.000000041513         4.854623e-08         6.778723e-08
   9      -0.000000000991         1.459908e-09         1.617443e-09
  10       0.000000000107         1.245984e-10         1.740100e-10
  11      -0.000000000002         3.065188e-12         3.397148e-12
  12       0.000000000000         2.180618e-13         3.045636e-13
  ----------------------------------------------------------------- done.
  --------------------------------------------
  nExc           |S|                  |R|
  --------------------------------------------
    1        0.000000e+00         0.000000e+00
    2        2.943154e-01         2.943154e-01
  --------------------------------------------
  @CC   23       -14.413735629849556        -0.000000000306606
  NEXT CYCLE
  Updating the S amplitudes... done.
  Compute recursive single commutator...

  Computing the BCH expansion using the single-reference normal ordering formalism.
  -----------------------------------------------------------------
  nComm           C0                 |C1|                  |C2|
  -----------------------------------------------------------------
   0     -14.351880476202         6.374536e+00         2.570376e+00
   1      -0.126082361222         1.914142e-01         2.077380e-01
   2       0.067823783942         8.029658e-02         1.116786e-01
   3      -0.004856474517         7.221181e-03         7.946782e-03
   4       0.001306217142         1.532372e-03         2.137066e-03
   5      -0.000056112554         8.292718e-05         9.166413e-05
   6       0.000010061448         1.177448e-05         1.643554e-05
   7      -0.000000308704         4.553169e-07         5.040971e-07
   8       0.000000041515         4.854878e-08         6.779080e-08
   9      -0.000000000991         1.459994e-09         1.617539e-09
  10       0.000000000107         1.246066e-10         1.740215e-10
  11      -0.000000000002         3.065410e-12         3.397394e-12
  12       0.000000000000         2.180790e-13         3.045877e-13
  ----------------------------------------------------------------- done.
  --------------------------------------------
  nExc           |S|                  |R|
  --------------------------------------------
    1        0.000000e+00         0.000000e+00
    2        2.943173e-01         2.943173e-01
  --------------------------------------------
  @CC   24       -14.413735630037680        -0.000000000188123
  NEXT CYCLE
  Updating the S amplitudes... done.
  Compute recursive single commutator...

  Computing the BCH expansion using the single-reference normal ordering formalism.
  -----------------------------------------------------------------
  nComm           C0                 |C1|                  |C2|
  -----------------------------------------------------------------
   0     -14.351880476202         6.374536e+00         2.570376e+00
   1      -0.126082883914         1.914150e-01         2.077389e-01
   2       0.067824346502         8.029724e-02         1.116796e-01
   3      -0.004856535350         7.221271e-03         7.946881e-03
   4       0.001306238920         1.532398e-03         2.137102e-03
   5      -0.000056113727         8.292891e-05         9.166605e-05
   6       0.000010061700         1.177477e-05         1.643595e-05
   7      -0.000000308713         4.553302e-07         5.041119e-07
   8       0.000000041516         4.855040e-08         6.779307e-08
   9      -0.000000000991         1.460049e-09         1.617600e-09
  10       0.000000000107         1.246119e-10         1.740288e-10
  11      -0.000000000002         3.065551e-12         3.397551e-12
  12       0.000000000000         2.180900e-13         3.046029e-13
  ----------------------------------------------------------------- done.
  --------------------------------------------
  nExc           |S|                  |R|
  --------------------------------------------
    1        0.000000e+00         0.000000e+00
    2        2.943186e-01         2.943186e-01
  --------------------------------------------
  @CC   25       -14.413735630154518        -0.000000000116838
  NEXT CYCLE
  Updating the S amplitudes... done.
  Compute recursive single commutator...

  Computing the BCH expansion using the single-reference normal ordering formalism.
  -----------------------------------------------------------------
  nComm           C0                 |C1|                  |C2|
  -----------------------------------------------------------------
   0     -14.351880476202         6.374536e+00         2.570376e+00
   1      -0.126083216100         1.914155e-01         2.077394e-01
   2       0.067824704025         8.029766e-02         1.116801e-01
   3      -0.004856574011         7.221328e-03         7.946944e-03
   4       0.001306252761         1.532414e-03         2.137125e-03
   5      -0.000056114473         8.293001e-05         9.166726e-05
   6       0.000010061860         1.177496e-05         1.643621e-05
   7      -0.000000308719         4.553386e-07         5.041212e-07
   8       0.000000041517         4.855144e-08         6.779451e-08
   9      -0.000000000991         1.460084e-09         1.617639e-09
  10       0.000000000107         1.246152e-10         1.740334e-10
  11      -0.000000000002         3.065641e-12         3.397650e-12
  12       0.000000000000         2.180969e-13         3.046127e-13
  ----------------------------------------------------------------- done.
  --------------------------------------------
  nExc           |S|                  |R|
  --------------------------------------------
    1        0.000000e+00         0.000000e+00
    2        2.943193e-01         2.943193e-01
  --------------------------------------------
  @CC   26       -14.413735630227670        -0.000000000073152
  NEXT CYCLE
  Updating the S amplitudes... done.
  Compute recursive single commutator...

  Computing the BCH expansion using the single-reference normal ordering formalism.
  -----------------------------------------------------------------
  nComm           C0                 |C1|                  |C2|
  -----------------------------------------------------------------
   0     -14.351880476202         6.374536e+00         2.570376e+00
   1      -0.126083427213         1.914158e-01         2.077398e-01
   2       0.067824931241         8.029793e-02         1.116805e-01
   3      -0.004856598581         7.221364e-03         7.946985e-03
   4       0.001306261557         1.532424e-03         2.137139e-03
   5      -0.000056114946         8.293071e-05         9.166804e-05
   6       0.000010061962         1.177508e-05         1.643638e-05
   7      -0.000000308723         4.553440e-07         5.041272e-07
   8       0.000000041518         4.855209e-08         6.779542e-08
   9      -0.000000000991         1.460106e-09         1.617664e-09
  10       0.000000000107         1.246173e-10         1.740363e-10
  11      -0.000000000002         3.065698e-12         3.397713e-12
  12       0.000000000000         2.181013e-13         3.046188e-13
  ----------------------------------------------------------------- done.
  --------------------------------------------
  nExc           |S|                  |R|
  --------------------------------------------
    1        0.000000e+00         0.000000e+00
    2        2.943198e-01         2.943198e-01
  --------------------------------------------
  @CC   27       -14.413735630273720        -0.000000000046050
  NEXT CYCLE
  Updating the S amplitudes... done.
  Compute recursive single commutator...

  Computing the BCH expansion using the single-reference normal ordering formalism.
  -----------------------------------------------------------------
  nComm           C0                 |C1|                  |C2|
  -----------------------------------------------------------------
   0     -14.351880476202         6.374536e+00         2.570376e+00
   1      -0.126083561382         1.914160e-01         2.077400e-01
   2       0.067825075644         8.029810e-02         1.116807e-01
   3      -0.004856614196         7.221387e-03         7.947010e-03
   4       0.001306267148         1.532431e-03         2.137148e-03
   5      -0.000056115248         8.293116e-05         9.166853e-05
   6       0.000010062027         1.177516e-05         1.643649e-05
   7      -0.000000308725         4.553474e-07         5.041310e-07
   8       0.000000041518         4.855251e-08         6.779600e-08
   9      -0.000000000991         1.460121e-09         1.617679e-09
  10       0.000000000107         1.246186e-10         1.740382e-10
  11      -0.000000000002         3.065734e-12         3.397754e-12
  12       0.000000000000         2.181042e-13         3.046228e-13
  ----------------------------------------------------------------- done.
  --------------------------------------------
  nExc           |S|                  |R|
  --------------------------------------------
    1        0.000000e+00         0.000000e+00
    2        2.943201e-01         2.943201e-01
  --------------------------------------------
  @CC   28       -14.413735630302806        -0.000000000029086
  NEXT CYCLE
  Updating the S amplitudes... done.
  Compute recursive single commutator...

  Computing the BCH expansion using the single-reference normal ordering formalism.
  -----------------------------------------------------------------
  nComm           C0                 |C1|                  |C2|
  -----------------------------------------------------------------
   0     -14.351880476202         6.374536e+00         2.570376e+00
   1      -0.126083646650         1.914161e-01         2.077402e-01
   2       0.067825167416         8.029820e-02         1.116809e-01
   3      -0.004856624120         7.221402e-03         7.947026e-03
   4       0.001306270700         1.532435e-03         2.137154e-03
   5      -0.000056115439         8.293144e-05         9.166884e-05
   6       0.000010062068         1.177520e-05         1.643655e-05
   7      -0.000000308727         4.553496e-07         5.041334e-07
   8       0.000000041518         4.855277e-08         6.779637e-08
   9      -0.000000000991         1.460130e-09         1.617689e-09
  10       0.000000000107         1.246195e-10         1.740394e-10
  11      -0.000000000002         3.065757e-12         3.397779e-12
  12       0.000000000000         2.181059e-13         3.046253e-13
  ----------------------------------------------------------------- done.
  --------------------------------------------
  nExc           |S|                  |R|
  --------------------------------------------
    1        0.000000e+00         0.000000e+00
    2        2.943204e-01         2.943204e-01
  --------------------------------------------
  @CC   29       -14.413735630321218        -0.000000000018412
  NEXT CYCLE
  Updating the S amplitudes... done.
  Compute recursive single commutator...

  Computing the BCH expansion using the single-reference normal ordering formalism.
  -----------------------------------------------------------------
  nComm           C0                 |C1|                  |C2|
  -----------------------------------------------------------------
   0     -14.351880476202         6.374536e+00         2.570376e+00
   1      -0.126083700840         1.914162e-01         2.077402e-01
   2       0.067825225740         8.029827e-02         1.116810e-01
   3      -0.004856630427         7.221411e-03         7.947037e-03
   4       0.001306272958         1.532438e-03         2.137158e-03
   5      -0.000056115561         8.293162e-05         9.166904e-05
   6       0.000010062094         1.177524e-05         1.643660e-05
   7      -0.000000308728         4.553510e-07         5.041349e-07
   8       0.000000041518         4.855294e-08         6.779661e-08
   9      -0.000000000991         1.460135e-09         1.617695e-09
  10       0.000000000107         1.246200e-10         1.740401e-10
  11      -0.000000000002         3.065772e-12         3.397795e-12
  12       0.000000000000         2.181071e-13         3.046268e-13
  ----------------------------------------------------------------- done.
  --------------------------------------------
  nExc           |S|                  |R|
  --------------------------------------------
    1        0.000000e+00         0.000000e+00
    2        2.943205e-01         2.943205e-01
  --------------------------------------------
  @CC   30       -14.413735630332891        -0.000000000011672
  NEXT CYCLE
  Updating the S amplitudes... done.
  Compute recursive single commutator...

  Computing the BCH expansion using the single-reference normal ordering formalism.
  -----------------------------------------------------------------
  nComm           C0                 |C1|                  |C2|
  -----------------------------------------------------------------
   0     -14.351880476202         6.374536e+00         2.570376e+00
   1      -0.126083735279         1.914162e-01         2.077403e-01
   2       0.067825262806         8.029831e-02         1.116811e-01
   3      -0.004856634436         7.221417e-03         7.947043e-03
   4       0.001306274393         1.532439e-03         2.137160e-03
   5      -0.000056115638         8.293173e-05         9.166917e-05
   6       0.000010062110         1.177525e-05         1.643662e-05
   7      -0.000000308728         4.553519e-07         5.041359e-07
   8       0.000000041518         4.855305e-08         6.779676e-08
   9      -0.000000000991         1.460139e-09         1.617699e-09
  10       0.000000000107         1.246203e-10         1.740406e-10
  11      -0.000000000002         3.065781e-12         3.397806e-12
  12       0.000000000000         2.181078e-13         3.046279e-13
  ----------------------------------------------------------------- done.
  --------------------------------------------
  nExc           |S|                  |R|
  --------------------------------------------
    1        0.000000e+00         0.000000e+00
    2        2.943206e-01         2.943206e-01
  --------------------------------------------
  @CC   31       -14.413735630340298        -0.000000000007407
  NEXT CYCLE
  Updating the S amplitudes... done.
  Compute recursive single commutator...

  Computing the BCH expansion using the single-reference normal ordering formalism.
  -----------------------------------------------------------------
  nComm           C0                 |C1|                  |C2|
  -----------------------------------------------------------------
   0     -14.351880476202         6.374536e+00         2.570376e+00
   1      -0.126083757166         1.914162e-01         2.077403e-01
   2       0.067825286363         8.029834e-02         1.116811e-01
   3      -0.004856636983         7.221421e-03         7.947048e-03
   4       0.001306275305         1.532440e-03         2.137161e-03
   5      -0.000056115687         8.293180e-05         9.166925e-05
   6       0.000010062121         1.177527e-05         1.643664e-05
   7      -0.000000308729         4.553524e-07         5.041365e-07
   8       0.000000041518         4.855312e-08         6.779685e-08
   9      -0.000000000991         1.460141e-09         1.617702e-09
  10       0.000000000107         1.246206e-10         1.740409e-10
  11      -0.000000000002         3.065787e-12         3.397812e-12
  12       0.000000000000         2.181083e-13         3.046285e-13
  ----------------------------------------------------------------- done.
  --------------------------------------------
  nExc           |S|                  |R|
  --------------------------------------------
    1        0.000000e+00         0.000000e+00
    2        2.943206e-01         2.943206e-01
  --------------------------------------------
  @CC   32       -14.413735630345000        -0.000000000004702
  NEXT CYCLE
  Updating the S amplitudes... done.
  Compute recursive single commutator...

  Computing the BCH expansion using the single-reference normal ordering formalism.
  -----------------------------------------------------------------
  nComm           C0                 |C1|                  |C2|
  -----------------------------------------------------------------
   0     -14.351880476202         6.374536e+00         2.570376e+00
   1      -0.126083771076         1.914163e-01         2.077404e-01
   2       0.067825301334         8.029836e-02         1.116811e-01
   3      -0.004856638602         7.221423e-03         7.947050e-03
   4       0.001306275885         1.532441e-03         2.137162e-03
   5      -0.000056115718         8.293185e-05         9.166930e-05
   6       0.000010062128         1.177527e-05         1.643665e-05
   7      -0.000000308729         4.553528e-07         5.041369e-07
   8       0.000000041519         4.855316e-08         6.779691e-08
   9      -0.000000000991         1.460143e-09         1.617704e-09
  10       0.000000000107         1.246207e-10         1.740411e-10
  11      -0.000000000002         3.065791e-12         3.397816e-12
  12       0.000000000000         2.181085e-13         3.046289e-13
  ----------------------------------------------------------------- done.
  --------------------------------------------
  nExc           |S|                  |R|
  --------------------------------------------
    1        0.000000e+00         0.000000e+00
    2        2.943206e-01         2.943206e-01
  --------------------------------------------
  @CC   33       -14.413735630347986        -0.000000000002986
  NEXT CYCLE
  Updating the S amplitudes... done.
  Compute recursive single commutator...

  Computing the BCH expansion using the single-reference normal ordering formalism.
  -----------------------------------------------------------------
  nComm           C0                 |C1|                  |C2|
  -----------------------------------------------------------------
   0     -14.351880476202         6.374536e+00         2.570376e+00
   1      -0.126083779916         1.914163e-01         2.077404e-01
   2       0.067825310849         8.029837e-02         1.116811e-01
   3      -0.004856639631         7.221425e-03         7.947052e-03
   4       0.001306276253         1.532441e-03         2.137163e-03
   5      -0.000056115738         8.293188e-05         9.166933e-05
   6       0.000010062132         1.177528e-05         1.643666e-05
   7      -0.000000308729         4.553530e-07         5.041372e-07
   8       0.000000041519         4.855319e-08         6.779695e-08
   9      -0.000000000991         1.460144e-09         1.617705e-09
  10       0.000000000107         1.246208e-10         1.740412e-10
  11      -0.000000000002         3.065793e-12         3.397819e-12
  12       0.000000000000         2.181087e-13         3.046292e-13
  ----------------------------------------------------------------- done.
  --------------------------------------------
  nExc           |S|                  |R|
  --------------------------------------------
    1        0.000000e+00         0.000000e+00
    2        2.943207e-01         2.943207e-01
  --------------------------------------------
  @CC   34       -14.413735630349885        -0.000000000001899
  NEXT CYCLE
  Updating the S amplitudes... done.
  Compute recursive single commutator...

  Computing the BCH expansion using the single-reference normal ordering formalism.
  -----------------------------------------------------------------
  nComm           C0                 |C1|                  |C2|
  -----------------------------------------------------------------
   0     -14.351880476202         6.374536e+00         2.570376e+00
   1      -0.126083785535         1.914163e-01         2.077404e-01
   2       0.067825316895         8.029838e-02         1.116811e-01
   3      -0.004856640285         7.221426e-03         7.947053e-03
   4       0.001306276487         1.532442e-03         2.137163e-03
   5      -0.000056115751         8.293190e-05         9.166935e-05
   6       0.000010062135         1.177528e-05         1.643666e-05
   7      -0.000000308729         4.553532e-07         5.041373e-07
   8       0.000000041519         4.855320e-08         6.779698e-08
   9      -0.000000000991         1.460144e-09         1.617705e-09
  10       0.000000000107         1.246208e-10         1.740413e-10
  11      -0.000000000002         3.065795e-12         3.397821e-12
  12       0.000000000000         2.181088e-13         3.046293e-13
  ----------------------------------------------------------------- done.
  --------------------------------------------
  nExc           |S|                  |R|
  --------------------------------------------
    1        0.000000e+00         0.000000e+00
    2        2.943207e-01         2.943207e-01
  --------------------------------------------
  @CC   35       -14.413735630351088        -0.000000000001203
  NEXT CYCLE
  Updating the S amplitudes... done.
  Compute recursive single commutator...

  Computing the BCH expansion using the single-reference normal ordering formalism.
  -----------------------------------------------------------------
  nComm           C0                 |C1|                  |C2|
  -----------------------------------------------------------------
   0     -14.351880476202         6.374536e+00         2.570376e+00
   1      -0.126083789105         1.914163e-01         2.077404e-01
   2       0.067825320738         8.029838e-02         1.116811e-01
   3      -0.004856640700         7.221427e-03         7.947054e-03
   4       0.001306276636         1.532442e-03         2.137164e-03
   5      -0.000056115759         8.293191e-05         9.166937e-05
   6       0.000010062136         1.177529e-05         1.643667e-05
   7      -0.000000308729         4.553533e-07         5.041374e-07
   8       0.000000041519         4.855322e-08         6.779699e-08
   9      -0.000000000991         1.460144e-09         1.617706e-09
  10       0.000000000107         1.246209e-10         1.740414e-10
  11      -0.000000000002         3.065796e-12         3.397822e-12
  12       0.000000000000         2.181089e-13         3.046294e-13
  ----------------------------------------------------------------- done.
  --------------------------------------------
  nExc           |S|                  |R|
  --------------------------------------------
    1        0.000000e+00         0.000000e+00
    2        2.943207e-01         2.943207e-01
  --------------------------------------------
  @CC   36       -14.413735630351855        -0.000000000000767
  NEXT CYCLE

      * CCSD-BCH total energy      =       -14.413735630351855

  =========== TIMINGS =========
  Time for [A1,B1] -> C0 : 0.0005
  Time for [A1,B1] -> C1 : 0.0009
  Time for [A1,B2] -> C0 : 0.0004
  Time for [A1,B2] -> C1 : 0.0144
  Time for [A1,B2] -> C2 : 0.1383
  Time for [A2,B2] -> C0 : 0.0125
  Time for [A2,B2] -> C1 : 3.3314
  Time for [A2,B2] -> C2 : 1.7709
  =============================

  Time for tensor : 1.7702
  Time for four   : 0.0000
*** PSI4 exiting successfully. Buy a developer a beer!
