
    -----------------------------------------------------------------------
          Psi4: An Open-Source Ab Initio Electronic Structure Package
                               Psi4 1.1a2.dev288 

                         Git: Rev {master} e63fa60 


    R. M. Parrish, L. A. Burns, D. G. A. Smith, A. C. Simmonett,
    A. E. DePrince III, E. G. Hohenstein, U. Bozkaya, A. Yu. Sokolov,
    R. Di Remigio, R. M. Richard, J. F. Gonthier, A. M. James,
    H. R. McAlexander, A. Kumar, M. Saitow, X. Wang, B. P. Pritchard,
    P. Verma, H. F. Schaefer III, K. Patkowski, R. A. King, E. F. Valeev,
    F. A. Evangelista, J. M. Turney, T. D. Crawford, and C. D. Sherrill,
    submitted.

    -----------------------------------------------------------------------


    Psi4 started on: Tuesday, 11 April 2017 02:50PM

    Process ID:  91882
    PSIDATADIR: /Users/jeffschriber/src/psi4_debug_install/share/psi4
    Memory:     500.0 MiB
    Threads:    1
    
  ==> Input File <==

--------------------------------------------------------------------------
#! Generated using commit GITCOMMIT 
# Basic ACI calculation with energy threshold selection

import forte

refscf = -14.839846512738 #TEST
refaci = -14.888681221669 #TEST
refacipt2 = -14.890314474716 #TEST

molecule li2{
   Li
   Li 1 2.0000
}

set {
  basis DZ
  e_convergence 10
  d_convergence 10
  r_convergence 10
  guess gwh
}

set scf {
  scf_type pk
  reference rhf
  docc = [2,0,0,0,0,1,0,0]
}

set forte {
  job_type = aci
  ACI_SELECT_TYPE energy
  sigma 0.00001000
  gamma 100.0
  aci_nroot 1
  charge 0
  aci_perturb_select true
  aci_enforce_spin_complete false
}

energy('scf')

compare_values(refscf, get_variable("CURRENT ENERGY"),9, "SCF energy") #TEST

energy('forte')
compare_values(refaci, get_variable("ACI ENERGY"),9, "ACI energy") #TEST
compare_values(refacipt2, get_variable("ACI+PT2 ENERGY"),8, "ACI+PT2 energy") #TEST
--------------------------------------------------------------------------
/Users/jeffschriber/src/forte/forte.so loaded.

*** tstart() called on Jeffs-MacBook-Pro-2.local
*** at Tue Apr 11 14:50:42 2017

    There are an even number of electrons - assuming singlet.
    Specify the multiplicity in the molecule input block.


         ---------------------------------------------------------
                                   SCF
            by Justin Turney, Rob Parrish, and Andy Simmonett
                              RHF Reference
                        1 Threads,    524 MiB Core
         ---------------------------------------------------------

  ==> Geometry <==

    Molecular point group: d2h
    Full point group: D_inf_h

    Geometry (in Angstrom), charge = 0, multiplicity = 1:

       Center              X                  Y                   Z               Mass       
    ------------   -----------------  -----------------  -----------------  -----------------
          LI          0.000000000000     0.000000000000    -1.000000000000     7.016004548000
          LI          0.000000000000     0.000000000000     1.000000000000     7.016004548000

  Running in d2h symmetry.

  Rotational constants: A = ************  B =      1.20137  C =      1.20137 [cm^-1]
  Rotational constants: A = ************  B =  36016.15432  C =  36016.15432 [MHz]
  Nuclear repulsion =    2.381297438654999

  Charge       = 0
  Multiplicity = 1
  Electrons    = 6
  Nalpha       = 3
  Nbeta        = 3

  ==> Algorithm <==

  SCF Algorithm Type is PK.
  DIIS enabled.
  MOM disabled.
  Fractional occupation disabled.
  Guess Type is GWH.
  Energy threshold   = 1.00e-10
  Density threshold  = 1.00e-10
  Integral threshold = 0.00e+00

  ==> Primary Basis <==

  Basis Set: file /Users/jeffschriber/src/psi4_debug_install/share/psi4/basis/dz.gbs
    Number of shells: 12
    Number of basis function: 20
    Number of Cartesian functions: 20
    Spherical Harmonics?: false
    Max angular momentum: 1

  ==> Pre-Iterations <==

   -------------------------------------------------------
    Irrep   Nso     Nmo     Nalpha   Nbeta   Ndocc  Nsocc
   -------------------------------------------------------
     Ag         6       6       2       2       2       0
     B1g        0       0       0       0       0       0
     B2g        2       2       0       0       0       0
     B3g        2       2       0       0       0       0
     Au         0       0       0       0       0       0
     B1u        6       6       1       1       1       0
     B2u        2       2       0       0       0       0
     B3u        2       2       0       0       0       0
   -------------------------------------------------------
    Total      20      20       3       3       3       0
   -------------------------------------------------------

  ==> Integral Setup <==

  Using in-core PK algorithm.
   Calculation information:
      Number of atoms:                   2
      Number of AO shells:              12
      Number of primitives:             26
      Number of atomic orbitals:        20
      Number of basis functions:        20

      Integral cutoff                 1.00e-12
      Number of threads:                 1

  Performing in-core PK
  Using 44310 doubles for integral storage.
  We computed 3081 shell quartets total.
  Whereas there are 3081 unique shell quartets.
  ==> DiskJK: Disk-Based J/K Matrices <==

    J tasked:                  Yes
    K tasked:                  Yes
    wK tasked:                  No
    Memory (MB):               375
    Schwarz Cutoff:          1E-12

    OpenMP threads:              1
  Minimum eigenvalue in the overlap matrix is 1.9077689073E-03.
  Using Symmetric Orthogonalization.

  SCF Guess: Generalized Wolfsberg-Helmholtz.

  ==> Iterations <==

                        Total Energy        Delta E     RMS |[F,P]|

   @RHF iter   1:   -12.53594429341654   -1.25359e+01   2.23153e-01 
   @RHF iter   2:   -14.79787116902154   -2.26193e+00   2.68650e-02 DIIS
   @RHF iter   3:   -14.83869372123890   -4.08226e-02   2.13956e-03 DIIS
   @RHF iter   4:   -14.83976138830911   -1.06767e-03   5.27743e-04 DIIS
   @RHF iter   5:   -14.83984602258662   -8.46343e-05   4.48938e-05 DIIS
   @RHF iter   6:   -14.83984649363679   -4.71050e-07   6.75092e-06 DIIS
   @RHF iter   7:   -14.83984651196291   -1.83261e-08   1.27728e-06 DIIS
   @RHF iter   8:   -14.83984651272110   -7.58181e-10   1.65929e-07 DIIS
   @RHF iter   9:   -14.83984651273756   -1.64597e-11   3.05615e-08 DIIS
   @RHF iter  10:   -14.83984651273806   -5.08038e-13   4.17482e-10 DIIS
   @RHF iter  11:   -14.83984651273806    0.00000e+00   9.58737e-12 DIIS

  ==> Post-Iterations <==

    Orbital Energies (a.u.)
    -----------------------

    Doubly Occupied:                                                      

       1Ag    -2.470948     1B1u   -2.465815     2Ag    -0.194380  

    Virtual:                                                              

       2B1u    0.012721     1B2u    0.026034     1B3u    0.026034  
       3Ag     0.049075     1B2g    0.069563     1B3g    0.069563  
       3B1u    0.080420     4Ag     0.130086     2B2u    0.137741  
       2B3u    0.137741     5Ag     0.171764     2B2g    0.242777  
       2B3g    0.242777     4B1u    0.246004     5B1u    0.480486  
       6Ag     1.695539     6B1u    1.801802  

    Final Occupation by Irrep:
             Ag   B1g   B2g   B3g    Au   B1u   B2u   B3u 
    DOCC [     2,    0,    0,    0,    0,    1,    0,    0 ]

  Energy converged.

  @RHF Final Energy:   -14.83984651273806

   => Energetics <=

    Nuclear Repulsion Energy =              2.3812974386549994
    One-Electron Energy =                 -24.1800018295045192
    Two-Electron Energy =                   6.9588578781114547
    DFT Exchange-Correlation Energy =       0.0000000000000000
    Empirical Dispersion Energy =           0.0000000000000000
    PCM Polarization Energy =               0.0000000000000000
    EFP Energy =                            0.0000000000000000
    Total Energy =                        -14.8398465127380632

    Alert: EFP and PCM quantities not currently incorporated into SCF psivars.

Properties will be evaluated at   0.000000,   0.000000,   0.000000 Bohr

Properties computed using the SCF density matrix

  Nuclear Dipole Moment: (a.u.)
     X:     0.0000      Y:     0.0000      Z:     0.0000

  Electronic Dipole Moment: (a.u.)
     X:     0.0000      Y:     0.0000      Z:     0.0000

  Dipole Moment: (a.u.)
     X:     0.0000      Y:     0.0000      Z:     0.0000     Total:     0.0000

  Dipole Moment: (Debye)
     X:     0.0000      Y:     0.0000      Z:     0.0000     Total:     0.0000


*** tstop() called on Jeffs-MacBook-Pro-2.local at Tue Apr 11 14:50:42 2017
Module time:
	user time   =       0.16 seconds =       0.00 minutes
	system time =       0.02 seconds =       0.00 minutes
	total time  =          0 seconds =       0.00 minutes
Total time:
	user time   =       0.16 seconds =       0.00 minutes
	system time =       0.02 seconds =       0.00 minutes
	total time  =          0 seconds =       0.00 minutes
	SCF energy........................................................PASSED

         ---------------------------------------------------------
                                   SCF
            by Justin Turney, Rob Parrish, and Andy Simmonett
                              RHF Reference
                        1 Threads,    524 MiB Core
         ---------------------------------------------------------

  ==> Geometry <==

    Molecular point group: d2h
    Full point group: D_inf_h

    Geometry (in Angstrom), charge = 0, multiplicity = 1:

       Center              X                  Y                   Z               Mass       
    ------------   -----------------  -----------------  -----------------  -----------------
          LI          0.000000000000     0.000000000000    -1.000000000000     7.016004548000
          LI          0.000000000000     0.000000000000     1.000000000000     7.016004548000

  Running in d2h symmetry.

  Rotational constants: A = ************  B =      1.20137  C =      1.20137 [cm^-1]
  Rotational constants: A = ************  B =  36016.15432  C =  36016.15432 [MHz]
  Nuclear repulsion =    2.381297438654999

  Charge       = 0
  Multiplicity = 1
  Electrons    = 6
  Nalpha       = 3
  Nbeta        = 3

  ==> Algorithm <==

  SCF Algorithm Type is PK.
  DIIS enabled.
  MOM disabled.
  Fractional occupation disabled.
  Guess Type is GWH.
  Energy threshold   = 1.00e-10
  Density threshold  = 1.00e-10
  Integral threshold = 0.00e+00

  ==> Primary Basis <==

  Basis Set: file /Users/jeffschriber/src/psi4_debug_install/share/psi4/basis/dz.gbs
    Number of shells: 12
    Number of basis function: 20
    Number of Cartesian functions: 20
    Spherical Harmonics?: false
    Max angular momentum: 1

  ==> Pre-Iterations <==

   -------------------------------------------------------
    Irrep   Nso     Nmo     Nalpha   Nbeta   Ndocc  Nsocc
   -------------------------------------------------------
     Ag         6       6       2       2       2       0
     B1g        0       0       0       0       0       0
     B2g        2       2       0       0       0       0
     B3g        2       2       0       0       0       0
     Au         0       0       0       0       0       0
     B1u        6       6       1       1       1       0
     B2u        2       2       0       0       0       0
     B3u        2       2       0       0       0       0
   -------------------------------------------------------
    Total      20      20       3       3       3       0
   -------------------------------------------------------

  ==> Integral Setup <==

  Using in-core PK algorithm.
   Calculation information:
      Number of atoms:                   2
      Number of AO shells:              12
      Number of primitives:             26
      Number of atomic orbitals:        20
      Number of basis functions:        20

      Integral cutoff                 1.00e-12
      Number of threads:                 1

  Performing in-core PK
  Using 44310 doubles for integral storage.
  We computed 3081 shell quartets total.
  Whereas there are 3081 unique shell quartets.
  ==> DiskJK: Disk-Based J/K Matrices <==

    J tasked:                  Yes
    K tasked:                  Yes
    wK tasked:                  No
    Memory (MB):               375
    Schwarz Cutoff:          1E-12

    OpenMP threads:              1
  Minimum eigenvalue in the overlap matrix is 1.9077689073E-03.
  Using Symmetric Orthogonalization.

  SCF Guess: Generalized Wolfsberg-Helmholtz.

  ==> Iterations <==

                        Total Energy        Delta E     RMS |[F,P]|

   @RHF iter   1:   -12.53594429341653   -1.25359e+01   2.23153e-01 
   @RHF iter   2:   -14.79787116902154   -2.26193e+00   2.68650e-02 DIIS
   @RHF iter   3:   -14.83869372123889   -4.08226e-02   2.13956e-03 DIIS
   @RHF iter   4:   -14.83976138830910   -1.06767e-03   5.27743e-04 DIIS
   @RHF iter   5:   -14.83984602258662   -8.46343e-05   4.48938e-05 DIIS
   @RHF iter   6:   -14.83984649363680   -4.71050e-07   6.75092e-06 DIIS
   @RHF iter   7:   -14.83984651196292   -1.83261e-08   1.27728e-06 DIIS
   @RHF iter   8:   -14.83984651272109   -7.58174e-10   1.65929e-07 DIIS
   @RHF iter   9:   -14.83984651273755   -1.64526e-11   3.05615e-08 DIIS
   @RHF iter  10:   -14.83984651273806   -5.16920e-13   4.17482e-10 DIIS
   @RHF iter  11:   -14.83984651273806    5.32907e-15   9.58750e-12 DIIS

  ==> Post-Iterations <==

    Orbital Energies (a.u.)
    -----------------------

    Doubly Occupied:                                                      

       1Ag    -2.470948     1B1u   -2.465815     2Ag    -0.194380  

    Virtual:                                                              

       2B1u    0.012721     1B3u    0.026034     1B2u    0.026034  
       3Ag     0.049075     1B3g    0.069563     1B2g    0.069563  
       3B1u    0.080420     4Ag     0.130086     2B3u    0.137741  
       2B2u    0.137741     5Ag     0.171764     2B3g    0.242777  
       2B2g    0.242777     4B1u    0.246004     5B1u    0.480486  
       6Ag     1.695539     6B1u    1.801802  

    Final Occupation by Irrep:
             Ag   B1g   B2g   B3g    Au   B1u   B2u   B3u 
    DOCC [     2,    0,    0,    0,    0,    1,    0,    0 ]

  Energy converged.

  @RHF Final Energy:   -14.83984651273806

   => Energetics <=

    Nuclear Repulsion Energy =              2.3812974386549994
    One-Electron Energy =                 -24.1800018295045120
    Two-Electron Energy =                   6.9588578781114538
    DFT Exchange-Correlation Energy =       0.0000000000000000
    Empirical Dispersion Energy =           0.0000000000000000
    PCM Polarization Energy =               0.0000000000000000
    EFP Energy =                            0.0000000000000000
    Total Energy =                        -14.8398465127380579



Properties will be evaluated at   0.000000,   0.000000,   0.000000 Bohr

Properties computed using the SCF density matrix

  Nuclear Dipole Moment: (a.u.)
     X:     0.0000      Y:     0.0000      Z:     0.0000

  Electronic Dipole Moment: (a.u.)
     X:     0.0000      Y:     0.0000      Z:     0.0000

  Dipole Moment: (a.u.)
     X:     0.0000      Y:     0.0000      Z:     0.0000     Total:     0.0000

  Dipole Moment: (Debye)
     X:     0.0000      Y:     0.0000      Z:     0.0000     Total:     0.0000


Reading options from the FORTE block
Calling plugin forte.so.




  ==> MO Space Information <==

  -------------------------------------------------------------------------
                       Ag   B1g   B2g   B3g    Au   B1u   B2u   B3u   Sum
  -------------------------------------------------------------------------
    FROZEN_DOCC         0     0     0     0     0     0     0     0     0
    RESTRICTED_DOCC     0     0     0     0     0     0     0     0     0
    ACTIVE              6     0     2     2     0     6     2     2    20
    RESTRICTED_UOCC     0     0     0     0     0     0     0     0     0
    FROZEN_UOCC         0     0     0     0     0     0     0     0     0
    Total               6     0     2     2     0     6     2     2    20
  -------------------------------------------------------------------------

  ==> Integral Transformation <==

  Number of molecular orbitals:               20
  Number of correlated molecular orbitals:    20
  Number of frozen occupied orbitals:          0
  Number of frozen unoccupied orbitals:        0

    Molecular point group: d2h
    Full point group: D_inf_h

    Geometry (in Angstrom), charge = 0, multiplicity = 1:

       Center              X                  Y                   Z               Mass       
    ------------   -----------------  -----------------  -----------------  -----------------
          LI          0.000000000000     0.000000000000    -1.000000000000     7.016004548000
          LI          0.000000000000     0.000000000000     1.000000000000     7.016004548000

  -AO BASIS SET INFORMATION:
    Name                   = file /Users/jeffschriber/src/psi4_debug_install/share/psi4/basis/dz.gbs
    Total number of shells = 12
    Number of primitives   = 26
    Number of AO           = 20
    Number of SO           = 20
    Maximum AM             = 1
    Spherical Harmonics    = FALSE

  -Contraction Scheme:
    Atom   Type   All Primitives // Shells:
   ------ ------ --------------------------
       1    LI     9s 4p // 4s 2p 
       2    LI     9s 4p // 4s 2p 

  ==> AO Basis Functions <==

    [ file /Users/jeffschriber/src/psi4_debug_install/share/psi4/basis/dz.gbs ]
    cartesian
    ****
   LI   1
    S   6 1.00
                       921.30000000           0.00136700
                       138.70000000           0.01042500
                        31.94000000           0.04985900
                         9.35300000           0.16070100
                         3.15800000           0.34460400
                         1.15700000           0.42519700
    S   1 1.00
                         0.44460000           1.00000000
    S   1 1.00
                         0.07666000           1.00000000
    S   1 1.00
                         0.02864000           1.00000000
    P   3 1.00
                         1.48800000           0.03877000
                         0.26670000           0.23625700
                         0.07201000           0.83044800
    P   1 1.00
                         0.02370000           1.00000000
    ****


  Overall Conventional Integrals timings

	Presorting SO-basis two-electron integrals.
	Sorting File: SO Ints (nn|nn) nbuckets = 1
	Transforming the one-electron integrals and constructing Fock matrices
	Starting first half-transformation.
	Sorting half-transformed integrals.
	First half integral transformation complete.
	Starting second half-transformation.
	Two-electron integral transformation complete.

  Integral transformation done. 0.00994600 s
  Reading the two-electron integrals from disk
  Size of two-electron integrals:   0.003576 GB
  Conventional integrals take 0.05426000 s

        ---------------------------------------------------------------
                      Adaptive Configuration Interaction
          written by Jeffrey B. Schriber and Francesco A. Evangelista
        ---------------------------------------------------------------

  ==> Reference Information <==

  There are 0 frozen orbitals.
  There are 20 active orbitals.

  |22000000002000000000>
  REFERENCE ENERGY:         -14.839846512738
  ==> Calculation Information <==

  -----------------------------------------------------------------
    Multiplicity                             1    
    Symmetry                                 0    
    Number of roots                          1    
    Root used for properties                 0    
    Sigma                                    1.00e-05
    Gamma                                    1.00e+02
    Convergence threshold                    1.00e-09
    Determinant selection criterion          Second-order Energy
    Selection criterion                      Threshold
    Excited Algorithm                        ROOT_ORTHOGONALIZE
    Project out spin contaminants            True
    Enforce spin completeness of basis       False
    Enforce complete aimed selection         True
  -----------------------------------------------------------------
  Computing wavefunction for root 0

  ==> Cycle 0 <==

  Initial P space dimension: 1
  Not checking for spin-completeness.
  Time spent building a_list   0.000007 s
  Time spent building b_list   0.000004 s
  Time spent building aa_list  0.000003 s
  Time spent building bb_list  0.000003 s
  Time spent building ab_list  0.000008 s
  Time spent diagonalizing H:   0.000431 s

    P-space  CI Energy Root   0        = -14.839846512738 Eh =   0.0000 eV

  Dimension of the SD space: 675 determinants
  Time spent building the model space: 0.001769 s

  Dimension of the P + Q space: 138 determinants
  Time spent screening the model space: 0.000312 s
  Time spent building a_list   0.000229 s
  Time spent building b_list   0.000236 s
  Time spent building aa_list  0.000201 s
  Time spent building bb_list  0.000199 s
  Time spent building ab_list  0.000537 s
  Total time spent diagonalizing H:   0.006991 s

    PQ-space CI Energy Root   0        = -14.887348008859 Eh =   0.0000 eV
    PQ-space CI Energy + EPT2 Root   0 = -14.888195810035 Eh =   0.0000 eV


  Most important contributions to root   0:
    0   0.945052 0.893122660           0 |22000000002000000000>
    1  -0.141995 0.020162499          98 |20000000002000002000>
    2  -0.141995 0.020162499         100 |20000000002000000020>
    3  -0.096517 0.009315509          13 |200000000020000000-+>
    4  -0.096517 0.009315509         101 |200000000020000000+->
    5  -0.096517 0.009315509          35 |2000000000200000+-00>
    6  -0.096517 0.009315509          57 |2000000000200000-+00>
    7  -0.068086 0.004635724          26 |20000000002000000002>
    8  -0.068086 0.004635724          28 |20000000002000000200>
    9  -0.056273 0.003166613          83 |20020000002000000000>

  Spin state for root 0: S^2 = 0.004317, S = 0.004, singlet
  Cycle 0 took: 0.012962 s

  ==> Cycle 1 <==

  Initial P space dimension: 130
  Not checking for spin-completeness.
  Time spent building a_list   0.000226 s
  Time spent building b_list   0.000239 s
  Time spent building aa_list  0.000219 s
  Time spent building bb_list  0.000196 s
  Time spent building ab_list  0.000495 s
  Time spent diagonalizing H:   0.007823 s

    P-space  CI Energy Root   0        = -14.887346774447 Eh =   0.0000 eV

  Dimension of the SD space: 22958 determinants
  Time spent building the model space: 0.539206 s

  Dimension of the P + Q space: 195 determinants
  Time spent screening the model space: 0.009258 s
  Time spent building a_list   0.000297 s
  Time spent building b_list   0.000302 s
  Time spent building aa_list  0.000291 s
  Time spent building bb_list  0.000279 s
  Time spent building ab_list  0.000875 s
  Total time spent diagonalizing H:   0.017029 s

    PQ-space CI Energy Root   0        = -14.888681221669 Eh =   0.0000 eV
    PQ-space CI Energy + EPT2 Root   0 = -14.890220873486 Eh =   0.0000 eV


  Most important contributions to root   0:
    0  -0.940001 0.883602060           0 |22000000002000000000>
    1   0.150897 0.022769920         105 |20000000002000002000>
    2   0.150897 0.022769920         106 |20000000002000000020>
    3   0.101911 0.010385838          48 |2000000000200000+-00>
    4   0.101911 0.010385838           3 |2000000000200000-+00>
    5   0.101911 0.010385838          91 |200000000020000000-+>
    6   0.101911 0.010385838         108 |200000000020000000+->
    7   0.068873 0.004743441          64 |20000000002000000200>
    8   0.068873 0.004743441          31 |20000000002000000002>
    9   0.055331 0.003061555          95 |20020000002000000000>

  Spin state for root 0: S^2 = 0.004660, S = 0.005, singlet
  Cycle 1 took: 0.582209 s

  ==> Cycle 2 <==

  Initial P space dimension: 194
  Not checking for spin-completeness.
  Time spent building a_list   0.000287 s
  Time spent building b_list   0.000286 s
  Time spent building aa_list  0.000284 s
  Time spent building bb_list  0.000280 s
  Time spent building ab_list  0.000730 s
  Time spent diagonalizing H:   0.016435 s

    P-space  CI Energy Root   0        = -14.888670691384 Eh =   0.0000 eV

  Dimension of the SD space: 30656 determinants
  Time spent building the model space: 1.052591 s

  Dimension of the P + Q space: 195 determinants
  Time spent screening the model space: 0.016306 s
  Time spent building a_list   0.000348 s
  Time spent building b_list   0.000354 s
  Time spent building aa_list  0.000341 s
  Time spent building bb_list  0.000328 s
  Time spent building ab_list  0.000860 s
  Total time spent diagonalizing H:   0.017482 s

    PQ-space CI Energy Root   0        = -14.888681221669 Eh =   0.0000 eV
    PQ-space CI Energy + EPT2 Root   0 = -14.890314475319 Eh =   0.0000 eV

  ***** Calculation Converged *****
  Not performing spin projection.
  Saving root 0, ref_root is 0
  Number of old roots: 1

  ==> ACI Summary <==

  Iterations required:                         2
  Dimension of optimized determinant space:    195

  ACI(0.000) Correlation energy: 0.048834708931 Eh
  * Adaptive-CI Energy Root   0        = -14.888681221669 Eh =   0.0000 eV
  * Adaptive-CI Energy Root   0 + EPT2 = -14.890314475319 Eh =   0.0000 eV
  Time spent building a_ann_list   0.000729 s
  Time spent building b_ann_list   0.000424 s
  Time spent building aa_ann_list  0.000677 s
  Time spent building bb_ann_list  0.000382 s
  Time spent building ab_ann_list  0.001055 s
  1-RDM  took 0.000075 s (determinant)

  ==> NATURAL ORBITALS <==

        1Ag     1.997747      1B1u    1.997715      2Ag     1.772277  
        1B2u    0.096725      1B3u    0.096725      3Ag     0.017952  
        2B1u    0.016251      3B1u    0.002201      4Ag     0.002164  
        5Ag     0.000082      4B1u    0.000061      2B3u    0.000022  
        2B2u    0.000022      5B1u    0.000019      6Ag     0.000014  
        1B3g    0.000010      1B2g    0.000010      6B1u    0.000002  
        2B3g    0.000000      2B2g    0.000000  



  Adaptive-CI (bitset) ran in : 1.717640 s

  Saving information for root: 0

  Your calculation took 1.81301900 seconds
	ACI energy........................................................PASSED
	ACI+PT2 energy....................................................PASSED

*** Psi4 exiting successfully. Buy a developer a beer!
