
    -----------------------------------------------------------------------
          Psi4: An Open-Source Ab Initio Electronic Structure Package
                               Psi4 undefined 

                         Git: Rev {master} 45315cb 


    R. M. Parrish, L. A. Burns, D. G. A. Smith, A. C. Simmonett,
    A. E. DePrince III, E. G. Hohenstein, U. Bozkaya, A. Yu. Sokolov,
    R. Di Remigio, R. M. Richard, J. F. Gonthier, A. M. James,
    H. R. McAlexander, A. Kumar, M. Saitow, X. Wang, B. P. Pritchard,
    P. Verma, H. F. Schaefer III, K. Patkowski, R. A. King, E. F. Valeev,
    F. A. Evangelista, J. M. Turney, T. D. Crawford, and C. D. Sherrill,
    J. Chem. Theory Comput. 13(7) pp 3185--3197 (2017).
    (doi: 10.1021/acs.jctc.7b00174)


                         Additional Contributions by
    P. Kraus, H. Kruse, M. H. Lechner, M. C. Schieber, R. A. Shaw,
    A. Alenaizan, R. Galvelis, Z. L. Glick, S. Lehtola, and J. P. Misiewicz

    -----------------------------------------------------------------------


    Psi4 started on: Tuesday, 23 April 2019 10:07AM

    Process ID: 15454
    Host:       juan-pablo.wireless.emory.edu
    PSIDATADIR: /Users/jeffschriber/src/psi4-debug-install/share/psi4
    Memory:     500.0 MiB
    Threads:    1
    
  ==> Input File <==

--------------------------------------------------------------------------
#! Generated using commit GITCOMMIT 
# Basic ACI calculation with energy threshold selection

import forte

refscf = -14.839846512738 #TEST
refaci = -14.889051449776 #TEST
refacipt2 = -14.890048359302 #TEST

molecule li2{
0 1
   Li
   Li 1 2.0000
}

set {
  basis DZ
  e_convergence 10
  d_convergence 10
  r_convergence 10
  guess gwh
}

set scf {
  scf_type pk
  reference rohf
#  docc = [2,0,0,0,0,1,0,0]
}

set forte {
  active_space_solver aci
  multiplicity 1
  ms 0.0
  sigma 0.001
  nroot 1
  root_sym 0
  charge 0
  aci_enforce_spin_complete false
  active_ref_type hf 
}

energy('scf')

#compare_values(refscf, variable("CURRENT ENERGY"),9, "SCF energy") #TEST

energy('forte')
compare_values(refaci, variable("ACI ENERGY"),9, "ACI energy") #TEST
compare_values(refacipt2, variable("ACI+PT2 ENERGY"),8, "ACI+PT2 energy") #TEST
--------------------------------------------------------------------------

*** tstart() called on juan-pablo.wireless.emory.edu
*** at Tue Apr 23 10:07:18 2019

   => Loading Basis Set <=

    Name: DZ
    Role: ORBITAL
    Keyword: BASIS
    atoms 1-2 entry LI         line    20 file /Users/jeffschriber/src/psi4-debug-install/share/psi4/basis/dz.gbs 


         ---------------------------------------------------------
                                   SCF
               by Justin Turney, Rob Parrish, Andy Simmonett
                          and Daniel G. A. Smith
                             ROHF Reference
                        1 Threads,    500 MiB Core
         ---------------------------------------------------------

  ==> Geometry <==

    Molecular point group: d2h
    Full point group: D_inf_h

    Geometry (in Angstrom), charge = 0, multiplicity = 1:

       Center              X                  Y                   Z               Mass       
    ------------   -----------------  -----------------  -----------------  -----------------
         LI           0.000000000000     0.000000000000    -1.000000000000     7.016003436600
         LI           0.000000000000     0.000000000000     1.000000000000     7.016003436600

  Running in d2h symmetry.

  Rotational constants: A = ************  B =      1.20137  C =      1.20137 [cm^-1]
  Rotational constants: A = ************  B =  36016.16030  C =  36016.16030 [MHz]
  Nuclear repulsion =    2.381297448014999

  Charge       = 0
  Multiplicity = 1
  Electrons    = 6
  Nalpha       = 3
  Nbeta        = 3

  ==> Algorithm <==

  SCF Algorithm Type is PK.
  DIIS enabled.
  MOM disabled.
  Fractional occupation disabled.
  Guess Type is GWH.
  Energy threshold   = 1.00e-10
  Density threshold  = 1.00e-10
  Integral threshold = 0.00e+00

  ==> Primary Basis <==

  Basis Set: DZ
    Blend: DZ
    Number of shells: 12
    Number of basis function: 20
    Number of Cartesian functions: 20
    Spherical Harmonics?: false
    Max angular momentum: 1

   => Loading Basis Set <=

    Name: (DZ AUX)
    Role: JKFIT
    Keyword: DF_BASIS_SCF
    atoms 1-2 entry LI         line    59 file /Users/jeffschriber/src/psi4-debug-install/share/psi4/basis/def2-qzvpp-jkfit.gbs 

  ==> Pre-Iterations <==

   -------------------------------------------------------
    Irrep   Nso     Nmo     Nalpha   Nbeta   Ndocc  Nsocc
   -------------------------------------------------------
     Ag         6       6       0       0       0       0
     B1g        0       0       0       0       0       0
     B2g        2       2       0       0       0       0
     B3g        2       2       0       0       0       0
     Au         0       0       0       0       0       0
     B1u        6       6       0       0       0       0
     B2u        2       2       0       0       0       0
     B3u        2       2       0       0       0       0
   -------------------------------------------------------
    Total      20      20       3       3       3       0
   -------------------------------------------------------

  ==> Integral Setup <==

  Using in-core PK algorithm.
   Calculation information:
      Number of atoms:                   2
      Number of AO shells:              12
      Number of primitives:             26
      Number of atomic orbitals:        20
      Number of basis functions:        20

      Integral cutoff                 1.00e-12
      Number of threads:                 1

  Performing in-core PK
  Using 44310 doubles for integral storage.
  We computed 3081 shell quartets total.
  Whereas there are 3081 unique shell quartets.

  ==> DiskJK: Disk-Based J/K Matrices <==

    J tasked:                  Yes
    K tasked:                  Yes
    wK tasked:                  No
    Memory [MiB]:              375
    Schwarz Cutoff:          1E-12

    OpenMP threads:              1

  Minimum eigenvalue in the overlap matrix is 1.9077688868E-03.
  Using Symmetric Orthogonalization.

  SCF Guess: Generalized Wolfsberg-Helmholtz.

  ==> Iterations <==

                           Total Energy        Delta E     RMS |[F,P]|

    Occupation by irrep:
             Ag   B1g   B2g   B3g    Au   B1u   B2u   B3u 
    DOCC [     2,    0,    0,    0,    0,    1,    0,    0 ]
    SOCC [     0,    0,    0,    0,    0,    0,    0,    0 ]

   @DF-ROHF iter   1:   -13.86328592226905   -1.38633e+01   9.38367e-02 DIIS
   @DF-ROHF iter   2:   -14.83151256644317   -9.68227e-01   5.72002e-03 DIIS
   @DF-ROHF iter   3:   -14.83897650580172   -7.46394e-03   1.05869e-03 DIIS
   @DF-ROHF iter   4:   -14.83973801876334   -7.61513e-04   3.60085e-04 DIIS
   @DF-ROHF iter   5:   -14.83984352118056   -1.05502e-04   5.52298e-05 DIIS
   @DF-ROHF iter   6:   -14.83984643708389   -2.91590e-06   9.06964e-06 DIIS
   @DF-ROHF iter   7:   -14.83984651201008   -7.49262e-08   4.58804e-08 DIIS
   @DF-ROHF iter   8:   -14.83984651201063   -5.50671e-13   5.89178e-09 DIIS
   @DF-ROHF iter   9:   -14.83984651201066   -3.19744e-14   1.60078e-09 DIIS
   @DF-ROHF iter  10:   -14.83984651201068   -1.42109e-14   6.74061e-11 DIIS
  Energy and wave function converged.


  ==> Post-Iterations <==

    Orbital Energies [Eh]
    ---------------------

    Doubly Occupied:                                                      

       1Ag    -2.470948     1B1u   -2.465815     2Ag    -0.194380  

    Singly Occupied:                                                      

    

    Virtual:                                                              

       2B1u    0.012721     1B2u    0.026034     1B3u    0.026034  
       3Ag     0.049075     1B2g    0.069563     1B3g    0.069563  
       3B1u    0.080420     4Ag     0.130086     2B2u    0.137741  
       2B3u    0.137741     5Ag     0.171764     2B2g    0.242777  
       2B3g    0.242777     4B1u    0.246004     5B1u    0.480486  
       6Ag     1.695539     6B1u    1.801802  

    Final Occupation by Irrep:
             Ag   B1g   B2g   B3g    Au   B1u   B2u   B3u 
    DOCC [     2,    0,    0,    0,    0,    1,    0,    0 ]
    SOCC [     0,    0,    0,    0,    0,    0,    0,    0 ]

  @DF-ROHF Final Energy:   -14.83984651201068

   => Energetics <=

    Nuclear Repulsion Energy =              2.3812974480149989
    One-Electron Energy =                 -24.1800018423486129
    Two-Electron Energy =                   6.9588578823229330
    Total Energy =                        -14.8398465120106824

Computation Completed


Properties will be evaluated at   0.000000,   0.000000,   0.000000 [a0]

Properties computed using the SCF density matrix

  Nuclear Dipole Moment: [e a0]
     X:     0.0000      Y:     0.0000      Z:     0.0000

  Electronic Dipole Moment: [e a0]
     X:     0.0000      Y:     0.0000      Z:     0.0000

  Dipole Moment: [e a0]
     X:     0.0000      Y:     0.0000      Z:     0.0000     Total:     0.0000

  Dipole Moment: [D]
     X:     0.0000      Y:     0.0000      Z:     0.0000     Total:     0.0000


*** tstop() called on juan-pablo.wireless.emory.edu at Tue Apr 23 10:07:19 2019
Module time:
	user time   =       0.27 seconds =       0.00 minutes
	system time =       0.02 seconds =       0.00 minutes
	total time  =          1 seconds =       0.02 minutes
Total time:
	user time   =       0.27 seconds =       0.00 minutes
	system time =       0.02 seconds =       0.00 minutes
	total time  =          1 seconds =       0.02 minutes

*** tstart() called on juan-pablo.wireless.emory.edu
*** at Tue Apr 23 10:07:19 2019

   => Loading Basis Set <=

    Name: DZ
    Role: ORBITAL
    Keyword: BASIS
    atoms 1-2 entry LI         line    20 file /Users/jeffschriber/src/psi4-debug-install/share/psi4/basis/dz.gbs 


         ---------------------------------------------------------
                                   SCF
               by Justin Turney, Rob Parrish, Andy Simmonett
                          and Daniel G. A. Smith
                             ROHF Reference
                        1 Threads,    500 MiB Core
         ---------------------------------------------------------

  ==> Geometry <==

    Molecular point group: d2h
    Full point group: D_inf_h

    Geometry (in Angstrom), charge = 0, multiplicity = 1:

       Center              X                  Y                   Z               Mass       
    ------------   -----------------  -----------------  -----------------  -----------------
         LI           0.000000000000     0.000000000000    -1.000000000000     7.016003436600
         LI           0.000000000000     0.000000000000     1.000000000000     7.016003436600

  Running in d2h symmetry.

  Rotational constants: A = ************  B =      1.20137  C =      1.20137 [cm^-1]
  Rotational constants: A = ************  B =  36016.16030  C =  36016.16030 [MHz]
  Nuclear repulsion =    2.381297448014998

  Charge       = 0
  Multiplicity = 1
  Electrons    = 6
  Nalpha       = 3
  Nbeta        = 3

  ==> Algorithm <==

  SCF Algorithm Type is PK.
  DIIS enabled.
  MOM disabled.
  Fractional occupation disabled.
  Guess Type is GWH.
  Energy threshold   = 1.00e-10
  Density threshold  = 1.00e-10
  Integral threshold = 0.00e+00

  ==> Primary Basis <==

  Basis Set: DZ
    Blend: DZ
    Number of shells: 12
    Number of basis function: 20
    Number of Cartesian functions: 20
    Spherical Harmonics?: false
    Max angular momentum: 1

  ==> Pre-Iterations <==

   -------------------------------------------------------
    Irrep   Nso     Nmo     Nalpha   Nbeta   Ndocc  Nsocc
   -------------------------------------------------------
     Ag         6       6       0       0       0       0
     B1g        0       0       0       0       0       0
     B2g        2       2       0       0       0       0
     B3g        2       2       0       0       0       0
     Au         0       0       0       0       0       0
     B1u        6       6       0       0       0       0
     B2u        2       2       0       0       0       0
     B3u        2       2       0       0       0       0
   -------------------------------------------------------
    Total      20      20       3       3       3       0
   -------------------------------------------------------

  ==> Integral Setup <==

  Using in-core PK algorithm.
   Calculation information:
      Number of atoms:                   2
      Number of AO shells:              12
      Number of primitives:             26
      Number of atomic orbitals:        20
      Number of basis functions:        20

      Integral cutoff                 1.00e-12
      Number of threads:                 1

  Performing in-core PK
  Using 44310 doubles for integral storage.
  We computed 3081 shell quartets total.
  Whereas there are 3081 unique shell quartets.

  ==> DiskJK: Disk-Based J/K Matrices <==

    J tasked:                  Yes
    K tasked:                  Yes
    wK tasked:                  No
    Memory [MiB]:              375
    Schwarz Cutoff:          1E-12

    OpenMP threads:              1

  Minimum eigenvalue in the overlap matrix is 1.9077688868E-03.
  Using Symmetric Orthogonalization.

  SCF Guess: Generalized Wolfsberg-Helmholtz.

  ==> Iterations <==

                        Total Energy        Delta E     RMS |[F,P]|

    Occupation by irrep:
             Ag   B1g   B2g   B3g    Au   B1u   B2u   B3u 
    DOCC [     2,    0,    0,    0,    0,    1,    0,    0 ]
    SOCC [     0,    0,    0,    0,    0,    0,    0,    0 ]

   @ROHF iter   1:   -13.86328592226844   -1.38633e+01   9.38367e-02 DIIS
   @ROHF iter   2:   -14.83151256644318   -9.68227e-01   5.72002e-03 DIIS
   @ROHF iter   3:   -14.83897650580172   -7.46394e-03   1.05869e-03 DIIS
   @ROHF iter   4:   -14.83973801876335   -7.61513e-04   3.60085e-04 DIIS
   @ROHF iter   5:   -14.83984352118057   -1.05502e-04   5.52298e-05 DIIS
   @ROHF iter   6:   -14.83984643708390   -2.91590e-06   9.06964e-06 DIIS
   @ROHF iter   7:   -14.83984651201008   -7.49262e-08   4.58804e-08 DIIS
   @ROHF iter   8:   -14.83984651201064   -5.57776e-13   5.89178e-09 DIIS
   @ROHF iter   9:   -14.83984651201067   -2.48690e-14   1.60078e-09 DIIS
   @ROHF iter  10:   -14.83984651201067   -7.10543e-15   6.74061e-11 DIIS
  Energy and wave function converged.


  ==> Post-Iterations <==

    Orbital Energies [Eh]
    ---------------------

    Doubly Occupied:                                                      

       1Ag    -2.470948     1B1u   -2.465815     2Ag    -0.194380  

    Singly Occupied:                                                      

    

    Virtual:                                                              

       2B1u    0.012721     1B2u    0.026034     1B3u    0.026034  
       3Ag     0.049075     1B2g    0.069563     1B3g    0.069563  
       3B1u    0.080420     4Ag     0.130086     2B2u    0.137741  
       2B3u    0.137741     5Ag     0.171764     2B2g    0.242777  
       2B3g    0.242777     4B1u    0.246004     5B1u    0.480486  
       6Ag     1.695539     6B1u    1.801802  

    Final Occupation by Irrep:
             Ag   B1g   B2g   B3g    Au   B1u   B2u   B3u 
    DOCC [     2,    0,    0,    0,    0,    1,    0,    0 ]
    SOCC [     0,    0,    0,    0,    0,    0,    0,    0 ]

  @ROHF Final Energy:   -14.83984651201067

   => Energetics <=

    Nuclear Repulsion Energy =              2.3812974480149975
    One-Electron Energy =                 -24.1800018423486094
    Two-Electron Energy =                   6.9588578823229374
    Total Energy =                        -14.8398465120106735

Computation Completed


Properties will be evaluated at   0.000000,   0.000000,   0.000000 [a0]

Properties computed using the SCF density matrix

  Nuclear Dipole Moment: [e a0]
     X:     0.0000      Y:     0.0000      Z:     0.0000

  Electronic Dipole Moment: [e a0]
     X:     0.0000      Y:     0.0000      Z:     0.0000

  Dipole Moment: [e a0]
     X:     0.0000      Y:     0.0000      Z:     0.0000     Total:     0.0000

  Dipole Moment: [D]
     X:     0.0000      Y:     0.0000      Z:     0.0000     Total:     0.0000


*** tstop() called on juan-pablo.wireless.emory.edu at Tue Apr 23 10:07:19 2019
Module time:
	user time   =       0.18 seconds =       0.00 minutes
	system time =       0.01 seconds =       0.00 minutes
	total time  =          0 seconds =       0.00 minutes
Total time:
	user time   =       0.47 seconds =       0.01 minutes
	system time =       0.03 seconds =       0.00 minutes
	total time  =          1 seconds =       0.02 minutes
   => Loading Basis Set <=

    Name: STO-3G
    Role: ORBITAL
    Keyword: MINAO_BASIS
    atoms 1-2 entry LI         line    31 file /Users/jeffschriber/src/psi4-debug-install/share/psi4/basis/sto-3g.gbs 


  Forte
  ----------------------------------------------------------------------------
  A suite of quantum chemistry methods for strongly correlated electrons

    git branch: aci-cleanup - git commit: 8858ca08

  Developed by:
    Francesco A. Evangelista, Chenyang Li, Kevin P. Hannon,
    Jeffrey B. Schriber, Tianyuan Zhang, Chenxi Cai,
    Nan He, Nicholas Stair, Shuhe Wang, Renke Huang
  ----------------------------------------------------------------------------

  Size of Determinant class: 16

  ==> MO Space Information <==

  -------------------------------------------------------------------------
                       Ag   B1g   B2g   B3g    Au   B1u   B2u   B3u   Sum
  -------------------------------------------------------------------------
    FROZEN_DOCC         0     0     0     0     0     0     0     0     0
    RESTRICTED_DOCC     0     0     0     0     0     0     0     0     0
    ACTIVE              6     0     2     2     0     6     2     2    20
    RESTRICTED_UOCC     0     0     0     0     0     0     0     0     0
    FROZEN_UOCC         0     0     0     0     0     0     0     0     0
    Total               6     0     2     2     0     6     2     2    20
  -------------------------------------------------------------------------

  ==> Integral Transformation <==

  Number of molecular orbitals:                    20
  Number of correlated molecular orbitals:         20
  Number of frozen occupied orbitals:               0
  Number of frozen unoccupied orbitals:             0
  Two-electron integral type:              Conventional


  Overall Conventional Integrals timings

	Presorting SO-basis two-electron integrals.
	Sorting File: SO Ints (nn|nn) nbuckets = 1
	Transforming the one-electron integrals and constructing Fock matrices
	Starting first half-transformation.
	Sorting half-transformed integrals.
	First half integral transformation complete.
	Starting second half-transformation.
	Two-electron integral transformation complete.

  Integral transformation done. 0.01734823 s
  Reading the two-electron integrals from disk
  Size of two-electron integrals:   0.003576 GB
  Timing for freezing core and virtual orbitals:              0.000 s.
  Conventional integrals take 0.07346097 s

  ==> Summary of Active Space Solver Input <==

    Irrep.  Multi.  Nstates
    -------------------------
      Ag       1        1
    -------------------------
    Total number of states: 1
    -------------------------


-------------------------------------------------------------------------------
               Selected Configuration Interaction Excited States
  written by Jeffrey B. Schriber, Tianyuan Zhang and Francesco A. Evangelista
-------------------------------------------------------------------------------

  ==> Reference Information <==

  ==> Calculation Information <==

  -----------------------------------------------------------------
    Multiplicity                             1    
    Symmetry                                 0    
    Number of roots                          1    
    Ms                                       0
    Excited Algorithm                        ROOT_ORTHOGONALIZE
  -----------------------------------------------------------------
  Using 1 threads
  Computing wavefunction for root 0

        ---------------------------------------------------------------
                      Adaptive Configuration Interaction
          written by Jeffrey B. Schriber and Francesco A. Evangelista
        ---------------------------------------------------------------

  ==> Reference Information <==

  There are 0 frozen orbitals.
  There are 20 active orbitals.

  ==> Calculation Information <==

  -----------------------------------------------------------------
    Multiplicity                             1    
    Symmetry                                 0    
    Number of roots                          1    
    Root used for properties                 0    
    Sigma (Eh)                               1.00e-03
    Gamma (Eh^(-1))                          1.00e+00
    Convergence threshold                    1.00e-09
    Ms                                       0
    Diagonalization algorithm                SOLVER
    Determinant selection criterion          Second-order Energy
    Selection criterion                      Aimed selection
    Excited Algorithm                        ROOT_ORTHOGONALIZE
    Project out spin contaminants            True
    Enforce spin completeness of basis       False
    Enforce complete aimed selection         True
  -----------------------------------------------------------------
  Number of active alpha electrons: 3
  Number of active beta electrons: 3
  Maximum reference space size: 1000
  |22000000002000000000>
  Using streamlined Q-space builder.

  ==> Cycle 0 <==

  Initial P space dimension: 1
  Not checking for spin-completeness.

  ==> Computing Coupling Lists <==
  --------------------------------
        α          0.000026 s
        β          0.000009 s
        αα         0.000020 s
        ββ         0.000011 s
        αβ         0.000020 s
  --------------------------------
  Time spent diagonalizing H:   0.000070 s

    P-space  CI Energy Root   0        = -14.839846512011 Eh =   0.0000 eV

  Time spent forming F space:             0.000577
  Time spent merging thread F spaces:             0.000329
  Time spent preparing PQ_space: 0.000005
  Dimension of the SD space: 683 determinants
  Time spent building the external space (default): 0.001003 s

  Time spent building sorting list: 0.001696
  Time spent sorting: 0.000103
  Added 1 missing determinants in aimed selection.
  Time spent selecting: 0.000116
  Dimension of the P + Q space: 126 determinants
  Time spent screening the model space: 0.001948 s
  Time spent building the model space: 0.003026

  ==> Computing Coupling Lists <==
  --------------------------------
        α          0.000541 s
        β          0.000560 s
        αα         0.000559 s
        ββ         0.000546 s
        αβ         0.001630 s
  --------------------------------
  Total time spent diagonalizing H:   0.017581 s

    PQ-space CI Energy Root   0        = -14.887247841389 Eh =   0.0000 eV
    PQ-space CI Energy + EPT2 Root   0 = -14.888239879644 Eh =   0.0000 eV


  Most important contributions to root   0:
    0  -0.944975 0.892978111           0 |22000000002000000000>
    1   0.142149 0.020206276         123 |20000000002000002000>
    2   0.142149 0.020206276         124 |20000000002000000020>
    3   0.096606 0.009332809         122 |2000000000200000-+00>
    4   0.096606 0.009332809         121 |2000000000200000+-00>
    5   0.096606 0.009332809         120 |200000000020000000-+>
    6   0.096606 0.009332809         119 |200000000020000000+->
    7   0.068108 0.004638718         117 |20000000002000000200>
    8   0.068108 0.004638718         118 |20000000002000000002>
    9   0.056320 0.003171984         116 |20020000002000000000>

  Spin state for root 0: S^2 = 0.000041, S = 0.000, singlet
  Cycle 0 took: 0.026057 s

  ==> Cycle 1 <==

  Initial P space dimension: 38
  Not checking for spin-completeness.

  ==> Computing Coupling Lists <==
  --------------------------------
        α          0.000175 s
        β          0.000170 s
        αα         0.000177 s
        ββ         0.000169 s
        αβ         0.000489 s
  --------------------------------
  Time spent diagonalizing H:   0.002406 s

    P-space  CI Energy Root   0        = -14.883654851185 Eh =   0.0000 eV

  Time spent forming F space:             0.032929
  Time spent merging thread F spaces:             0.012479
  Time spent preparing PQ_space: 0.000050
  Dimension of the SD space: 11465 determinants
  Time spent building the external space (default): 0.046623 s

  Time spent building sorting list: 0.027474
  Time spent sorting: 0.002284
  Added 3 missing determinants in aimed selection.
  Time spent selecting: 0.000405
  Dimension of the P + Q space: 272 determinants
  Time spent screening the model space: 0.030337 s
  Time spent building the model space: 0.077783

  ==> Computing Coupling Lists <==
  --------------------------------
        α          0.001142 s
        β          0.001233 s
        αα         0.001196 s
        ββ         0.001400 s
        αβ         0.003040 s
  --------------------------------

  Davidson-Liu solver algorithm
  Using SPARSE sigma builder
  Initial guess space is incomplete!
  Trying to add 36 determinant(s).  0 determinant(s) added.
  Found a guess vector with spin not close to integer value (4.123106)
  Found a guess vector with spin not close to integer value (4.123106)
  Found a guess vector with spin not close to integer value (4.123106)
  Found a guess vector with spin not close to integer value (4.123106)
  Initial guess found 46 solutions with 2S+1 = 1 *
  Initial guess found 50 solutions with 2S+1 = 3  
  Adding guess 0 (multiplicity = 1.000000)
  Adding guess 1 (multiplicity = 1.000000)

  ==> Diagonalizing Hamiltonian <==

  ----------------------------------------
    Iter.      Avg. Energy       Delta_E
  ----------------------------------------
      1      -17.254285066726  -1.725e+01
      2      -17.270271332503  -1.599e-02
      3      -17.270365381963  -9.405e-05
      4      -17.270368556542  -3.175e-06
      5      -17.270368832086  -2.755e-07
      6      -17.270368836089  -4.003e-09
      7      -17.270368836274  -1.850e-10
      8      -17.270368836286  -1.260e-11
  ----------------------------------------
  The Davidson-Liu algorithm converged in 9 iterations.
  Davidson-Liu procedure took  0.052540 s
  Total time spent diagonalizing H:   0.053380 s

    PQ-space CI Energy Root   0        = -14.889071388271 Eh =   0.0000 eV
    PQ-space CI Energy + EPT2 Root   0 = -14.890069249386 Eh =   0.0000 eV


  Most important contributions to root   0:
    0   0.939415 0.882500258          37 |22000000002000000000>
    1  -0.149850 0.022455086          36 |20000000002000002000>
    2  -0.149850 0.022455086          35 |20000000002000000020>
    3  -0.102419 0.010489620          34 |2000000000200000-+00>
    4  -0.102419 0.010489620          33 |2000000000200000+-00>
    5  -0.102419 0.010489620          31 |200000000020000000+->
    6  -0.102419 0.010489620          32 |200000000020000000-+>
    7  -0.071857 0.005163418          30 |20000000002000000200>
    8  -0.071857 0.005163418          29 |20000000002000000002>
    9  -0.056314 0.003171296          28 |20020000002000000000>

  Spin state for root 0: S^2 = 0.000013, S = 0.000, singlet
  Cycle 1 took: 0.145062 s

  ==> Cycle 2 <==

  Initial P space dimension: 46
  Not checking for spin-completeness.

  ==> Computing Coupling Lists <==
  --------------------------------
        α          0.000226 s
        β          0.000199 s
        αα         0.000202 s
        ββ         0.000196 s
        αβ         0.000571 s
  --------------------------------
  Time spent diagonalizing H:   0.003633 s

    P-space  CI Energy Root   0        = -14.884003078619 Eh =   0.0000 eV

  Time spent forming F space:             0.041724
  Time spent merging thread F spaces:             0.013590
  Time spent preparing PQ_space: 0.000057
  Dimension of the SD space: 12341 determinants
  Time spent building the external space (default): 0.056591 s

  Time spent building sorting list: 0.029848
  Time spent sorting: 0.002390
  Time spent selecting: 0.000393
  Dimension of the P + Q space: 271 determinants
  Time spent screening the model space: 0.032816 s
  Time spent building the model space: 0.090271

  ==> Computing Coupling Lists <==
  --------------------------------
        α          0.001141 s
        β          0.001153 s
        αα         0.001202 s
        ββ         0.001129 s
        αβ         0.002991 s
  --------------------------------

  Davidson-Liu solver algorithm
  Using SPARSE sigma builder
  Initial guess space is incomplete!
  Trying to add 48 determinant(s).  4 determinant(s) added.
  Found a guess vector with spin not close to integer value (4.123106)
  Found a guess vector with spin not close to integer value (4.123106)
  Found a guess vector with spin not close to integer value (4.123106)
  Found a guess vector with spin not close to integer value (4.123106)
  Initial guess found 46 solutions with 2S+1 = 1 *
  Initial guess found 54 solutions with 2S+1 = 3  
  Adding guess 0 (multiplicity = 1.000000)
  Adding guess 1 (multiplicity = 1.000000)

  ==> Diagonalizing Hamiltonian <==

  ----------------------------------------
    Iter.      Avg. Energy       Delta_E
  ----------------------------------------
      1      -17.254285066726  -1.725e+01
      2      -17.270250254249  -1.597e-02
      3      -17.270345287375  -9.503e-05
      4      -17.270348606409  -3.319e-06
      5      -17.270348893400  -2.870e-07
      6      -17.270348897511  -4.111e-09
      7      -17.270348897768  -2.571e-10
      8      -17.270348897791  -2.306e-11
  ----------------------------------------
  The Davidson-Liu algorithm converged in 9 iterations.
  Davidson-Liu procedure took  0.134381 s
  Total time spent diagonalizing H:   0.135285 s

    PQ-space CI Energy Root   0        = -14.889051449776 Eh =   0.0000 eV
    PQ-space CI Energy + EPT2 Root   0 = -14.890048359302 Eh =   0.0000 eV


  Most important contributions to root   0:
    0   0.939440 0.882548448          45 |22000000002000000000>
    1  -0.149931 0.022479257          44 |20000000002000000020>
    2  -0.149931 0.022479257          43 |20000000002000002000>
    3  -0.102456 0.010497290          42 |2000000000200000+-00>
    4  -0.102456 0.010497290          41 |2000000000200000-+00>
    5  -0.102456 0.010497290          40 |200000000020000000+->
    6  -0.102456 0.010497290          39 |200000000020000000-+>
    7  -0.071881 0.005166898          38 |20000000002000000200>
    8  -0.071881 0.005166898          37 |20000000002000000002>
    9  -0.056302 0.003169862          36 |20020000002000000000>

  Spin state for root 0: S^2 = 0.000009, S = 0.000, singlet
  Cycle 2 took: 0.241201 s

  ==> Cycle 3 <==

  Initial P space dimension: 46
  Not checking for spin-completeness.

  ==> Computing Coupling Lists <==
  --------------------------------
        α          0.000526 s
        β          0.000355 s
        αα         0.000992 s
        ββ         0.000269 s
        αβ         0.000670 s
  --------------------------------
  Time spent diagonalizing H:   0.005406 s

    P-space  CI Energy Root   0        = -14.884003078619 Eh =   0.0000 eV

  Time spent forming F space:             0.126856
  Time spent merging thread F spaces:             0.025784
  Time spent preparing PQ_space: 0.000085
  Dimension of the SD space: 12341 determinants
  Time spent building the external space (default): 0.155478 s

  Time spent building sorting list: 0.049844
  Time spent sorting: 0.002778
  Time spent selecting: 0.000443
  Dimension of the P + Q space: 271 determinants
  Time spent screening the model space: 0.053494 s
  Time spent building the model space: 0.210823

  ==> Computing Coupling Lists <==
  --------------------------------
        α          0.001649 s
        β          0.001993 s
        αα         0.001824 s
        ββ         0.001760 s
        αβ         0.004910 s
  --------------------------------

  Davidson-Liu solver algorithm
  Using SPARSE sigma builder
  Initial guess space is incomplete!
  Trying to add 48 determinant(s).  4 determinant(s) added.
  Found a guess vector with spin not close to integer value (4.123106)
  Found a guess vector with spin not close to integer value (4.123106)
  Found a guess vector with spin not close to integer value (4.123106)
  Found a guess vector with spin not close to integer value (4.123106)
  Initial guess found 46 solutions with 2S+1 = 1 *
  Initial guess found 54 solutions with 2S+1 = 3  
  Adding guess 0 (multiplicity = 1.000000)
  Adding guess 1 (multiplicity = 1.000000)

  ==> Diagonalizing Hamiltonian <==

  ----------------------------------------
    Iter.      Avg. Energy       Delta_E
  ----------------------------------------
      1      -17.254285066726  -1.725e+01
      2      -17.270250254249  -1.597e-02
      3      -17.270345287375  -9.503e-05
      4      -17.270348606409  -3.319e-06
      5      -17.270348893400  -2.870e-07
      6      -17.270348897511  -4.111e-09
      7      -17.270348897768  -2.571e-10
      8      -17.270348897791  -2.306e-11
  ----------------------------------------
  The Davidson-Liu algorithm converged in 9 iterations.
  Davidson-Liu procedure took  0.074316 s
  Total time spent diagonalizing H:   0.075216 s

    PQ-space CI Energy Root   0        = -14.889051449776 Eh =   0.0000 eV
    PQ-space CI Energy + EPT2 Root   0 = -14.890048359302 Eh =   0.0000 eV

  ***** Calculation Converged *****
  Saving root 0, ref_root is 0
  Number of old roots: 1

  ==> Excited state solver summary <==

  Iterations required:                         3
  Dimension of optimized determinant space:    271

  * Selected-CI Energy Root   0        = -14.889051449776 Eh =   0.0000 eV
  * Selected-CI Energy Root   0 + EPT2 = -14.890048359302 Eh =   0.0000 eV

  ==> Wavefunction Information <==

  Most important contributions to root   0:
    0   0.939440 0.882548448          45 |22000000002000000000>
    1  -0.149931 0.022479257          43 |20000000002000002000>
    2  -0.149931 0.022479257          44 |20000000002000000020>
    3  -0.102456 0.010497290          40 |200000000020000000+->
    4  -0.102456 0.010497290          39 |200000000020000000-+>
    5  -0.102456 0.010497290          42 |2000000000200000+-00>
    6  -0.102456 0.010497290          41 |2000000000200000-+00>
    7  -0.071881 0.005166898          37 |20000000002000000002>
    8  -0.071881 0.005166898          38 |20000000002000000200>
    9  -0.056302 0.003169862          36 |20020000002000000000>

  Spin state for root 0: S^2 = 0.000009, S = 0.000, singlet

  Saving information for root: 0

  ==> Energy Summary <==

    Multi.  Irrep.  No.               Energy
    -----------------------------------------
       1      Ag     0       -14.889051449776
    -----------------------------------------	ACI energy........................................................PASSED
	ACI+PT2 energy....................................................PASSED

    Psi4 stopped on: Tuesday, 23 April 2019 10:07AM
    Psi4 wall time for execution: 0:00:01.50

*** Psi4 exiting successfully. Buy a developer a beer!
