
    -----------------------------------------------------------------------
          Psi4: An Open-Source Ab Initio Electronic Structure Package
                               Psi4 undefined 

                         Git: Rev {master} 96046ad 


    R. M. Parrish, L. A. Burns, D. G. A. Smith, A. C. Simmonett,
    A. E. DePrince III, E. G. Hohenstein, U. Bozkaya, A. Yu. Sokolov,
    R. Di Remigio, R. M. Richard, J. F. Gonthier, A. M. James,
    H. R. McAlexander, A. Kumar, M. Saitow, X. Wang, B. P. Pritchard,
    P. Verma, H. F. Schaefer III, K. Patkowski, R. A. King, E. F. Valeev,
    F. A. Evangelista, J. M. Turney, T. D. Crawford, and C. D. Sherrill,
    J. Chem. Theory Comput. 13(7) pp 3185--3197 (2017).
    (doi: 10.1021/acs.jctc.7b00174)


                         Additional Contributions by
    P. Kraus, H. Kruse, M. H. Lechner, M. C. Schieber, and R. A. Shaw

    -----------------------------------------------------------------------


    Psi4 started on: Monday, 14 January 2019 05:14PM

    Process ID: 87503
    Host:       Nicks-MacBook-Pro.local
    PSIDATADIR: /Users/nstair/Src/new_psi4/std_instdir/share/psi4
    Memory:     500.0 MiB
    Threads:    1
    
  ==> Input File <==

--------------------------------------------------------------------------
#! Generated using commit GITCOMMIT

import forte

refscf = -37.43945401822133
reffci = -37.49081328115731

molecule {
0 2
C
H 1 1.0
units bohr
}

set {
  basis 6-31G
  scf_type pk
  reference rohf
  e_convergence 12
}

energy('scf')
compare_values(refscf, variable("CURRENT ENERGY"),11, "SCF energy") #TEST

set forte {
  job_type fci
  root_sym 3
  ms = 0.5
}

energy('forte')
compare_values(reffci, variable("CURRENT ENERGY"),11, "FCI energy (M_S =  1/2)") #TEST

set forte {
  active_space_solver fci
  root_sym 3
  ms = -0.5
}

energy('forte')
compare_values(reffci, variable("CURRENT ENERGY"),11, "FCI energy (M_S = -1/2)") #TEST

clean()

# Test triplet manifold of CH+

refscf_triplet = -37.066693498042760
reffci_triplet = -37.088876452204509

molecule {
1 3
C
H 1 1.0
units bohr
}

scf_triplet = energy('scf')
compare_values(refscf_triplet, variable("CURRENT ENERGY"),11, "SCF energy") #TEST

set forte {
  job_type fci
  root_sym 3
  ms = 1.0
}

energy('forte')
compare_values(reffci_triplet, variable("CURRENT ENERGY"),11, "FCI energy (M_S =  1)") #TEST

set forte {
  job_type fci
  root_sym 3
  ms = 0.0
}

energy('forte')
compare_values(reffci_triplet, variable("CURRENT ENERGY"),11, "FCI energy (M_S =  0)") #TEST

set forte {
  job_type fci
  root_sym 3
  ms = -1.0
}

energy('forte')
compare_values(reffci_triplet, variable("CURRENT ENERGY"),11, "FCI energy (M_S = -1)") #TEST
--------------------------------------------------------------------------

*** tstart() called on Nicks-MacBook-Pro.local
*** at Mon Jan 14 17:14:52 2019

   => Loading Basis Set <=

    Name: 6-31G
    Role: ORBITAL
    Keyword: BASIS
    atoms 1 entry C          line    87 file /Users/nstair/Src/new_psi4/std_instdir/share/psi4/basis/6-31g.gbs 
    atoms 2 entry H          line    26 file /Users/nstair/Src/new_psi4/std_instdir/share/psi4/basis/6-31g.gbs 


         ---------------------------------------------------------
                                   SCF
            by Justin Turney, Rob Parrish, Andy Simmonett
                             and Daniel Smith
                             ROHF Reference
                        1 Threads,    500 MiB Core
         ---------------------------------------------------------

  ==> Geometry <==

    Molecular point group: c2v
    Full point group: C_inf_v

    Geometry (in Bohr), charge = 0, multiplicity = 2:

       Center              X                  Y                   Z               Mass       
    ------------   -----------------  -----------------  -----------------  -----------------
         C            0.000000000000     0.000000000000    -0.077478366271    12.000000000000
         H            0.000000000000     0.000000000000     0.922521633729     1.007825032230

  Running in c2v symmetry.

  Rotational constants: A = ************  B =     64.74892  C =     64.74892 [cm^-1]
  Rotational constants: A = ************  B = 1941123.79451  C = 1941123.79451 [MHz]
  Nuclear repulsion =    6.000000000000000

  Charge       = 0
  Multiplicity = 2
  Electrons    = 7
  Nalpha       = 4
  Nbeta        = 3

  ==> Algorithm <==

  SCF Algorithm Type is PK.
  DIIS enabled.
  MOM disabled.
  Fractional occupation disabled.
  Guess Type is GWH.
  Energy threshold   = 1.00e-12
  Density threshold  = 1.00e-06
  Integral threshold = 0.00e+00

  ==> Primary Basis <==

  Basis Set: 6-31G
    Blend: 6-31G
    Number of shells: 7
    Number of basis function: 11
    Number of Cartesian functions: 11
    Spherical Harmonics?: false
    Max angular momentum: 1

  ==> Pre-Iterations <==

   -------------------------------------------------------
    Irrep   Nso     Nmo     Nalpha   Nbeta   Ndocc  Nsocc
   -------------------------------------------------------
     A1         7       7       0       0       0       0
     A2         0       0       0       0       0       0
     B1         2       2       0       0       0       0
     B2         2       2       0       0       0       0
   -------------------------------------------------------
    Total      11      11       4       3       3       1
   -------------------------------------------------------

  ==> Integral Setup <==

  Using in-core PK algorithm.
   Calculation information:
      Number of atoms:                   2
      Number of AO shells:               7
      Number of primitives:             18
      Number of atomic orbitals:        11
      Number of basis functions:        11

      Integral cutoff                 1.00e-12
      Number of threads:                 1

  Performing in-core PK
  Using 4422 doubles for integral storage.
  We computed 406 shell quartets total.
  Whereas there are 406 unique shell quartets.

  ==> DiskJK: Disk-Based J/K Matrices <==

    J tasked:                  Yes
    K tasked:                  Yes
    wK tasked:                  No
    Memory [MiB]:              375
    Schwarz Cutoff:          1E-12

    OpenMP threads:              1

  Minimum eigenvalue in the overlap matrix is 4.5543576797E-03.
  Using Symmetric Orthogonalization.

  SCF Guess: Generalized Wolfsberg-Helmholtz.

  ==> Iterations <==

                        Total Energy        Delta E     RMS |[F,P]|

   @ROHF iter   1:   -37.34796248722655   -3.73480e+01   5.01315e-02 
   @ROHF iter   2:   -37.43724373979510   -8.92813e-02   6.11326e-03 DIIS
   @ROHF iter   3:   -37.43931266529869   -2.06893e-03   1.00305e-03 DIIS
   @ROHF iter   4:   -37.43944247821931   -1.29813e-04   2.85657e-04 DIIS
   @ROHF iter   5:   -37.43945389631263   -1.14181e-05   3.10673e-05 DIIS
   @ROHF iter   6:   -37.43945401778996   -1.21477e-07   2.08687e-06 DIIS
   @ROHF iter   7:   -37.43945401820909   -4.19135e-10   2.94690e-07 DIIS
   @ROHF iter   8:   -37.43945401822126   -1.21645e-11   2.45040e-08 DIIS
   @ROHF iter   9:   -37.43945401822134   -8.52651e-14   4.07046e-09 DIIS
  Energy converged.


  ==> Post-Iterations <==

    Orbital Energies [Eh]
    ---------------------

    Doubly Occupied:                                                      

       1A1   -11.331732     2A1    -1.059599     3A1    -0.454646  

    Singly Occupied:                                                      

       1B1    -0.123607  

    Virtual:                                                              

       1B2     0.073825     4A1     0.329398     5A1     0.647687  
       2B1     0.758697     2B2     0.789443     6A1     0.944490  
       7A1     2.733141  

    Final Occupation by Irrep:
             A1    A2    B1    B2 
    DOCC [     3,    0,    0,    0 ]
    SOCC [     0,    0,    1,    0 ]

  @ROHF Final Energy:   -37.43945401822134

   => Energetics <=

    Nuclear Repulsion Energy =              6.0000000000000000
    One-Electron Energy =                 -60.7660729177809671
    Two-Electron Energy =                  17.3266188995596302
    Total Energy =                        -37.4394540182213404

Computation Completed


Properties will be evaluated at   0.000000,   0.000000,   0.000000 [a0]

Properties computed using the SCF density matrix

  Nuclear Dipole Moment: [e a0]
     X:     0.0000      Y:     0.0000      Z:     0.4577

  Electronic Dipole Moment: [e a0]
     X:     0.0000      Y:     0.0000      Z:     0.3948

  Dipole Moment: [e a0]
     X:     0.0000      Y:     0.0000      Z:     0.8525     Total:     0.8525

  Dipole Moment: [D]
     X:     0.0000      Y:     0.0000      Z:     2.1668     Total:     2.1668


*** tstop() called on Nicks-MacBook-Pro.local at Mon Jan 14 17:14:52 2019
Module time:
	user time   =       0.09 seconds =       0.00 minutes
	system time =       0.01 seconds =       0.00 minutes
	total time  =          0 seconds =       0.00 minutes
Total time:
	user time   =       0.09 seconds =       0.00 minutes
	system time =       0.01 seconds =       0.00 minutes
	total time  =          0 seconds =       0.00 minutes
	SCF energy........................................................PASSED

*** tstart() called on Nicks-MacBook-Pro.local
*** at Mon Jan 14 17:14:52 2019

   => Loading Basis Set <=

    Name: 6-31G
    Role: ORBITAL
    Keyword: BASIS
    atoms 1 entry C          line    87 file /Users/nstair/Src/new_psi4/std_instdir/share/psi4/basis/6-31g.gbs 
    atoms 2 entry H          line    26 file /Users/nstair/Src/new_psi4/std_instdir/share/psi4/basis/6-31g.gbs 


         ---------------------------------------------------------
                                   SCF
            by Justin Turney, Rob Parrish, Andy Simmonett
                             and Daniel Smith
                             ROHF Reference
                        1 Threads,    500 MiB Core
         ---------------------------------------------------------

  ==> Geometry <==

    Molecular point group: c2v
    Full point group: C_inf_v

    Geometry (in Bohr), charge = 0, multiplicity = 2:

       Center              X                  Y                   Z               Mass       
    ------------   -----------------  -----------------  -----------------  -----------------
         C            0.000000000000     0.000000000000    -0.077478366271    12.000000000000
         H            0.000000000000     0.000000000000     0.922521633729     1.007825032230

  Running in c2v symmetry.

  Rotational constants: A = ************  B =     64.74892  C =     64.74892 [cm^-1]
  Rotational constants: A = ************  B = 1941123.79451  C = 1941123.79451 [MHz]
  Nuclear repulsion =    6.000000000000000

  Charge       = 0
  Multiplicity = 2
  Electrons    = 7
  Nalpha       = 4
  Nbeta        = 3

  ==> Algorithm <==

  SCF Algorithm Type is PK.
  DIIS enabled.
  MOM disabled.
  Fractional occupation disabled.
  Guess Type is GWH.
  Energy threshold   = 1.00e-12
  Density threshold  = 1.00e-08
  Integral threshold = 0.00e+00

  ==> Primary Basis <==

  Basis Set: 6-31G
    Blend: 6-31G
    Number of shells: 7
    Number of basis function: 11
    Number of Cartesian functions: 11
    Spherical Harmonics?: false
    Max angular momentum: 1

  ==> Pre-Iterations <==

   -------------------------------------------------------
    Irrep   Nso     Nmo     Nalpha   Nbeta   Ndocc  Nsocc
   -------------------------------------------------------
     A1         7       7       0       0       0       0
     A2         0       0       0       0       0       0
     B1         2       2       0       0       0       0
     B2         2       2       0       0       0       0
   -------------------------------------------------------
    Total      11      11       4       3       3       1
   -------------------------------------------------------

  ==> Integral Setup <==

  Using in-core PK algorithm.
   Calculation information:
      Number of atoms:                   2
      Number of AO shells:               7
      Number of primitives:             18
      Number of atomic orbitals:        11
      Number of basis functions:        11

      Integral cutoff                 1.00e-12
      Number of threads:                 1

  Performing in-core PK
  Using 4422 doubles for integral storage.
  We computed 406 shell quartets total.
  Whereas there are 406 unique shell quartets.

  ==> DiskJK: Disk-Based J/K Matrices <==

    J tasked:                  Yes
    K tasked:                  Yes
    wK tasked:                  No
    Memory [MiB]:              375
    Schwarz Cutoff:          1E-12

    OpenMP threads:              1

  Minimum eigenvalue in the overlap matrix is 4.5543576797E-03.
  Using Symmetric Orthogonalization.

  SCF Guess: Generalized Wolfsberg-Helmholtz.

  ==> Iterations <==

                        Total Energy        Delta E     RMS |[F,P]|

   @ROHF iter   1:   -37.34796248722655   -3.73480e+01   5.01315e-02 
   @ROHF iter   2:   -37.43724373979511   -8.92813e-02   6.11326e-03 DIIS
   @ROHF iter   3:   -37.43931266529869   -2.06893e-03   1.00305e-03 DIIS
   @ROHF iter   4:   -37.43944247821931   -1.29813e-04   2.85657e-04 DIIS
   @ROHF iter   5:   -37.43945389631263   -1.14181e-05   3.10673e-05 DIIS
   @ROHF iter   6:   -37.43945401778997   -1.21477e-07   2.08687e-06 DIIS
   @ROHF iter   7:   -37.43945401820910   -4.19128e-10   2.94690e-07 DIIS
   @ROHF iter   8:   -37.43945401822127   -1.21716e-11   2.45040e-08 DIIS
   @ROHF iter   9:   -37.43945401822133   -5.68434e-14   4.07046e-09 DIIS
  Energy converged.


  ==> Post-Iterations <==

    Orbital Energies [Eh]
    ---------------------

    Doubly Occupied:                                                      

       1A1   -11.331732     2A1    -1.059599     3A1    -0.454646  

    Singly Occupied:                                                      

       1B1    -0.123607  

    Virtual:                                                              

       1B2     0.073825     4A1     0.329398     5A1     0.647687  
       2B1     0.758697     2B2     0.789443     6A1     0.944490  
       7A1     2.733141  

    Final Occupation by Irrep:
             A1    A2    B1    B2 
    DOCC [     3,    0,    0,    0 ]
    SOCC [     0,    0,    1,    0 ]

  @ROHF Final Energy:   -37.43945401822133

   => Energetics <=

    Nuclear Repulsion Energy =              6.0000000000000000
    One-Electron Energy =                 -60.7660729177809529
    Two-Electron Energy =                  17.3266188995596231
    Total Energy =                        -37.4394540182213262

Computation Completed


Properties will be evaluated at   0.000000,   0.000000,   0.000000 [a0]

Properties computed using the SCF density matrix

  Nuclear Dipole Moment: [e a0]
     X:     0.0000      Y:     0.0000      Z:     0.4577

  Electronic Dipole Moment: [e a0]
     X:     0.0000      Y:     0.0000      Z:     0.3948

  Dipole Moment: [e a0]
     X:     0.0000      Y:     0.0000      Z:     0.8525     Total:     0.8525

  Dipole Moment: [D]
     X:     0.0000      Y:     0.0000      Z:     2.1668     Total:     2.1668


*** tstop() called on Nicks-MacBook-Pro.local at Mon Jan 14 17:14:52 2019
Module time:
	user time   =       0.08 seconds =       0.00 minutes
	system time =       0.01 seconds =       0.00 minutes
	total time  =          0 seconds =       0.00 minutes
Total time:
	user time   =       0.17 seconds =       0.00 minutes
	system time =       0.02 seconds =       0.00 minutes
	total time  =          0 seconds =       0.00 minutes
   => Loading Basis Set <=

    Name: STO-3G
    Role: ORBITAL
    Keyword: MINAO_BASIS
    atoms 1 entry C          line    61 file /Users/nstair/Src/new_psi4/std_instdir/share/psi4/basis/sto-3g.gbs 
    atoms 2 entry H          line    19 file /Users/nstair/Src/new_psi4/std_instdir/share/psi4/basis/sto-3g.gbs 


  Forte
  ----------------------------------------------------------------------------
  A suite of quantum chemistry methods for strongly correlated electrons

    git branch: astests - git commit: 572beab3

  Developed by:
    Francesco A. Evangelista, Chenyang Li, Kevin P. Hannon,
    Jeffrey B. Schriber, Tianyuan Zhang, Chenxi Cai,    Nan He, Nicholas Stair, Shuhe Wang, Renke Huang
  ----------------------------------------------------------------------------

  Size of Determinant class: 16

  ==> MO Space Information <==

  -------------------------------------------------
                       A1    A2    B1    B2   Sum
  -------------------------------------------------
    FROZEN_DOCC         0     0     0     0     0
    RESTRICTED_DOCC     0     0     0     0     0
    ACTIVE              7     0     2     2    11
    RESTRICTED_UOCC     0     0     0     0     0
    FROZEN_UOCC         0     0     0     0     0
    Total               7     0     2     2    11
  -------------------------------------------------

  ==> Integral Transformation <==

  Number of molecular orbitals:                    11
  Number of correlated molecular orbitals:         11
  Number of frozen occupied orbitals:               0
  Number of frozen unoccupied orbitals:             0
  Two-electron integral type:              Conventional


  Overall Conventional Integrals timings


  Conventional integrals take 0.02385519 s

  ==> Summary of Active Space Solver Input <==


  ==> State Averaging Summary <==

    Irrep.  Multi.  Nstates  Weights
    --------------------------------
      B2       2        1      1.000
    --------------------------------
    Total number of states: 1
    --------------------------------

  Average Energy from 1 state(s): -37.490813281157060

  ==> Energy Summary <==

    Multi.  Irrep.  No.               Energy
    -----------------------------------------
       2      B2     0       -37.490813281157
    -----------------------------------------	FCI energy (M_S =  1/2)...........................................PASSED

*** tstart() called on Nicks-MacBook-Pro.local
*** at Mon Jan 14 17:14:53 2019

   => Loading Basis Set <=

    Name: 6-31G
    Role: ORBITAL
    Keyword: BASIS
    atoms 1 entry C          line    87 file /Users/nstair/Src/new_psi4/std_instdir/share/psi4/basis/6-31g.gbs 
    atoms 2 entry H          line    26 file /Users/nstair/Src/new_psi4/std_instdir/share/psi4/basis/6-31g.gbs 


         ---------------------------------------------------------
                                   SCF
            by Justin Turney, Rob Parrish, Andy Simmonett
                             and Daniel Smith
                             ROHF Reference
                        1 Threads,    500 MiB Core
         ---------------------------------------------------------

  ==> Geometry <==

    Molecular point group: c2v
    Full point group: C_inf_v

    Geometry (in Bohr), charge = 0, multiplicity = 2:

       Center              X                  Y                   Z               Mass       
    ------------   -----------------  -----------------  -----------------  -----------------
         C            0.000000000000     0.000000000000    -0.077478366271    12.000000000000
         H            0.000000000000     0.000000000000     0.922521633729     1.007825032230

  Running in c2v symmetry.

  Rotational constants: A = ************  B =     64.74892  C =     64.74892 [cm^-1]
  Rotational constants: A = ************  B = 1941123.79451  C = 1941123.79451 [MHz]
  Nuclear repulsion =    6.000000000000000

  Charge       = 0
  Multiplicity = 2
  Electrons    = 7
  Nalpha       = 4
  Nbeta        = 3

  ==> Algorithm <==

  SCF Algorithm Type is PK.
  DIIS enabled.
  MOM disabled.
  Fractional occupation disabled.
  Guess Type is GWH.
  Energy threshold   = 1.00e-12
  Density threshold  = 1.00e-08
  Integral threshold = 0.00e+00

  ==> Primary Basis <==

  Basis Set: 6-31G
    Blend: 6-31G
    Number of shells: 7
    Number of basis function: 11
    Number of Cartesian functions: 11
    Spherical Harmonics?: false
    Max angular momentum: 1

  ==> Pre-Iterations <==

   -------------------------------------------------------
    Irrep   Nso     Nmo     Nalpha   Nbeta   Ndocc  Nsocc
   -------------------------------------------------------
     A1         7       7       0       0       0       0
     A2         0       0       0       0       0       0
     B1         2       2       0       0       0       0
     B2         2       2       0       0       0       0
   -------------------------------------------------------
    Total      11      11       4       3       3       1
   -------------------------------------------------------

  ==> Integral Setup <==

  Using in-core PK algorithm.
   Calculation information:
      Number of atoms:                   2
      Number of AO shells:               7
      Number of primitives:             18
      Number of atomic orbitals:        11
      Number of basis functions:        11

      Integral cutoff                 1.00e-12
      Number of threads:                 1

  Performing in-core PK
  Using 4422 doubles for integral storage.
  We computed 406 shell quartets total.
  Whereas there are 406 unique shell quartets.

  ==> DiskJK: Disk-Based J/K Matrices <==

    J tasked:                  Yes
    K tasked:                  Yes
    wK tasked:                  No
    Memory [MiB]:              375
    Schwarz Cutoff:          1E-12

    OpenMP threads:              1

  Minimum eigenvalue in the overlap matrix is 4.5543576797E-03.
  Using Symmetric Orthogonalization.

  SCF Guess: Generalized Wolfsberg-Helmholtz.

  ==> Iterations <==

                        Total Energy        Delta E     RMS |[F,P]|

   @ROHF iter   1:   -37.34796248722655   -3.73480e+01   5.01315e-02 
   @ROHF iter   2:   -37.43724373979511   -8.92813e-02   6.11326e-03 DIIS
   @ROHF iter   3:   -37.43931266529871   -2.06893e-03   1.00305e-03 DIIS
   @ROHF iter   4:   -37.43944247821929   -1.29813e-04   2.85657e-04 DIIS
   @ROHF iter   5:   -37.43945389631261   -1.14181e-05   3.10673e-05 DIIS
   @ROHF iter   6:   -37.43945401778999   -1.21477e-07   2.08687e-06 DIIS
   @ROHF iter   7:   -37.43945401820908   -4.19085e-10   2.94690e-07 DIIS
   @ROHF iter   8:   -37.43945401822128   -1.22000e-11   2.45040e-08 DIIS
   @ROHF iter   9:   -37.43945401822133   -4.97380e-14   4.07047e-09 DIIS
  Energy converged.


  ==> Post-Iterations <==

    Orbital Energies [Eh]
    ---------------------

    Doubly Occupied:                                                      

       1A1   -11.331732     2A1    -1.059599     3A1    -0.454646  

    Singly Occupied:                                                      

       1B1    -0.123607  

    Virtual:                                                              

       1B2     0.073825     4A1     0.329398     5A1     0.647687  
       2B1     0.758697     2B2     0.789443     6A1     0.944490  
       7A1     2.733141  

    Final Occupation by Irrep:
             A1    A2    B1    B2 
    DOCC [     3,    0,    0,    0 ]
    SOCC [     0,    0,    1,    0 ]

  @ROHF Final Energy:   -37.43945401822133

   => Energetics <=

    Nuclear Repulsion Energy =              6.0000000000000000
    One-Electron Energy =                 -60.7660729177809529
    Two-Electron Energy =                  17.3266188995596302
    Total Energy =                        -37.4394540182213262

Computation Completed


Properties will be evaluated at   0.000000,   0.000000,   0.000000 [a0]

Properties computed using the SCF density matrix

  Nuclear Dipole Moment: [e a0]
     X:     0.0000      Y:     0.0000      Z:     0.4577

  Electronic Dipole Moment: [e a0]
     X:     0.0000      Y:     0.0000      Z:     0.3948

  Dipole Moment: [e a0]
     X:     0.0000      Y:     0.0000      Z:     0.8525     Total:     0.8525

  Dipole Moment: [D]
     X:     0.0000      Y:     0.0000      Z:     2.1668     Total:     2.1668


*** tstop() called on Nicks-MacBook-Pro.local at Mon Jan 14 17:14:53 2019
Module time:
	user time   =       0.08 seconds =       0.00 minutes
	system time =       0.01 seconds =       0.00 minutes
	total time  =          0 seconds =       0.00 minutes
Total time:
	user time   =       0.90 seconds =       0.02 minutes
	system time =       0.06 seconds =       0.00 minutes
	total time  =          1 seconds =       0.02 minutes
   => Loading Basis Set <=

    Name: STO-3G
    Role: ORBITAL
    Keyword: MINAO_BASIS
    atoms 1 entry C          line    61 file /Users/nstair/Src/new_psi4/std_instdir/share/psi4/basis/sto-3g.gbs 
    atoms 2 entry H          line    19 file /Users/nstair/Src/new_psi4/std_instdir/share/psi4/basis/sto-3g.gbs 


  Forte
  ----------------------------------------------------------------------------
  A suite of quantum chemistry methods for strongly correlated electrons

    git branch: astests - git commit: 572beab3

  Developed by:
    Francesco A. Evangelista, Chenyang Li, Kevin P. Hannon,
    Jeffrey B. Schriber, Tianyuan Zhang, Chenxi Cai,    Nan He, Nicholas Stair, Shuhe Wang, Renke Huang
  ----------------------------------------------------------------------------

  Size of Determinant class: 16

  ==> MO Space Information <==

  -------------------------------------------------
                       A1    A2    B1    B2   Sum
  -------------------------------------------------
    FROZEN_DOCC         0     0     0     0     0
    RESTRICTED_DOCC     0     0     0     0     0
    ACTIVE              7     0     2     2    11
    RESTRICTED_UOCC     0     0     0     0     0
    FROZEN_UOCC         0     0     0     0     0
    Total               7     0     2     2    11
  -------------------------------------------------

  ==> Integral Transformation <==

  Number of molecular orbitals:                    11
  Number of correlated molecular orbitals:         11
  Number of frozen occupied orbitals:               0
  Number of frozen unoccupied orbitals:             0
  Two-electron integral type:              Conventional


  Overall Conventional Integrals timings


  Conventional integrals take 0.02615401 s

  ==> Summary of Active Space Solver Input <==


  ==> State Averaging Summary <==

    Irrep.  Multi.  Nstates  Weights
    --------------------------------
      B2       2        1      1.000
    --------------------------------
    Total number of states: 1
    --------------------------------

  Average Energy from 1 state(s): -37.490813281157017

  ==> Energy Summary <==

    Multi.  Irrep.  No.               Energy
    -----------------------------------------
       2      B2     0       -37.490813281157
    -----------------------------------------	FCI energy (M_S = -1/2)...........................................PASSED

*** tstart() called on Nicks-MacBook-Pro.local
*** at Mon Jan 14 17:14:53 2019

   => Loading Basis Set <=

    Name: 6-31G
    Role: ORBITAL
    Keyword: BASIS
    atoms 1 entry C          line    87 file /Users/nstair/Src/new_psi4/std_instdir/share/psi4/basis/6-31g.gbs 
    atoms 2 entry H          line    26 file /Users/nstair/Src/new_psi4/std_instdir/share/psi4/basis/6-31g.gbs 


         ---------------------------------------------------------
                                   SCF
            by Justin Turney, Rob Parrish, Andy Simmonett
                             and Daniel Smith
                             ROHF Reference
                        1 Threads,    500 MiB Core
         ---------------------------------------------------------

  ==> Geometry <==

    Molecular point group: c2v
    Full point group: C_inf_v

    Geometry (in Bohr), charge = 1, multiplicity = 3:

       Center              X                  Y                   Z               Mass       
    ------------   -----------------  -----------------  -----------------  -----------------
         C            0.000000000000     0.000000000000    -0.077478366271    12.000000000000
         H            0.000000000000     0.000000000000     0.922521633729     1.007825032230

  Running in c2v symmetry.

  Rotational constants: A = ************  B =     64.74892  C =     64.74892 [cm^-1]
  Rotational constants: A = ************  B = 1941123.79451  C = 1941123.79451 [MHz]
  Nuclear repulsion =    6.000000000000000

  Charge       = 1
  Multiplicity = 3
  Electrons    = 6
  Nalpha       = 4
  Nbeta        = 2

  ==> Algorithm <==

  SCF Algorithm Type is PK.
  DIIS enabled.
  MOM disabled.
  Fractional occupation disabled.
  Guess Type is GWH.
  Energy threshold   = 1.00e-12
  Density threshold  = 1.00e-06
  Integral threshold = 0.00e+00

  ==> Primary Basis <==

  Basis Set: 6-31G
    Blend: 6-31G
    Number of shells: 7
    Number of basis function: 11
    Number of Cartesian functions: 11
    Spherical Harmonics?: false
    Max angular momentum: 1

  ==> Pre-Iterations <==

   -------------------------------------------------------
    Irrep   Nso     Nmo     Nalpha   Nbeta   Ndocc  Nsocc
   -------------------------------------------------------
     A1         7       7       0       0       0       0
     A2         0       0       0       0       0       0
     B1         2       2       0       0       0       0
     B2         2       2       0       0       0       0
   -------------------------------------------------------
    Total      11      11       4       2       2       2
   -------------------------------------------------------

  ==> Integral Setup <==

  Using in-core PK algorithm.
   Calculation information:
      Number of atoms:                   2
      Number of AO shells:               7
      Number of primitives:             18
      Number of atomic orbitals:        11
      Number of basis functions:        11

      Integral cutoff                 1.00e-12
      Number of threads:                 1

  Performing in-core PK
  Using 4422 doubles for integral storage.
  We computed 406 shell quartets total.
  Whereas there are 406 unique shell quartets.

  ==> DiskJK: Disk-Based J/K Matrices <==

    J tasked:                  Yes
    K tasked:                  Yes
    wK tasked:                  No
    Memory [MiB]:              375
    Schwarz Cutoff:          1E-12

    OpenMP threads:              1

  Minimum eigenvalue in the overlap matrix is 4.5543576797E-03.
  Using Symmetric Orthogonalization.

  SCF Guess: Generalized Wolfsberg-Helmholtz.

  ==> Iterations <==

                        Total Energy        Delta E     RMS |[F,P]|

   @ROHF iter   1:   -37.04014951912788   -3.70401e+01   4.49383e-02 
   @ROHF iter   2:   -37.06640313801569   -2.62536e-02   2.86028e-03 DIIS
   @ROHF iter   3:   -37.06668165177993   -2.78514e-04   4.39269e-04 DIIS
   @ROHF iter   4:   -37.06669294551137   -1.12937e-05   8.02073e-05 DIIS
   @ROHF iter   5:   -37.06669349495573   -5.49444e-07   6.20759e-06 DIIS
   @ROHF iter   6:   -37.06669349802047   -3.06474e-09   5.36789e-07 DIIS
   @ROHF iter   7:   -37.06669349804261   -2.21405e-11   4.88334e-08 DIIS
   @ROHF iter   8:   -37.06669349804280   -1.84741e-13   3.93471e-09 DIIS
  Energy converged.


  ==> Post-Iterations <==

    Orbital Energies [Eh]
    ---------------------

    Doubly Occupied:                                                      

       1A1   -11.886592     2A1    -1.475769  

    Singly Occupied:                                                      

       3A1    -0.709925     1B1    -0.562152  

    Virtual:                                                              

       1B2    -0.339775     4A1     0.062864     5A1     0.265663  
       2B1     0.349645     2B2     0.380794     6A1     0.539118  
       7A1     2.298642  

    Final Occupation by Irrep:
             A1    A2    B1    B2 
    DOCC [     2,    0,    0,    0 ]
    SOCC [     1,    0,    1,    0 ]

  @ROHF Final Energy:   -37.06669349804280

   => Energetics <=

    Nuclear Repulsion Energy =              6.0000000000000000
    One-Electron Energy =                 -57.3454121128418990
    Two-Electron Energy =                  14.2787186147991001
    Total Energy =                        -37.0666934980427953

Computation Completed


Properties will be evaluated at   0.000000,   0.000000,   0.000000 [a0]

Properties computed using the SCF density matrix

  Nuclear Dipole Moment: [e a0]
     X:     0.0000      Y:     0.0000      Z:     0.4577

  Electronic Dipole Moment: [e a0]
     X:     0.0000      Y:     0.0000      Z:    -0.4884

  Dipole Moment: [e a0]
     X:     0.0000      Y:     0.0000      Z:    -0.0307     Total:     0.0307

  Dipole Moment: [D]
     X:     0.0000      Y:     0.0000      Z:    -0.0781     Total:     0.0781


*** tstop() called on Nicks-MacBook-Pro.local at Mon Jan 14 17:14:54 2019
Module time:
	user time   =       0.07 seconds =       0.00 minutes
	system time =       0.01 seconds =       0.00 minutes
	total time  =          1 seconds =       0.02 minutes
Total time:
	user time   =       1.53 seconds =       0.03 minutes
	system time =       0.09 seconds =       0.00 minutes
	total time  =          2 seconds =       0.03 minutes
	SCF energy........................................................PASSED

*** tstart() called on Nicks-MacBook-Pro.local
*** at Mon Jan 14 17:14:54 2019

   => Loading Basis Set <=

    Name: 6-31G
    Role: ORBITAL
    Keyword: BASIS
    atoms 1 entry C          line    87 file /Users/nstair/Src/new_psi4/std_instdir/share/psi4/basis/6-31g.gbs 
    atoms 2 entry H          line    26 file /Users/nstair/Src/new_psi4/std_instdir/share/psi4/basis/6-31g.gbs 


         ---------------------------------------------------------
                                   SCF
            by Justin Turney, Rob Parrish, Andy Simmonett
                             and Daniel Smith
                             ROHF Reference
                        1 Threads,    500 MiB Core
         ---------------------------------------------------------

  ==> Geometry <==

    Molecular point group: c2v
    Full point group: C_inf_v

    Geometry (in Bohr), charge = 1, multiplicity = 3:

       Center              X                  Y                   Z               Mass       
    ------------   -----------------  -----------------  -----------------  -----------------
         C            0.000000000000     0.000000000000    -0.077478366271    12.000000000000
         H            0.000000000000     0.000000000000     0.922521633729     1.007825032230

  Running in c2v symmetry.

  Rotational constants: A = ************  B =     64.74892  C =     64.74892 [cm^-1]
  Rotational constants: A = ************  B = 1941123.79451  C = 1941123.79451 [MHz]
  Nuclear repulsion =    6.000000000000000

  Charge       = 1
  Multiplicity = 3
  Electrons    = 6
  Nalpha       = 4
  Nbeta        = 2

  ==> Algorithm <==

  SCF Algorithm Type is PK.
  DIIS enabled.
  MOM disabled.
  Fractional occupation disabled.
  Guess Type is GWH.
  Energy threshold   = 1.00e-12
  Density threshold  = 1.00e-08
  Integral threshold = 0.00e+00

  ==> Primary Basis <==

  Basis Set: 6-31G
    Blend: 6-31G
    Number of shells: 7
    Number of basis function: 11
    Number of Cartesian functions: 11
    Spherical Harmonics?: false
    Max angular momentum: 1

  ==> Pre-Iterations <==

   -------------------------------------------------------
    Irrep   Nso     Nmo     Nalpha   Nbeta   Ndocc  Nsocc
   -------------------------------------------------------
     A1         7       7       0       0       0       0
     A2         0       0       0       0       0       0
     B1         2       2       0       0       0       0
     B2         2       2       0       0       0       0
   -------------------------------------------------------
    Total      11      11       4       2       2       2
   -------------------------------------------------------

  ==> Integral Setup <==

  Using in-core PK algorithm.
   Calculation information:
      Number of atoms:                   2
      Number of AO shells:               7
      Number of primitives:             18
      Number of atomic orbitals:        11
      Number of basis functions:        11

      Integral cutoff                 1.00e-12
      Number of threads:                 1

  Performing in-core PK
  Using 4422 doubles for integral storage.
  We computed 406 shell quartets total.
  Whereas there are 406 unique shell quartets.

  ==> DiskJK: Disk-Based J/K Matrices <==

    J tasked:                  Yes
    K tasked:                  Yes
    wK tasked:                  No
    Memory [MiB]:              375
    Schwarz Cutoff:          1E-12

    OpenMP threads:              1

  Minimum eigenvalue in the overlap matrix is 4.5543576797E-03.
  Using Symmetric Orthogonalization.

  SCF Guess: Generalized Wolfsberg-Helmholtz.

  ==> Iterations <==

                        Total Energy        Delta E     RMS |[F,P]|

   @ROHF iter   1:   -37.04014951912788   -3.70401e+01   4.49383e-02 
   @ROHF iter   2:   -37.06640313801569   -2.62536e-02   2.86028e-03 DIIS
   @ROHF iter   3:   -37.06668165177992   -2.78514e-04   4.39269e-04 DIIS
   @ROHF iter   4:   -37.06669294551137   -1.12937e-05   8.02073e-05 DIIS
   @ROHF iter   5:   -37.06669349495574   -5.49444e-07   6.20759e-06 DIIS
   @ROHF iter   6:   -37.06669349802048   -3.06474e-09   5.36789e-07 DIIS
   @ROHF iter   7:   -37.06669349804264   -2.21618e-11   4.88334e-08 DIIS
   @ROHF iter   8:   -37.06669349804277   -1.35003e-13   3.93471e-09 DIIS
  Energy converged.


  ==> Post-Iterations <==

    Orbital Energies [Eh]
    ---------------------

    Doubly Occupied:                                                      

       1A1   -11.886592     2A1    -1.475769  

    Singly Occupied:                                                      

       3A1    -0.709925     1B1    -0.562152  

    Virtual:                                                              

       1B2    -0.339775     4A1     0.062864     5A1     0.265663  
       2B1     0.349645     2B2     0.380794     6A1     0.539118  
       7A1     2.298642  

    Final Occupation by Irrep:
             A1    A2    B1    B2 
    DOCC [     2,    0,    0,    0 ]
    SOCC [     1,    0,    1,    0 ]

  @ROHF Final Energy:   -37.06669349804277

   => Energetics <=

    Nuclear Repulsion Energy =              6.0000000000000000
    One-Electron Energy =                 -57.3454121128418706
    Two-Electron Energy =                  14.2787186147990965
    Total Energy =                        -37.0666934980427740

Computation Completed


Properties will be evaluated at   0.000000,   0.000000,   0.000000 [a0]

Properties computed using the SCF density matrix

  Nuclear Dipole Moment: [e a0]
     X:     0.0000      Y:     0.0000      Z:     0.4577

  Electronic Dipole Moment: [e a0]
     X:     0.0000      Y:     0.0000      Z:    -0.4884

  Dipole Moment: [e a0]
     X:     0.0000      Y:     0.0000      Z:    -0.0307     Total:     0.0307

  Dipole Moment: [D]
     X:     0.0000      Y:     0.0000      Z:    -0.0781     Total:     0.0781


*** tstop() called on Nicks-MacBook-Pro.local at Mon Jan 14 17:14:54 2019
Module time:
	user time   =       0.08 seconds =       0.00 minutes
	system time =       0.01 seconds =       0.00 minutes
	total time  =          0 seconds =       0.00 minutes
Total time:
	user time   =       1.62 seconds =       0.03 minutes
	system time =       0.10 seconds =       0.00 minutes
	total time  =          2 seconds =       0.03 minutes
   => Loading Basis Set <=

    Name: STO-3G
    Role: ORBITAL
    Keyword: MINAO_BASIS
    atoms 1 entry C          line    61 file /Users/nstair/Src/new_psi4/std_instdir/share/psi4/basis/sto-3g.gbs 
    atoms 2 entry H          line    19 file /Users/nstair/Src/new_psi4/std_instdir/share/psi4/basis/sto-3g.gbs 


  Forte
  ----------------------------------------------------------------------------
  A suite of quantum chemistry methods for strongly correlated electrons

    git branch: astests - git commit: 572beab3

  Developed by:
    Francesco A. Evangelista, Chenyang Li, Kevin P. Hannon,
    Jeffrey B. Schriber, Tianyuan Zhang, Chenxi Cai,    Nan He, Nicholas Stair, Shuhe Wang, Renke Huang
  ----------------------------------------------------------------------------

  Size of Determinant class: 16

  ==> MO Space Information <==

  -------------------------------------------------
                       A1    A2    B1    B2   Sum
  -------------------------------------------------
    FROZEN_DOCC         0     0     0     0     0
    RESTRICTED_DOCC     0     0     0     0     0
    ACTIVE              7     0     2     2    11
    RESTRICTED_UOCC     0     0     0     0     0
    FROZEN_UOCC         0     0     0     0     0
    Total               7     0     2     2    11
  -------------------------------------------------

  ==> Integral Transformation <==

  Number of molecular orbitals:                    11
  Number of correlated molecular orbitals:         11
  Number of frozen occupied orbitals:               0
  Number of frozen unoccupied orbitals:             0
  Two-electron integral type:              Conventional


  Overall Conventional Integrals timings


  Conventional integrals take 0.02674086 s

  ==> Summary of Active Space Solver Input <==


  ==> State Averaging Summary <==

    Irrep.  Multi.  Nstates  Weights
    --------------------------------
      B2       3        1      1.000
    --------------------------------
    Total number of states: 1
    --------------------------------

  Average Energy from 1 state(s): -37.088876452204374

  ==> Energy Summary <==

    Multi.  Irrep.  No.               Energy
    -----------------------------------------
       3      B2     0       -37.088876452204
    -----------------------------------------	FCI energy (M_S =  1).............................................PASSED

*** tstart() called on Nicks-MacBook-Pro.local
*** at Mon Jan 14 17:14:54 2019

   => Loading Basis Set <=

    Name: 6-31G
    Role: ORBITAL
    Keyword: BASIS
    atoms 1 entry C          line    87 file /Users/nstair/Src/new_psi4/std_instdir/share/psi4/basis/6-31g.gbs 
    atoms 2 entry H          line    26 file /Users/nstair/Src/new_psi4/std_instdir/share/psi4/basis/6-31g.gbs 


         ---------------------------------------------------------
                                   SCF
            by Justin Turney, Rob Parrish, Andy Simmonett
                             and Daniel Smith
                             ROHF Reference
                        1 Threads,    500 MiB Core
         ---------------------------------------------------------

  ==> Geometry <==

    Molecular point group: c2v
    Full point group: C_inf_v

    Geometry (in Bohr), charge = 1, multiplicity = 3:

       Center              X                  Y                   Z               Mass       
    ------------   -----------------  -----------------  -----------------  -----------------
         C            0.000000000000     0.000000000000    -0.077478366271    12.000000000000
         H            0.000000000000     0.000000000000     0.922521633729     1.007825032230

  Running in c2v symmetry.

  Rotational constants: A = ************  B =     64.74892  C =     64.74892 [cm^-1]
  Rotational constants: A = ************  B = 1941123.79451  C = 1941123.79451 [MHz]
  Nuclear repulsion =    6.000000000000000

  Charge       = 1
  Multiplicity = 3
  Electrons    = 6
  Nalpha       = 4
  Nbeta        = 2

  ==> Algorithm <==

  SCF Algorithm Type is PK.
  DIIS enabled.
  MOM disabled.
  Fractional occupation disabled.
  Guess Type is GWH.
  Energy threshold   = 1.00e-12
  Density threshold  = 1.00e-08
  Integral threshold = 0.00e+00

  ==> Primary Basis <==

  Basis Set: 6-31G
    Blend: 6-31G
    Number of shells: 7
    Number of basis function: 11
    Number of Cartesian functions: 11
    Spherical Harmonics?: false
    Max angular momentum: 1

  ==> Pre-Iterations <==

   -------------------------------------------------------
    Irrep   Nso     Nmo     Nalpha   Nbeta   Ndocc  Nsocc
   -------------------------------------------------------
     A1         7       7       0       0       0       0
     A2         0       0       0       0       0       0
     B1         2       2       0       0       0       0
     B2         2       2       0       0       0       0
   -------------------------------------------------------
    Total      11      11       4       2       2       2
   -------------------------------------------------------

  ==> Integral Setup <==

  Using in-core PK algorithm.
   Calculation information:
      Number of atoms:                   2
      Number of AO shells:               7
      Number of primitives:             18
      Number of atomic orbitals:        11
      Number of basis functions:        11

      Integral cutoff                 1.00e-12
      Number of threads:                 1

  Performing in-core PK
  Using 4422 doubles for integral storage.
  We computed 406 shell quartets total.
  Whereas there are 406 unique shell quartets.

  ==> DiskJK: Disk-Based J/K Matrices <==

    J tasked:                  Yes
    K tasked:                  Yes
    wK tasked:                  No
    Memory [MiB]:              375
    Schwarz Cutoff:          1E-12

    OpenMP threads:              1

  Minimum eigenvalue in the overlap matrix is 4.5543576797E-03.
  Using Symmetric Orthogonalization.

  SCF Guess: Generalized Wolfsberg-Helmholtz.

  ==> Iterations <==

                        Total Energy        Delta E     RMS |[F,P]|

   @ROHF iter   1:   -37.04014951912788   -3.70401e+01   4.49383e-02 
   @ROHF iter   2:   -37.06640313801569   -2.62536e-02   2.86028e-03 DIIS
   @ROHF iter   3:   -37.06668165177993   -2.78514e-04   4.39269e-04 DIIS
   @ROHF iter   4:   -37.06669294551138   -1.12937e-05   8.02073e-05 DIIS
   @ROHF iter   5:   -37.06669349495574   -5.49444e-07   6.20759e-06 DIIS
   @ROHF iter   6:   -37.06669349802048   -3.06474e-09   5.36789e-07 DIIS
   @ROHF iter   7:   -37.06669349804261   -2.21334e-11   4.88334e-08 DIIS
   @ROHF iter   8:   -37.06669349804276   -1.49214e-13   3.93471e-09 DIIS
  Energy converged.


  ==> Post-Iterations <==

    Orbital Energies [Eh]
    ---------------------

    Doubly Occupied:                                                      

       1A1   -11.886592     2A1    -1.475769  

    Singly Occupied:                                                      

       3A1    -0.709925     1B1    -0.562152  

    Virtual:                                                              

       1B2    -0.339775     4A1     0.062864     5A1     0.265663  
       2B1     0.349645     2B2     0.380794     6A1     0.539118  
       7A1     2.298642  

    Final Occupation by Irrep:
             A1    A2    B1    B2 
    DOCC [     2,    0,    0,    0 ]
    SOCC [     1,    0,    1,    0 ]

  @ROHF Final Energy:   -37.06669349804276

   => Energetics <=

    Nuclear Repulsion Energy =              6.0000000000000000
    One-Electron Energy =                 -57.3454121128418493
    Two-Electron Energy =                  14.2787186147990894
    Total Energy =                        -37.0666934980427598

Computation Completed


Properties will be evaluated at   0.000000,   0.000000,   0.000000 [a0]

Properties computed using the SCF density matrix

  Nuclear Dipole Moment: [e a0]
     X:     0.0000      Y:     0.0000      Z:     0.4577

  Electronic Dipole Moment: [e a0]
     X:     0.0000      Y:     0.0000      Z:    -0.4884

  Dipole Moment: [e a0]
     X:     0.0000      Y:     0.0000      Z:    -0.0307     Total:     0.0307

  Dipole Moment: [D]
     X:     0.0000      Y:     0.0000      Z:    -0.0781     Total:     0.0781


*** tstop() called on Nicks-MacBook-Pro.local at Mon Jan 14 17:14:54 2019
Module time:
	user time   =       0.07 seconds =       0.00 minutes
	system time =       0.01 seconds =       0.00 minutes
	total time  =          0 seconds =       0.00 minutes
Total time:
	user time   =       2.20 seconds =       0.04 minutes
	system time =       0.13 seconds =       0.00 minutes
	total time  =          2 seconds =       0.03 minutes
   => Loading Basis Set <=

    Name: STO-3G
    Role: ORBITAL
    Keyword: MINAO_BASIS
    atoms 1 entry C          line    61 file /Users/nstair/Src/new_psi4/std_instdir/share/psi4/basis/sto-3g.gbs 
    atoms 2 entry H          line    19 file /Users/nstair/Src/new_psi4/std_instdir/share/psi4/basis/sto-3g.gbs 


  Forte
  ----------------------------------------------------------------------------
  A suite of quantum chemistry methods for strongly correlated electrons

    git branch: astests - git commit: 572beab3

  Developed by:
    Francesco A. Evangelista, Chenyang Li, Kevin P. Hannon,
    Jeffrey B. Schriber, Tianyuan Zhang, Chenxi Cai,    Nan He, Nicholas Stair, Shuhe Wang, Renke Huang
  ----------------------------------------------------------------------------

  Size of Determinant class: 16

  ==> MO Space Information <==

  -------------------------------------------------
                       A1    A2    B1    B2   Sum
  -------------------------------------------------
    FROZEN_DOCC         0     0     0     0     0
    RESTRICTED_DOCC     0     0     0     0     0
    ACTIVE              7     0     2     2    11
    RESTRICTED_UOCC     0     0     0     0     0
    FROZEN_UOCC         0     0     0     0     0
    Total               7     0     2     2    11
  -------------------------------------------------

  ==> Integral Transformation <==

  Number of molecular orbitals:                    11
  Number of correlated molecular orbitals:         11
  Number of frozen occupied orbitals:               0
  Number of frozen unoccupied orbitals:             0
  Two-electron integral type:              Conventional


  Overall Conventional Integrals timings


  Conventional integrals take 0.02403906 s

  ==> Summary of Active Space Solver Input <==


  ==> State Averaging Summary <==

    Irrep.  Multi.  Nstates  Weights
    --------------------------------
      B2       3        1      1.000
    --------------------------------
    Total number of states: 1
    --------------------------------

  Average Energy from 1 state(s): -37.088876452204374

  ==> Energy Summary <==

    Multi.  Irrep.  No.               Energy
    -----------------------------------------
       3      B2     0       -37.088876452204
    -----------------------------------------	FCI energy (M_S =  0).............................................PASSED

*** tstart() called on Nicks-MacBook-Pro.local
*** at Mon Jan 14 17:14:55 2019

   => Loading Basis Set <=

    Name: 6-31G
    Role: ORBITAL
    Keyword: BASIS
    atoms 1 entry C          line    87 file /Users/nstair/Src/new_psi4/std_instdir/share/psi4/basis/6-31g.gbs 
    atoms 2 entry H          line    26 file /Users/nstair/Src/new_psi4/std_instdir/share/psi4/basis/6-31g.gbs 


         ---------------------------------------------------------
                                   SCF
            by Justin Turney, Rob Parrish, Andy Simmonett
                             and Daniel Smith
                             ROHF Reference
                        1 Threads,    500 MiB Core
         ---------------------------------------------------------

  ==> Geometry <==

    Molecular point group: c2v
    Full point group: C_inf_v

    Geometry (in Bohr), charge = 1, multiplicity = 3:

       Center              X                  Y                   Z               Mass       
    ------------   -----------------  -----------------  -----------------  -----------------
         C            0.000000000000     0.000000000000    -0.077478366271    12.000000000000
         H            0.000000000000     0.000000000000     0.922521633729     1.007825032230

  Running in c2v symmetry.

  Rotational constants: A = ************  B =     64.74892  C =     64.74892 [cm^-1]
  Rotational constants: A = ************  B = 1941123.79451  C = 1941123.79451 [MHz]
  Nuclear repulsion =    6.000000000000000

  Charge       = 1
  Multiplicity = 3
  Electrons    = 6
  Nalpha       = 4
  Nbeta        = 2

  ==> Algorithm <==

  SCF Algorithm Type is PK.
  DIIS enabled.
  MOM disabled.
  Fractional occupation disabled.
  Guess Type is GWH.
  Energy threshold   = 1.00e-12
  Density threshold  = 1.00e-08
  Integral threshold = 0.00e+00

  ==> Primary Basis <==

  Basis Set: 6-31G
    Blend: 6-31G
    Number of shells: 7
    Number of basis function: 11
    Number of Cartesian functions: 11
    Spherical Harmonics?: false
    Max angular momentum: 1

  ==> Pre-Iterations <==

   -------------------------------------------------------
    Irrep   Nso     Nmo     Nalpha   Nbeta   Ndocc  Nsocc
   -------------------------------------------------------
     A1         7       7       0       0       0       0
     A2         0       0       0       0       0       0
     B1         2       2       0       0       0       0
     B2         2       2       0       0       0       0
   -------------------------------------------------------
    Total      11      11       4       2       2       2
   -------------------------------------------------------

  ==> Integral Setup <==

  Using in-core PK algorithm.
   Calculation information:
      Number of atoms:                   2
      Number of AO shells:               7
      Number of primitives:             18
      Number of atomic orbitals:        11
      Number of basis functions:        11

      Integral cutoff                 1.00e-12
      Number of threads:                 1

  Performing in-core PK
  Using 4422 doubles for integral storage.
  We computed 406 shell quartets total.
  Whereas there are 406 unique shell quartets.

  ==> DiskJK: Disk-Based J/K Matrices <==

    J tasked:                  Yes
    K tasked:                  Yes
    wK tasked:                  No
    Memory [MiB]:              375
    Schwarz Cutoff:          1E-12

    OpenMP threads:              1

  Minimum eigenvalue in the overlap matrix is 4.5543576797E-03.
  Using Symmetric Orthogonalization.

  SCF Guess: Generalized Wolfsberg-Helmholtz.

  ==> Iterations <==

                        Total Energy        Delta E     RMS |[F,P]|

   @ROHF iter   1:   -37.04014951912788   -3.70401e+01   4.49383e-02 
   @ROHF iter   2:   -37.06640313801569   -2.62536e-02   2.86028e-03 DIIS
   @ROHF iter   3:   -37.06668165177992   -2.78514e-04   4.39269e-04 DIIS
   @ROHF iter   4:   -37.06669294551138   -1.12937e-05   8.02073e-05 DIIS
   @ROHF iter   5:   -37.06669349495570   -5.49444e-07   6.20759e-06 DIIS
   @ROHF iter   6:   -37.06669349802047   -3.06477e-09   5.36789e-07 DIIS
   @ROHF iter   7:   -37.06669349804262   -2.21476e-11   4.88334e-08 DIIS
   @ROHF iter   8:   -37.06669349804279   -1.70530e-13   3.93471e-09 DIIS
  Energy converged.


  ==> Post-Iterations <==

    Orbital Energies [Eh]
    ---------------------

    Doubly Occupied:                                                      

       1A1   -11.886592     2A1    -1.475769  

    Singly Occupied:                                                      

       3A1    -0.709925     1B1    -0.562152  

    Virtual:                                                              

       1B2    -0.339775     4A1     0.062864     5A1     0.265663  
       2B1     0.349645     2B2     0.380794     6A1     0.539118  
       7A1     2.298642  

    Final Occupation by Irrep:
             A1    A2    B1    B2 
    DOCC [     2,    0,    0,    0 ]
    SOCC [     1,    0,    1,    0 ]

  @ROHF Final Energy:   -37.06669349804279

   => Energetics <=

    Nuclear Repulsion Energy =              6.0000000000000000
    One-Electron Energy =                 -57.3454121128418848
    Two-Electron Energy =                  14.2787186147990983
    Total Energy =                        -37.0666934980427882

Computation Completed


Properties will be evaluated at   0.000000,   0.000000,   0.000000 [a0]

Properties computed using the SCF density matrix

  Nuclear Dipole Moment: [e a0]
     X:     0.0000      Y:     0.0000      Z:     0.4577

  Electronic Dipole Moment: [e a0]
     X:     0.0000      Y:     0.0000      Z:    -0.4884

  Dipole Moment: [e a0]
     X:     0.0000      Y:     0.0000      Z:    -0.0307     Total:     0.0307

  Dipole Moment: [D]
     X:     0.0000      Y:     0.0000      Z:    -0.0781     Total:     0.0781


*** tstop() called on Nicks-MacBook-Pro.local at Mon Jan 14 17:14:55 2019
Module time:
	user time   =       0.08 seconds =       0.00 minutes
	system time =       0.02 seconds =       0.00 minutes
	total time  =          0 seconds =       0.00 minutes
Total time:
	user time   =       2.70 seconds =       0.04 minutes
	system time =       0.17 seconds =       0.00 minutes
	total time  =          3 seconds =       0.05 minutes
   => Loading Basis Set <=

    Name: STO-3G
    Role: ORBITAL
    Keyword: MINAO_BASIS
    atoms 1 entry C          line    61 file /Users/nstair/Src/new_psi4/std_instdir/share/psi4/basis/sto-3g.gbs 
    atoms 2 entry H          line    19 file /Users/nstair/Src/new_psi4/std_instdir/share/psi4/basis/sto-3g.gbs 


  Forte
  ----------------------------------------------------------------------------
  A suite of quantum chemistry methods for strongly correlated electrons

    git branch: astests - git commit: 572beab3

  Developed by:
    Francesco A. Evangelista, Chenyang Li, Kevin P. Hannon,
    Jeffrey B. Schriber, Tianyuan Zhang, Chenxi Cai,    Nan He, Nicholas Stair, Shuhe Wang, Renke Huang
  ----------------------------------------------------------------------------

  Size of Determinant class: 16

  ==> MO Space Information <==

  -------------------------------------------------
                       A1    A2    B1    B2   Sum
  -------------------------------------------------
    FROZEN_DOCC         0     0     0     0     0
    RESTRICTED_DOCC     0     0     0     0     0
    ACTIVE              7     0     2     2    11
    RESTRICTED_UOCC     0     0     0     0     0
    FROZEN_UOCC         0     0     0     0     0
    Total               7     0     2     2    11
  -------------------------------------------------

  ==> Integral Transformation <==

  Number of molecular orbitals:                    11
  Number of correlated molecular orbitals:         11
  Number of frozen occupied orbitals:               0
  Number of frozen unoccupied orbitals:             0
  Two-electron integral type:              Conventional


  Overall Conventional Integrals timings


  Conventional integrals take 0.03109267 s

  ==> Summary of Active Space Solver Input <==


  ==> State Averaging Summary <==

    Irrep.  Multi.  Nstates  Weights
    --------------------------------
      B2       3        1      1.000
    --------------------------------
    Total number of states: 1
    --------------------------------

  Average Energy from 1 state(s): -37.088876452204325

  ==> Energy Summary <==

    Multi.  Irrep.  No.               Energy
    -----------------------------------------
       3      B2     0       -37.088876452204
    -----------------------------------------	FCI energy (M_S = -1).............................................PASSED

    Psi4 stopped on: Monday, 14 January 2019 05:14PM
    Psi4 wall time for execution: 0:00:03.43

*** Psi4 exiting successfully. Buy a developer a beer!
