
    -----------------------------------------------------------------------
          Psi4: An Open-Source Ab Initio Electronic Structure Package
                               Psi4 1.10a1.dev60 

                         Git: Rev {master} 36ddfd8 dirty


    D. G. A. Smith, L. A. Burns, A. C. Simmonett, R. M. Parrish,
    M. C. Schieber, R. Galvelis, P. Kraus, H. Kruse, R. Di Remigio,
    A. Alenaizan, A. M. James, S. Lehtola, J. P. Misiewicz, M. Scheurer,
    R. A. Shaw, J. B. Schriber, Y. Xie, Z. L. Glick, D. A. Sirianni,
    J. S. O'Brien, J. M. Waldrop, A. Kumar, E. G. Hohenstein,
    B. P. Pritchard, B. R. Brooks, H. F. Schaefer III, A. Yu. Sokolov,
    K. Patkowski, A. E. DePrince III, U. Bozkaya, R. A. King,
    F. A. Evangelista, J. M. Turney, T. D. Crawford, C. D. Sherrill,
    J. Chem. Phys. 152(18) 184108 (2020). https://doi.org/10.1063/5.0006002

                            Additional Code Authors
    E. T. Seidl, C. L. Janssen, E. F. Valeev, M. L. Leininger,
    J. F. Gonthier, R. M. Richard, H. R. McAlexander, M. Saitow, X. Wang,
    P. Verma, M. H. Lechner, A. Jiang, S. Behnle, A. G. Heide,
    M. F. Herbst, and D. L. Poole

             Previous Authors, Complete List of Code Contributors,
                       and Citations for Specific Modules
    https://github.com/psi4/psi4/blob/master/codemeta.json
    https://github.com/psi4/psi4/graphs/contributors
    http://psicode.org/psi4manual/master/introduction.html#citing-psifour

    -----------------------------------------------------------------------


    Psi4 started on: Thursday, 31 October 2024 08:52AM

    Process ID: 74243
    Host:       macbook-pro-347.wireless.emory.edu
    PSIDATADIR: /Users/fevange/Source/psi4/objdir-Release/stage/share/psi4
    Memory:     500.0 MiB
    Threads:    1
    
  ==> Input File <==

--------------------------------------------------------------------------
import forte

refmcscf   = -99.406065223640
refudsrg   = -99.498863722874  # truncate dsrg_rsc_ncomm to 4
refprdsrg  = -99.500365361250  # truncate dsrg_rsc_ncomm to 4
refrdsrg   = -99.500183053072  # truncate dsrg_rsc_ncomm to 4

molecule HF{
0 1
F
H 1 1.5
}

set globals{
  basis                   3-21g
  docc                    [3,0,1,1]
}

set forte{
   active_space_solver     fci
   restricted_docc         [2,0,1,1]
   active                  [2,0,0,0]
   root_sym                0
   nroot                   1
   mcscf_e_convergence    12
   mcscf_g_convergence    8
}

Emcscf, wfn = energy('forte', return_wfn=True)
compare_values(refmcscf,variable("CURRENT ENERGY"),10,"MCSCF energy") #TEST

set forte{
  job_type               newdriver
  active_space_solver    fci
  correlation_solver     sa-mrdsrg
  int_type               cholesky
  cholesky_tolerance     1e-4
  corr_level             ldsrg2
  frozen_docc            [1,0,0,0]
  restricted_docc        [1,0,1,1]
  active                 [2,0,0,0]
  dsrg_s                 1.0
  maxiter                100
  e_convergence          8
  dsrg_hbar_seq          true
  dsrg_nivo              true
  relax_ref              twice
  dsrg_read_amps         true
  dsrg_rsc_ncomm         4
  mcscf_reference       false
}

energy('forte', ref_wfn=wfn)
compare_values(refudsrg,variable("UNRELAXED ENERGY"),8,"MRDSRG unrelaxed energy")
compare_values(refprdsrg,variable("PARTIALLY RELAXED ENERGY"),8,"MRDSRG partially relaxed energy")
compare_values(refrdsrg,variable("RELAXED ENERGY"),8,"MRDSRG relaxed energy")
--------------------------------------------------------------------------

Scratch directory: /tmp/

  Forte
  ----------------------------------------------------------------------------
  A suite of quantum chemistry methods for strongly correlated electrons

    git branch: ortho_orbs_fe - git commit: 5c365f5c

  Developed by:
    Francesco A. Evangelista, Chenyang Li, Kevin P. Hannon,
    Jeffrey B. Schriber, Tianyuan Zhang, Chenxi Cai,
    Nan He, Nicholas Stair, Shuhe Wang, Renke Huang
  ----------------------------------------------------------------------------


  Preparing forte objects from a Psi4 Wavefunction object   => Libint2 <=

    Primary   basis highest AM E, G, H:  6, 6, 3
    Auxiliary basis highest AM E, G, H:  7, 7, 4
    Onebody   basis highest AM E, G, H:  -, -, -
    Solid Harmonics ordering:            Gaussian

*** tstart() called on macbook-pro-347.wireless.emory.edu
*** at Thu Oct 31 08:52:52 2024

   => Loading Basis Set <=

    Name: 3-21G
    Role: ORBITAL
    Keyword: BASIS
    atoms 1 entry F          line   101 file /Users/fevange/Source/psi4/objdir-Release/stage/share/psi4/basis/3-21g.gbs 
    atoms 2 entry H          line    21 file /Users/fevange/Source/psi4/objdir-Release/stage/share/psi4/basis/3-21g.gbs 


         ---------------------------------------------------------
                                   SCF
               by Justin Turney, Rob Parrish, Andy Simmonett
                          and Daniel G. A. Smith
                              RHF Reference
                        1 Threads,    500 MiB Core
         ---------------------------------------------------------

  ==> Geometry <==

    Molecular point group: c2v
    Full point group: C_inf_v

    Geometry (in Angstrom), charge = 0, multiplicity = 1:

       Center              X                  Y                   Z               Mass       
    ------------   -----------------  -----------------  -----------------  -----------------
         F            0.000000000000     0.000000000000    -0.075563346255    18.998403162730
         H            0.000000000000     0.000000000000     1.424436653745     1.007825032230

  Running in c2v symmetry.

  Rotational constants: A = ************  B =      7.82847  C =      7.82847 [cm^-1]
  Rotational constants: A = ************  B = 234691.66104  C = 234691.66104 [MHz]
  Nuclear repulsion =    3.175063264020000

  Charge       = 0
  Multiplicity = 1
  Electrons    = 10
  Nalpha       = 5
  Nbeta        = 5

  ==> Algorithm <==

  SCF Algorithm Type is PK.
  DIIS enabled.
  MOM disabled.
  Fractional occupation disabled.
  Guess Type is SAD.
  Energy threshold   = 1.00e-08
  Density threshold  = 1.00e-08
  Integral threshold = 1.00e-12

  ==> Primary Basis <==

  Basis Set: 3-21G
    Blend: 3-21G
    Number of shells: 7
    Number of basis functions: 11
    Number of Cartesian functions: 11
    Spherical Harmonics?: false
    Max angular momentum: 1

  ==> Integral Setup <==

  Using in-core PK algorithm.
   Calculation information:
      Number of atoms:                   2
      Number of AO shells:               7
      Number of primitives:             12
      Number of atomic orbitals:        11
      Number of basis functions:        11

      Integral cutoff                 1.00e-12
      Number of threads:                 1

  Performing in-core PK
  Using 4422 doubles for integral storage.
  We computed 406 shell quartets total.
  Whereas there are 406 unique shell quartets.

  ==> DiskJK: Disk-Based J/K Matrices <==

    J tasked:                  Yes
    K tasked:                  Yes
    wK tasked:                  No
    Memory [MiB]:              375
    Schwarz Cutoff:          1E-12

    OpenMP threads:              1

  Minimum eigenvalue in the overlap matrix is 2.1788495774E-01.
  Reciprocal condition number of the overlap matrix is 1.0486195573E-01.
    Using symmetric orthogonalization.

  ==> Pre-Iterations <==

  SCF Guess: Superposition of Atomic Densities via on-the-fly atomic UHF (no occupation information).

   -------------------------
    Irrep   Nso     Nmo    
   -------------------------
     A1         7       7 
     A2         0       0 
     B1         2       2 
     B2         2       2 
   -------------------------
    Total      11      11
   -------------------------

  ==> Iterations <==

                        Total Energy        Delta E     RMS |[F,P]|

   @RHF iter SAD:   -99.09599740806651   -9.90960e+01   0.00000e+00 
   @RHF iter   1:   -99.29674630284661   -2.00749e-01   2.05670e-02 ADIIS/DIIS
   @RHF iter   2:   -99.32926524283447   -3.25189e-02   1.58521e-02 ADIIS/DIIS
   @RHF iter   3:   -99.33292865327138   -3.66341e-03   3.64487e-03 ADIIS/DIIS
   @RHF iter   4:   -99.33380788411463   -8.79231e-04   1.26705e-03 ADIIS/DIIS
   @RHF iter   5:   -99.33384146641232   -3.35823e-05   5.47408e-05 DIIS
   @RHF iter   6:   -99.33384166273370   -1.96321e-07   5.52121e-06 DIIS
   @RHF iter   7:   -99.33384166433277   -1.59906e-09   7.79016e-07 DIIS
   @RHF iter   8:   -99.33384166435961   -2.68443e-11   4.13832e-08 DIIS
   @RHF iter   9:   -99.33384166435971   -9.94760e-14   6.34396e-10 DIIS
  Energy and wave function converged.


  ==> Post-Iterations <==

    Orbital Energies [Eh]
    ---------------------

    Doubly Occupied:                                                      

       1A1   -26.131616     2A1    -1.461547     1B2    -0.579580  
       1B1    -0.579580     3A1    -0.538989  

    Virtual:                                                              

       4A1     0.055584     5A1     1.078715     2B2     2.248770  
       2B1     2.248770     6A1     2.364315     7A1     3.411535  

    Final Occupation by Irrep:
             A1    A2    B1    B2 
    DOCC [     3,    0,    1,    1 ]
    NA   [     3,    0,    1,    1 ]
    NB   [     3,    0,    1,    1 ]

  @RHF Final Energy:   -99.33384166435971

   => Energetics <=

    Nuclear Repulsion Energy =              3.1750632640200003
    One-Electron Energy =                -146.4351858937473594
    Two-Electron Energy =                  43.9262809653676598
    Total Energy =                        -99.3338416643597100

Computation Completed


Properties will be evaluated at   0.000000,   0.000000,   0.000000 [a0]

Properties computed using the SCF density matrix


 Multipole Moments:

 ------------------------------------------------------------------------------------
     Multipole            Electronic (a.u.)      Nuclear  (a.u.)        Total (a.u.)
 ------------------------------------------------------------------------------------

 L = 1.  Multiply by 2.5417464519 to convert [e a0] to [Debye]
 Dipole X            :          0.0000000            0.0000000            0.0000000
 Dipole Y            :          0.0000000            0.0000000            0.0000000
 Dipole Z            :         -0.4552667            1.4066489            0.9513822
 Magnitude           :                                                    0.9513822

 ------------------------------------------------------------------------------------

*** tstop() called on macbook-pro-347.wireless.emory.edu at Thu Oct 31 08:52:52 2024
Module time:
	user time   =       0.11 seconds =       0.00 minutes
	system time =       0.03 seconds =       0.00 minutes
	total time  =          0 seconds =       0.00 minutes
Total time:
	user time   =       0.11 seconds =       0.00 minutes
	system time =       0.03 seconds =       0.00 minutes
	total time  =          0 seconds =       0.00 minutes


  ==> MO Space Information <==

  -------------------------------------------------
                       A1    A2    B1    B2   Sum
  -------------------------------------------------
    FROZEN_DOCC         0     0     0     0     0
    RESTRICTED_DOCC     2     0     1     1     4
    GAS1                2     0     0     0     2
    GAS2                0     0     0     0     0
    GAS3                0     0     0     0     0
    GAS4                0     0     0     0     0
    GAS5                0     0     0     0     0
    GAS6                0     0     0     0     0
    RESTRICTED_UOCC     3     0     1     1     5
    FROZEN_UOCC         0     0     0     0     0
    Total               7     0     2     2    11
  -------------------------------------------------   => Loading Basis Set <=

    Name: STO-3G
    Role: ORBITAL
    Keyword: MINAO_BASIS
    atoms 1 entry F          line    91 file /Users/fevange/Source/psi4/objdir-Release/stage/share/psi4/basis/sto-3g.gbs 
    atoms 2 entry H          line    19 file /Users/fevange/Source/psi4/objdir-Release/stage/share/psi4/basis/sto-3g.gbs 


  State Singlet (Ms = 0) A1 GAS min: 0 0 0 0 0 0 ; GAS max: 4 0 0 0 0 0 ; weights:
      1.000000000000
  Forte will use psi4 integrals

  ==> Primary Basis Set Summary <==

  Basis Set: 3-21G
    Blend: 3-21G
    Number of shells: 7
    Number of basis functions: 11
    Number of Cartesian functions: 11
    Spherical Harmonics?: false
    Max angular momentum: 1


  JK created using conventional PK integrals
  Using in-core PK algorithm.
   Calculation information:
      Number of atoms:                   2
      Number of AO shells:               7
      Number of primitives:             12
      Number of atomic orbitals:        11
      Number of basis functions:        11

      Integral cutoff                 1.00e-12
      Number of threads:                 1

  Performing in-core PK
  Using 4422 doubles for integral storage.
  We computed 406 shell quartets total.
  Whereas there are 406 unique shell quartets.

  ==> DiskJK: Disk-Based J/K Matrices <==

    J tasked:                  Yes
    K tasked:                  Yes
    wK tasked:                  No
    Memory [MiB]:              400
    Schwarz Cutoff:          1E-12

    OpenMP threads:              1



  ==> Integral Transformation <==

  Number of molecular orbitals:                         11
  Number of correlated molecular orbitals:              11
  Number of frozen occupied orbitals:                    0
  Number of frozen unoccupied orbitals:                  0
  Two-electron integral type:                 Conventional


  Computing Conventional Integrals	Presorting SO-basis two-electron integrals.
	Sorting File: SO Ints (nn|nn) nbuckets = 1
	Constructing frozen core operators
	Starting first half-transformation.
	Sorting half-transformed integrals.
	First half integral transformation complete.
	Starting second half-transformation.
	Two-electron integral transformation complete.

  Integral transformation done. 0.00375538 s
  Reading the two-electron integrals from disk
  Size of two-electron integrals:   0.000327 GB
  Timing for conventional integral transformation:            0.007 s.
  Timing for freezing core and virtual orbitals:              0.000 s.
  Timing for computing conventional integrals:                0.007 s.

          -----------------------------------------------------------
                  Multi-Configurational Self Consistent Field
                Two-Step Approximate Second-Order AO Algorithm
            written by Chenyang Li, Kevin P. Hannon, and Shuhe Wang
          -----------------------------------------------------------


  ==> MCSCF Calculation Information <==

    --------------------------------------------------------
    Print level                                      Default
    Integral type                               CONVENTIONAL
    CI solver type                                       FCI
    Final orbital type                             CANONICAL
    Derivative type                                     NONE
    Optimize orbitals                                   TRUE
    Include internal rotations                         FALSE
    Debug printing                                     FALSE
    Energy convergence                             1.000e-12
    Gradient convergence                           1.000e-08
    Max value for rotation                         2.000e-01
    Max number of macro iter.                            100
    Max number of micro iter. for orbitals                 6
    Max number of micro iter. for CI                      12
    DIIS start                                            15
    Min DIIS vectors                                       3
    Max DIIS vectors                                       8
    Frequency of DIIS extrapolation                        1
    --------------------------------------------------------

  ==> Independent Orbital Rotations <==

    ORBITAL SPACES                        A1     A2     B1     B2
    -------------------------------------------------------------
             ACTIVE / RESTRICTED_DOCC      4      0      0      0
    RESTRICTED_UOCC /          ACTIVE      6      0      0      0
    RESTRICTED_UOCC / RESTRICTED_DOCC      6      0      1      1
    -------------------------------------------------------------

  ==> String Lists <==

    --------------------------------------------------------
    number of alpha electrons                              1
    number of beta electrons                               1
    number of alpha strings                                2
    number of beta strings                                 2
    --------------------------------------------------------

  ==> FCI Solver <==

    --------------------------------------------------------
    Spin adapt                                         FALSE
    Number of determinants                                 4
    Symmetry                                               0
    Multiplicity                                           1
    Number of roots                                        1
    Target root                                            0
    --------------------------------------------------------

  ==> Initial Guess <==

  Initial guess determinants:         4

  Classification of the initial guess solutions

  Number   2S+1   Selected
  ------------------------
     3       1       *
     1       3        
  ------------------------

    Spin    Root           Energy        <S^2>    Status
  -------------------------------------------------------
   singlet    0      -99.390528524870  +0.000000  added
  -------------------------------------------------------

  ==> Davidson-Liu Solver <==

    --------------------------------------------------------
    Print level                                      Default
    Energy convergence threshold                   1.000e-12
    Residual convergence threshold                 1.000e-06
    Schmidt orthogonality threshold                1.000e-12
    Schmidt discard threshold                      1.000e-07
    Size of the space                                      4
    Number of roots                                        1
    Maximum number of iterations                         100
    Collapse subspace size                                 2
    Maximum subspace size                                  4
    --------------------------------------------------------

  Davidson-Liu solver: adding 1 guess vectors
  Iteration     Average Energy            max(∆E)            max(Residual)  Vectors
  ---------------------------------------------------------------------------------
       0      -99.390528524870       99.390528524870        0.000000000000      1
       1      -99.390528524870        0.000000000000        0.000000000000      2
  ---------------------------------------------------------------------------------

  ==> Root No. 0 <==

    20      0.95299145
    02     -0.28806749
    ba      0.06642448
    ab      0.06642448

    Total Energy:     -99.390528524870, <S^2>: -0.000000
    Time for FCI:       0.000217334000

  ==> Energy Summary <==

    Multi.(2ms)  Irrep.  No.               Energy      <S^2>
    --------------------------------------------------------
       1  (  0)    A1     0      -99.390528524870  -0.000000
    --------------------------------------------------------
  Computing RDMs for dipole moments ... Done

  ==> Summary of Dipole Moments [e a0] (Nuclear + Electronic) <==

       State           DM_X           DM_Y           DM_Z           |DM|
    --------------------------------------------------------------------
         0A1     0.00000000     0.00000000     0.50204945     0.50204945
    --------------------------------------------------------------------
     Nuclear     0.00000000     0.00000000     1.40664889     1.40664889
    --------------------------------------------------------------------

  ==> Natural Orbitals <==

        3A1     1.829924      4A1     0.170076  


  ==> MCSCF Iterations <==

                      Energy CI                    Energy Orbital
           ------------------------------  ------------------------------
    Iter.        Total Energy       Delta        Total Energy       Delta  Orb. Grad.  Micro
    ----------------------------------------------------------------------------------------
       1     -99.390528524870 -9.9391e+01    -99.405688056111 -9.9406e+01  6.0709e-02    6/N
  Computing RDMs for dipole moments ... Done

  ==> Summary of Dipole Moments [e a0] (Nuclear + Electronic) <==

       State           DM_X           DM_Y           DM_Z           |DM|
    --------------------------------------------------------------------
         0A1     0.00000000     0.00000000     0.47866471     0.47866471
    --------------------------------------------------------------------
     Nuclear     0.00000000     0.00000000     1.40664889     1.40664889
    --------------------------------------------------------------------
       2     -99.406024298962 -1.5496e-02    -99.406059105169 -3.7105e-04  2.7390e-05    6/N
  Computing RDMs for dipole moments ... Done

  ==> Summary of Dipole Moments [e a0] (Nuclear + Electronic) <==

       State           DM_X           DM_Y           DM_Z           |DM|
    --------------------------------------------------------------------
         0A1     0.00000000     0.00000000     0.47209091     0.47209091
    --------------------------------------------------------------------
     Nuclear     0.00000000     0.00000000     1.40664889     1.40664889
    --------------------------------------------------------------------
       3     -99.406064089811 -3.9791e-05    -99.406064980921 -5.8758e-06  1.6805e-06    6/N
  Computing RDMs for dipole moments ... Done

  ==> Summary of Dipole Moments [e a0] (Nuclear + Electronic) <==

       State           DM_X           DM_Y           DM_Z           |DM|
    --------------------------------------------------------------------
         0A1     0.00000000     0.00000000     0.47051417     0.47051417
    --------------------------------------------------------------------
     Nuclear     0.00000000     0.00000000     1.40664889     1.40664889
    --------------------------------------------------------------------
       4     -99.406065169061 -1.0792e-06    -99.406065211139 -2.3022e-07  4.0175e-07    6/N
  Computing RDMs for dipole moments ... Done

  ==> Summary of Dipole Moments [e a0] (Nuclear + Electronic) <==

       State           DM_X           DM_Y           DM_Z           |DM|
    --------------------------------------------------------------------
         0A1     0.00000000     0.00000000     0.47014649     0.47014649
    --------------------------------------------------------------------
     Nuclear     0.00000000     0.00000000     1.40664889     1.40664889
    --------------------------------------------------------------------
       5     -99.406065220763 -5.1702e-08    -99.406065222976 -1.1837e-08  8.2724e-08    6/N
  Computing RDMs for dipole moments ... Done

  ==> Summary of Dipole Moments [e a0] (Nuclear + Electronic) <==

       State           DM_X           DM_Y           DM_Z           |DM|
    --------------------------------------------------------------------
         0A1     0.00000000     0.00000000     0.47006141     0.47006141
    --------------------------------------------------------------------
     Nuclear     0.00000000     0.00000000     1.40664889     1.40664889
    --------------------------------------------------------------------
       6     -99.406065223487 -2.7233e-09    -99.406065223604 -6.2786e-10  1.8367e-08    6/N
  Computing RDMs for dipole moments ... Done

  ==> Summary of Dipole Moments [e a0] (Nuclear + Electronic) <==

       State           DM_X           DM_Y           DM_Z           |DM|
    --------------------------------------------------------------------
         0A1     0.00000000     0.00000000     0.47004177     0.47004177
    --------------------------------------------------------------------
     Nuclear     0.00000000     0.00000000     1.40664889     1.40664889
    --------------------------------------------------------------------
       7     -99.406065223632 -1.4477e-10    -99.406065223638 -3.3438e-11  4.1877e-09    5/Y
  Computing RDMs for dipole moments ... Done

  ==> Summary of Dipole Moments [e a0] (Nuclear + Electronic) <==

       State           DM_X           DM_Y           DM_Z           |DM|
    --------------------------------------------------------------------
         0A1     0.00000000     0.00000000     0.47003723     0.47003723
    --------------------------------------------------------------------
     Nuclear     0.00000000     0.00000000     1.40664889     1.40664889
    --------------------------------------------------------------------
       8     -99.406065223639 -7.7165e-12    -99.406065223640 -1.7764e-12  9.0704e-10    4/Y
  Computing RDMs for dipole moments ... Done

  ==> Summary of Dipole Moments [e a0] (Nuclear + Electronic) <==

       State           DM_X           DM_Y           DM_Z           |DM|
    --------------------------------------------------------------------
         0A1     0.00000000     0.00000000     0.47003619     0.47003619
    --------------------------------------------------------------------
     Nuclear     0.00000000     0.00000000     1.40664889     1.40664889
    --------------------------------------------------------------------
       9     -99.406065223640 -4.5475e-13    -99.406065223640 -7.1054e-14  1.4907e-09    3/Y
    ----------------------------------------------------------------------------------------

  A miracle has come to pass: MCSCF iterations have converged!

  Performing final CI Calculation using converged orbitals

  ==> String Lists <==

    --------------------------------------------------------
    number of alpha electrons                              1
    number of beta electrons                               1
    number of alpha strings                                2
    number of beta strings                                 2
    --------------------------------------------------------

  ==> FCI Solver <==

    --------------------------------------------------------
    Spin adapt                                         FALSE
    Number of determinants                                 4
    Symmetry                                               0
    Multiplicity                                           1
    Number of roots                                        1
    Target root                                            0
    --------------------------------------------------------

  ==> Initial Guess <==

  Initial guess determinants:         4

  Classification of the initial guess solutions

  Number   2S+1   Selected
  ------------------------
     3       1       *
     1       3        
  ------------------------

    Spin    Root           Energy        <S^2>    Status
  -------------------------------------------------------
   singlet    0      -99.406065223640  +0.000000  added
  -------------------------------------------------------

  ==> Davidson-Liu Solver <==

    --------------------------------------------------------
    Print level                                      Default
    Energy convergence threshold                   1.000e-12
    Residual convergence threshold                 1.000e-06
    Schmidt orthogonality threshold                1.000e-12
    Schmidt discard threshold                      1.000e-07
    Size of the space                                      4
    Number of roots                                        1
    Maximum number of iterations                         100
    Collapse subspace size                                 2
    Maximum subspace size                                  4
    --------------------------------------------------------

  Davidson-Liu solver: adding 1 guess vectors
  Iteration     Average Energy            max(∆E)            max(Residual)  Vectors
  ---------------------------------------------------------------------------------
       0      -99.406065223640        0.000000000000        0.000000000000      1
  ---------------------------------------------------------------------------------

  ==> Root No. 0 <==

    20     -0.94559233
    02      0.31011305
    ba     -0.06958825
    ab     -0.06958825

    Total Energy:     -99.406065223640, <S^2>: 0.000000
    Time for FCI:       0.000141250000

  ==> Energy Summary <==

    Multi.(2ms)  Irrep.  No.               Energy      <S^2>
    --------------------------------------------------------
       1  (  0)    A1     0      -99.406065223640   0.000000
    --------------------------------------------------------
  Computing RDMs for dipole moments ... Done

  ==> Summary of Dipole Moments [e a0] (Nuclear + Electronic) <==

       State           DM_X           DM_Y           DM_Z           |DM|
    --------------------------------------------------------------------
         0A1     0.00000000     0.00000000     0.47003595     0.47003595
    --------------------------------------------------------------------
     Nuclear     0.00000000     0.00000000     1.40664889     1.40664889
    --------------------------------------------------------------------

  ==> Natural Orbitals <==

        3A1     1.802861      4A1     0.197139  

  Canonicalizing final MCSCF orbitals

  ==> Semicanonicalize Orbitals <==

    MIX INACTIVE ORBITALS         TRUE
    MIX GAS ACTIVE ORBITALS       FALSE
    GAS1                          CANONICAL
    INACTIVE_DOCC                 CANONICAL
    INACTIVE_UOCC                 CANONICAL

    Off-Diag. Elements       Max           2-Norm
    ------------------------------------------------
    GAS1                 0.0024594234   0.0034781500
    INACTIVE_DOCC        0.0000065366   0.0000092442
    INACTIVE_UOCC        0.0300249350   0.0445129379
    ------------------------------------------------

    Canonicalization test failed

  Timing for orbital canonicalization:                        0.000 s.
  Integrals are about to be updated.
  Computing Conventional Integrals	Presorting SO-basis two-electron integrals.
	Sorting File: SO Ints (nn|nn) nbuckets = 1
	Constructing frozen core operators
	Starting first half-transformation.
	Sorting half-transformed integrals.
	First half integral transformation complete.
	Starting second half-transformation.
	Two-electron integral transformation complete.

  Integral transformation done. 0.00420738 s
  Reading the two-electron integrals from disk
  Size of two-electron integrals:   0.000327 GB
  Timing for conventional integral transformation:            0.008 s.
  Timing for freezing core and virtual orbitals:              0.000 s.
  Integrals update took     0.008 s.

  The integrals are not consistent with the orbitals. Re-transforming them.


  ==> String Lists <==

    --------------------------------------------------------
    number of alpha electrons                              1
    number of beta electrons                               1
    number of alpha strings                                2
    number of beta strings                                 2
    --------------------------------------------------------

  ==> FCI Solver <==

    --------------------------------------------------------
    Spin adapt                                         FALSE
    Number of determinants                                 4
    Symmetry                                               0
    Multiplicity                                           1
    Number of roots                                        1
    Target root                                            0
    --------------------------------------------------------

  ==> Initial Guess <==

  Initial guess determinants:         4

  Classification of the initial guess solutions

  Number   2S+1   Selected
  ------------------------
     3       1       *
     1       3        
  ------------------------

    Spin    Root           Energy        <S^2>    Status
  -------------------------------------------------------
   singlet    0      -99.406065223640  +0.000000  added
  -------------------------------------------------------

  ==> Davidson-Liu Solver <==

    --------------------------------------------------------
    Print level                                      Default
    Energy convergence threshold                   1.000e-06
    Residual convergence threshold                 1.000e-06
    Schmidt orthogonality threshold                1.000e-12
    Schmidt discard threshold                      1.000e-07
    Size of the space                                      4
    Number of roots                                        1
    Maximum number of iterations                         100
    Collapse subspace size                                 2
    Maximum subspace size                                  4
    --------------------------------------------------------

  Davidson-Liu solver: adding 1 guess vectors
  Iteration     Average Energy            max(∆E)            max(Residual)  Vectors
  ---------------------------------------------------------------------------------
       0      -99.406065223640       99.406065223640        0.000000000000      1
       1      -99.406065223640        0.000000000000        0.000000000000      2
  ---------------------------------------------------------------------------------

  ==> Root No. 0 <==

    20      0.94498921
    02     -0.30950994
    ab      0.07482975
    ba      0.07482975

    Total Energy:     -99.406065223640, <S^2>: 0.000000
    Time for FCI:       0.000138417000

  ==> Energy Summary <==

    Multi.(2ms)  Irrep.  No.               Energy      <S^2>
    --------------------------------------------------------
       1  (  0)    A1     0      -99.406065223640   0.000000
    --------------------------------------------------------
  Computing RDMs for dipole moments ... Done

  ==> Summary of Dipole Moments [e a0] (Nuclear + Electronic) <==

       State           DM_X           DM_Y           DM_Z           |DM|
    --------------------------------------------------------------------
         0A1     0.00000000     0.00000000     0.49437045     0.49437045
    --------------------------------------------------------------------
     Nuclear     0.00000000     0.00000000     1.40664889     1.40664889
    --------------------------------------------------------------------

  Time to prepare integrals:        0.162 seconds
  Time to run job          :        0.025 seconds
  Total                    :        0.186 seconds
    MCSCF energy..........................................................................PASSED

Scratch directory: /tmp/

  Forte
  ----------------------------------------------------------------------------
  A suite of quantum chemistry methods for strongly correlated electrons

    git branch: ortho_orbs_fe - git commit: 5c365f5c

  Developed by:
    Francesco A. Evangelista, Chenyang Li, Kevin P. Hannon,
    Jeffrey B. Schriber, Tianyuan Zhang, Chenxi Cai,
    Nan He, Nicholas Stair, Shuhe Wang, Renke Huang
  ----------------------------------------------------------------------------


  Preparing forte objects from a Psi4 Wavefunction object   => Loading Basis Set <=

    Name: 3-21G
    Role: ORBITAL
    Keyword: BASIS
    atoms 1 entry F          line   101 file /Users/fevange/Source/psi4/objdir-Release/stage/share/psi4/basis/3-21g.gbs 
    atoms 2 entry H          line    21 file /Users/fevange/Source/psi4/objdir-Release/stage/share/psi4/basis/3-21g.gbs 



  ==> MO Space Information <==

  -------------------------------------------------
                       A1    A2    B1    B2   Sum
  -------------------------------------------------
    FROZEN_DOCC         1     0     0     0     1
    RESTRICTED_DOCC     1     0     1     1     3
    GAS1                2     0     0     0     2
    GAS2                0     0     0     0     0
    GAS3                0     0     0     0     0
    GAS4                0     0     0     0     0
    GAS5                0     0     0     0     0
    GAS6                0     0     0     0     0
    RESTRICTED_UOCC     3     0     1     1     5
    FROZEN_UOCC         0     0     0     0     0
    Total               7     0     2     2    11
  -------------------------------------------------   => Loading Basis Set <=

    Name: STO-3G
    Role: ORBITAL
    Keyword: MINAO_BASIS
    atoms 1 entry F          line    91 file /Users/fevange/Source/psi4/objdir-Release/stage/share/psi4/basis/sto-3g.gbs 
    atoms 2 entry H          line    19 file /Users/fevange/Source/psi4/objdir-Release/stage/share/psi4/basis/sto-3g.gbs 


  State Singlet (Ms = 0) A1 GAS min: 0 0 0 0 0 0 ; GAS max: 4 0 0 0 0 0 ; weights:
      1.000000000000
  Forte will use psi4 integrals

  ==> Primary Basis Set Summary <==

  Basis Set: 3-21G
    Blend: 3-21G
    Number of shells: 7
    Number of basis functions: 11
    Number of Cartesian functions: 11
    Spherical Harmonics?: false
    Max angular momentum: 1


  JK created using Cholesky integrals
  ==> CDJK: Cholesky-decomposed J/K Matrices <==

    J tasked:                     Yes
    K tasked:                     Yes
    wK tasked:                     No
    OpenMP threads:                 1
    Integrals threads:              1
    Memory [MiB]:                 400
    Algorithm:                   Core
    Integral Cache:              NONE
    Schwarz Cutoff:             1E-12
    Cholesky tolerance:      1.00E-04
    No. Cholesky vectors:          43



  ==> Integral Transformation <==

  Number of molecular orbitals:                         11
  Number of correlated molecular orbitals:              10
  Number of frozen occupied orbitals:                    1
  Number of frozen unoccupied orbitals:                  0
  Two-electron integral type:              Cholesky decomposition


  Computing the Cholesky Vectors 

  Computing CD Integrals
  Timing for cholesky transformation:                         0.001 s.
  Need 41.62 KB to store CD integrals in core

  Number of Cholesky vectors required for 1.000e-04 tolerance: 43

  Frozen-core energy         -75.818535539885247 a.u.
  Timing for frozen one-body operator:                        0.000 s.
  Resorting integrals after freezing core.
  Timing for freezing core and virtual orbitals:              0.000 s.
  Timing for computing Cholesky integrals:                    0.001 s.

  Skipping MCSCF computation. Using HF or orbitals passed via ref_wfn


  ==> String Lists <==

    --------------------------------------------------------
    number of alpha electrons                              1
    number of beta electrons                               1
    number of alpha strings                                2
    number of beta strings                                 2
    --------------------------------------------------------

  ==> FCI Solver <==

    --------------------------------------------------------
    Spin adapt                                         FALSE
    Number of determinants                                 4
    Symmetry                                               0
    Multiplicity                                           1
    Number of roots                                        1
    Target root                                            0
    --------------------------------------------------------

  ==> Initial Guess <==

  Initial guess determinants:         4

  Classification of the initial guess solutions

  Number   2S+1   Selected
  ------------------------
     3       1       *
     1       3        
  ------------------------

    Spin    Root           Energy        <S^2>    Status
  -------------------------------------------------------
   singlet    0     -175.224591654061  +0.000000  added
  -------------------------------------------------------

  ==> Davidson-Liu Solver <==

    --------------------------------------------------------
    Print level                                      Default
    Energy convergence threshold                   1.000e-08
    Residual convergence threshold                 1.000e-06
    Schmidt orthogonality threshold                1.000e-12
    Schmidt discard threshold                      1.000e-07
    Size of the space                                      4
    Number of roots                                        1
    Maximum number of iterations                         100
    Collapse subspace size                                 2
    Maximum subspace size                                  4
    --------------------------------------------------------

  Davidson-Liu solver: adding 1 guess vectors
  Iteration     Average Energy            max(∆E)            max(Residual)  Vectors
  ---------------------------------------------------------------------------------
       0      -99.406056114176       99.406056114176        0.000000000000      1
       1      -99.406056114176        0.000000000000        0.000000000000      2
  ---------------------------------------------------------------------------------

  ==> Root No. 0 <==

    20      0.94498831
    02     -0.30951227
    ab      0.07483067
    ba      0.07483067

    Total Energy:     -99.406056114176, <S^2>: 0.000000
    Time for FCI:       0.000158458000

  ==> Energy Summary <==

    Multi.(2ms)  Irrep.  No.               Energy      <S^2>
    --------------------------------------------------------
       1  (  0)    A1     0      -99.406056114176   0.000000
    --------------------------------------------------------
  Computing RDMs for dipole moments ... Done

  ==> Summary of Dipole Moments [e a0] (Nuclear + Electronic) <==

       State           DM_X           DM_Y           DM_Z           |DM|
    --------------------------------------------------------------------
         0A1     0.00000000     0.00000000     0.49436556     0.49436556
    --------------------------------------------------------------------
     Nuclear     0.00000000     0.00000000     1.40664889     1.40664889
    --------------------------------------------------------------------

  ==> Natural Orbitals <==

        3A1     1.802858      4A1     0.197142  


  ==> Semicanonicalize Orbitals <==

    MIX INACTIVE ORBITALS         FALSE
    MIX GAS ACTIVE ORBITALS       FALSE
    FROZEN_DOCC                   CANONICAL
    FROZEN_UOCC                   CANONICAL
    GAS1                          CANONICAL
    RESTRICTED_DOCC               CANONICAL
    RESTRICTED_UOCC               CANONICAL

    Off-Diag. Elements       Max           2-Norm
    ------------------------------------------------
    FROZEN_DOCC          0.0000000000   0.0000000000
    GAS1                 0.0000003892   0.0000005504
    RESTRICTED_DOCC      0.0000000000   0.0000000000
    RESTRICTED_UOCC      0.0000149791   0.0000234993
    ------------------------------------------------

    Canonicalization test failed

  Integrals are about to be updated.
  Computing the Cholesky Vectors 

  Computing CD Integrals
  Timing for cholesky transformation:                         0.001 s.
  Need 41.62 KB to store CD integrals in core

  Number of Cholesky vectors required for 1.000e-04 tolerance: 43

  Frozen-core energy         -75.818535539885247 a.u.
  Timing for frozen one-body operator:                        0.000 s.
  Resorting integrals after freezing core.
  Timing for freezing core and virtual orbitals:              0.000 s.
  Integrals update took     0.001 s.
  Orbital rotations on spin-free RDMs ...
    Transformed 1 RDMs.
    Transformed 2 RDMs.
    Transformed 3 RDMs.
  Timing for orbital canonicalization:                        0.028 s.

    -----------------------------------------------------------------------
      Spin-Adapted Multireference Driven Similarity Renormalization Group
                            written by Chenyang Li
                                 1 OMP thread
    -----------------------------------------------------------------------

  Disclaimer:
    The spin-adapted DSRG code is largely adopted from the spin-integrated code developed by
    Chenyang Li, Kevin P. Hannon, Tianyuan Zhang, and Francesco A. Evangelista.

  ==> Multireference Driven Similarity Renormalization Group <==

    Computing Fock matrix and cleaning JK ....... Done. Timing      0.000 s
    Reading DSRG options ........................ Done. Timing      0.000 s
    Setting ambit MO space ...................... Done. Timing      0.000 s
    Initializing density cumulants .............. Done. Timing      0.000 s
    Filling Fock matrix from ForteIntegrals ..... Done. Timing      0.000 s

  ==> Density Cumulant Summary <==

             2-cumulant   3-cumulant
    --------------------------------
    max        0.589494     0.283342
    2-norm     1.043938     0.856053
    --------------------------------

  ==> Checking Semicanonical Orbitals <==

    Block                Max            Mean
    ----------------------------------------
    CORE        0.0000000000    0.0000000000
    VIRTUAL     0.0000000000    0.0000000000
    GAS1        0.0000000000    0.0000000000
    ----------------------------------------
    Orbitals are semi-canonicalized.

  ==> Calculation Information <==

    --------------------------------------------------------
    Correlation level                                 LDSRG2
    Integral type                                   CHOLESKY
    Source operator                                 STANDARD
    Reference relaxation                               TWICE
    3RDM algorithm                                  EXPLICIT
    Core-Virtual source type                          NORMAL
    T1 amplitudes initial guess                          PT2
    Restart amplitudes                                  TRUE
    Sequential DSRG transformation                      TRUE
    Omit blocks of >= 3 virtual indices                 TRUE
    Read amplitudes from current dir                    TRUE
    Write amplitudes to current dir                    FALSE
    Use adaptive RSC threshold                          TRUE
    Flow parameter                                 1.000e+00
    Energy convergence threshold                   1.000e-08
    Residual convergence threshold                 1.000e-06
    Recursive single commutator threshold          1.000e-12
    Adaptive RSC threshold                         1.000e-03
    Adaptive RSC delta E                           5.000e-05
    Taylor expansion threshold                     1.000e-03
    Intruder amplitudes threshold                  1.000e-01
    Max number of iterations                              50
    Max nested commutators                                 4
    DIIS start                                             2
    Min DIIS vectors                                       3
    Max DIIS vectors                                       8
    DIIS extrapolating freq                                1
    Number of amplitudes for printing                     15
    --------------------------------------------------------

  ==> MR-DSRG (LDSRG2) Memory Information <==

    Memory assigned by the user                    524.29 MB
    Memory available for MR-DSRG                   471.82 MB
    Generalized Fock matrix                        880.00  B
    1-, 2-, and 3-density cumulants                704.00  B
    1-electron and 3-index integrals                35.20 KB
    T1 cluster amplitudes and residuals            560.00  B
    T2 cluster amplitudes and residuals             29.40 KB
    1-body Hbar and intermediates                    2.40 KB
    2-body Hbar and intermediates                  165.00 KB
    Local intermediates for sequential Hbar         34.40 KB
    Local intermediates for commutators             41.44 KB
    Max memory for local intermediates              41.44 KB
    Memory currently available                     471.59 MB

  =>** Before self.dsrg_solver.compute_energy() **<=


  ==> Build Initial Amplitudes Guesses <==

    Reading T2 from current dir ................. Done. Timing      0.000 s
    Reading T1 from current dir ................. Done. Timing      0.000 s

  ==> Initial Excitation Amplitudes Summary <==

    Active Indices:    1    2
    Largest T1 amplitudes (absolute values):
        i    a                i    a                i    a
    -----------------------------------------------------------------
    [   2    4] 0.0906383 [   2    3] 0.0887236 [   0    1] 0.0488400
    [   1    4] 0.0142270 [   0    2] 0.0107355 [   1    3] 0.0054529
    [   2    5] 0.0025646 [   1    5] 0.0020289 [   6    7] 0.0009426
    [   8    9] 0.0009426 [   0    5] 0.0009146 [   0    4] 0.0006995
    [   0    3] 0.0005096
    -----------------------------------------------------------------
    2-Norm of T1 vector:                            0.137236949016466
    Number of nonzero elements:                                    13
    -----------------------------------------------------------------
    Largest T2 amplitudes (absolute values):
        i    j    a    b                i    j    a    b                i    j    a    b
    -----------------------------------------------------------------------------------------------
    [   0    0    1    1] 0.0672644 [   2    2    2    3] 0.0591047 [   1    2    1    3] 0.0479228
    [   2    1    2    3] 0.0452714 [   8    8    9    9] 0.0414926 [   6    6    7    7] 0.0414926
    [   1    6    1    7] 0.0412185 [   1    8    1    9] 0.0412185 [   0    0    1    2] 0.0390504
    [   2    2    3    3] 0.0387551 [   2    8    1    9] 0.0348935 [   2    6    1    7] 0.0348935
    [   2    2    1    4] 0.0344744 [   6    8    7    9] 0.0299083 [   2    8    2    9] 0.0294833
    -----------------------------------------------------------------------------------------------
    2-Norm of T2 vector:                                                          0.297694406838587
    Number of nonzero elements:                                                                 405
    -----------------------------------------------------------------------------------------------

  ==> Possible Intruders <==

    T1 amplitudes larger than 0.1000: NULL
    T2 amplitudes larger than 0.1000: NULL

  ==> Computing MR-LDSRG(2) Energy <==

    Reference:
      J. Chem. Phys. 2016, 144, 164114.

                  Energy (a.u.)           Non-Diagonal Norm        Amplitude RMS          Timings (s)
           ---------------------------  ---------------------  ---------------------  ------------------
    Iter.        Corr.         Delta       Hbar1      Hbar2        T1         T2         Hbar     Amp.    Ncomm   DIIS
    ------------------------------------------------------------------------------------------------------------------
    Warning! Hbar is not converged in   4-nested commutators!
    Please increase DSRG_RSC_NCOMM.
       1    -0.031256573027 -3.126e-02   6.126e-01  1.514e+00   1.923e-01  3.819e-01     0.155    0.000     4
    Warning! Hbar is not converged in   4-nested commutators!
    Please increase DSRG_RSC_NCOMM.
       2    -0.084824281914 -5.357e-02   9.866e-02  5.478e-01   2.897e-02  1.740e-01     0.154    0.000     4      S
    Warning! Hbar is not converged in   4-nested commutators!
    Please increase DSRG_RSC_NCOMM.
       3    -0.091628940610 -6.805e-03   9.341e-02  2.160e-01   1.216e-02  5.549e-02     0.153    0.000     4      S
    Warning! Hbar is not converged in   4-nested commutators!
    Please increase DSRG_RSC_NCOMM.
       4    -0.092453720965 -8.248e-04   8.185e-02  1.504e-01   3.271e-03  1.595e-02     0.151    0.000     4      S/E
    Warning! Hbar is not converged in   4-nested commutators!
    Please increase DSRG_RSC_NCOMM.
       5    -0.092803159327 -3.494e-04   8.155e-02  1.432e-01   6.078e-04  1.306e-03     0.153    0.000     4      S/E
    Warning! Hbar is not converged in   4-nested commutators!
    Please increase DSRG_RSC_NCOMM.
       6    -0.092806526733 -3.367e-06   8.168e-02  1.430e-01   6.948e-05  3.671e-04     0.152    0.000     4      S/E
    Warning! Hbar is not converged in   4-nested commutators!
    Please increase DSRG_RSC_NCOMM.
       7    -0.092807602450 -1.076e-06   8.166e-02  1.429e-01   8.248e-06  7.738e-05     0.151    0.000     4      S/E
    Warning! Hbar is not converged in   4-nested commutators!
    Please increase DSRG_RSC_NCOMM.
       8    -0.092807795084 -1.926e-07   8.166e-02  1.429e-01   2.120e-06  2.126e-05     0.153    0.000     4      S/E
    Warning! Hbar is not converged in   4-nested commutators!
    Please increase DSRG_RSC_NCOMM.
       9    -0.092807649494  1.456e-07   8.166e-02  1.429e-01   8.027e-07  8.308e-06     0.152    0.000     4      S/E
    Warning! Hbar is not converged in   4-nested commutators!
    Please increase DSRG_RSC_NCOMM.
      10    -0.092807635773  1.372e-08   8.166e-02  1.429e-01   2.182e-07  2.012e-06     0.150    0.000     4      S/E
    Warning! Hbar is not converged in   4-nested commutators!
    Please increase DSRG_RSC_NCOMM.
      11    -0.092807615692  2.008e-08   8.166e-02  1.429e-01   5.834e-08  3.997e-07     0.152    0.000     4      S/E
    Warning! Hbar is not converged in   4-nested commutators!
    Please increase DSRG_RSC_NCOMM.
      12    -0.092807608698  6.995e-09   8.166e-02  1.429e-01   1.902e-08  7.646e-08     0.151    0.000     4      S/E
    ------------------------------------------------------------------------------------------------------------------

  ==> MR-LDSRG(2) Energy Summary <==

    E0 (reference)                 =     -99.406056114176025
    MR-LDSRG(2) correlation energy =      -0.092807608697723
    MR-LDSRG(2) total energy       =     -99.498863722873750

  ==> Final Excitation Amplitudes Summary <==

    Active Indices:    1    2
    Largest T1 amplitudes (absolute values):
        i    a                i    a                i    a
    -----------------------------------------------------------------
    [   2    4] 0.0906375 [   2    3] 0.0887234 [   0    1] 0.0488390
    [   1    4] 0.0142258 [   0    2] 0.0107370 [   1    3] 0.0054536
    [   2    5] 0.0025632 [   1    5] 0.0020291 [   6    7] 0.0009432
    [   8    9] 0.0009432 [   0    5] 0.0009148 [   0    4] 0.0006993
    [   0    3] 0.0005092
    -----------------------------------------------------------------
    2-Norm of T1 vector:                            0.137235858600127
    Number of nonzero elements:                                    13
    -----------------------------------------------------------------
    Largest T2 amplitudes (absolute values):
        i    j    a    b                i    j    a    b                i    j    a    b
    -----------------------------------------------------------------------------------------------
    [   0    0    1    1] 0.0672609 [   2    2    2    3] 0.0591053 [   1    2    1    3] 0.0479232
    [   2    1    2    3] 0.0452707 [   8    8    9    9] 0.0414928 [   6    6    7    7] 0.0414928
    [   1    8    1    9] 0.0412196 [   1    6    1    7] 0.0412196 [   0    0    1    2] 0.0390483
    [   2    2    3    3] 0.0387551 [   2    6    1    7] 0.0348943 [   2    8    1    9] 0.0348943
    [   2    2    1    4] 0.0344755 [   6    8    7    9] 0.0299086 [   2    8    2    9] 0.0294839
    -----------------------------------------------------------------------------------------------
    2-Norm of T2 vector:                                                          0.297697380812511
    Number of nonzero elements:                                                                 405
    -----------------------------------------------------------------------------------------------

  ==> Possible Intruders <==

    T1 amplitudes larger than 0.1000: NULL
    T2 amplitudes larger than 0.1000: NULL
    Dumping amplitudes to scratch dir ........... Done. Timing      0.000 s
  =>** After self.dsrg_solver.compute_energy() **<=

  =>** In reference relaxation loop **<=


  ==> De-Normal-Order 2-Body DSRG Transformed Hamiltonian <==

    Computing the scalar term ................... Done. Timing      0.000 s
    Computing the 1-body term ................... Done. Timing      0.000 s

  ==> String Lists <==

    --------------------------------------------------------
    number of alpha electrons                              1
    number of beta electrons                               1
    number of alpha strings                                2
    number of beta strings                                 2
    --------------------------------------------------------

  ==> FCI Solver <==

    --------------------------------------------------------
    Spin adapt                                         FALSE
    Number of determinants                                 4
    Symmetry                                               0
    Multiplicity                                           1
    Number of roots                                        1
    Target root                                            0
    --------------------------------------------------------

  ==> Initial Guess <==

  Initial guess determinants:         4

  Classification of the initial guess solutions

  Number   2S+1   Selected
  ------------------------
     3       1       *
     1       3        
  ------------------------

    Spin    Root           Energy        <S^2>    Status
  -------------------------------------------------------
   singlet    0     -175.318900901135  +0.000000  added
  -------------------------------------------------------

  ==> Davidson-Liu Solver <==

    --------------------------------------------------------
    Print level                                      Default
    Energy convergence threshold                   1.000e-08
    Residual convergence threshold                 1.000e-06
    Schmidt orthogonality threshold                1.000e-12
    Schmidt discard threshold                      1.000e-07
    Size of the space                                      4
    Number of roots                                        1
    Maximum number of iterations                         100
    Collapse subspace size                                 2
    Maximum subspace size                                  4
    --------------------------------------------------------

  Davidson-Liu solver: adding 1 guess vectors
  Iteration     Average Energy            max(∆E)            max(Residual)  Vectors
  ---------------------------------------------------------------------------------
       0      -99.500365361250        0.094309247074        0.000000000000      1
       1      -99.500365361250        0.000000000000        0.000000000000      2
  ---------------------------------------------------------------------------------

  ==> Root No. 0 <==

    20      0.96092045
    02     -0.26607774
    ba      0.05401169
    ab      0.05401169

    Total Energy:     -99.500365361250, <S^2>: 0.000000
    Time for FCI:       0.000173583000

  ==> Energy Summary <==

    Multi.(2ms)  Irrep.  No.               Energy      <S^2>
    --------------------------------------------------------
       1  (  0)    A1     0      -99.500365361250   0.000000
    --------------------------------------------------------
  Computing RDMs for dipole moments ... Done

  ==> Summary of Dipole Moments [e a0] (Nuclear + Electronic) <==

       State           DM_X           DM_Y           DM_Z           |DM|
    --------------------------------------------------------------------
         0A1     0.00000000     0.00000000     0.60203091     0.60203091
    --------------------------------------------------------------------
     Nuclear     0.00000000     0.00000000     1.40664889     1.40664889
    --------------------------------------------------------------------

 Permutations: [0]

  ==> Natural Orbitals <==

        3A1     1.855868      4A1     0.144132  

  Orbital rotations on spin-free RDMs ...
    Transformed 1 RDMs.
    Transformed 2 RDMs.
    Transformed 3 RDMs.

  ==> Semicanonicalize Orbitals <==

    MIX INACTIVE ORBITALS         FALSE
    MIX GAS ACTIVE ORBITALS       FALSE
  JK object had been finalized. JK is about to be initialized.

    FROZEN_DOCC                   CANONICAL
    FROZEN_UOCC                   CANONICAL
    GAS1                          CANONICAL
    RESTRICTED_DOCC               CANONICAL
    RESTRICTED_UOCC               CANONICAL

    Off-Diag. Elements       Max           2-Norm
    ------------------------------------------------
    FROZEN_DOCC          0.0000000000   0.0000000000
    GAS1                 0.0040508877   0.0057288204
    RESTRICTED_DOCC      0.0000000000   0.0000000000
    RESTRICTED_UOCC      0.0020289834   0.0047255702
    ------------------------------------------------

    Canonicalization test failed

  Integrals are about to be updated.
  Computing the Cholesky Vectors 

  Computing CD Integrals
  Timing for cholesky transformation:                         0.001 s.
  Need 41.62 KB to store CD integrals in core

  Number of Cholesky vectors required for 1.000e-04 tolerance: 43

  Frozen-core energy         -75.818535539885247 a.u.
  Timing for frozen one-body operator:                        0.000 s.
  Resorting integrals after freezing core.
  Timing for freezing core and virtual orbitals:              0.000 s.
  Integrals update took     0.001 s.
  Orbital rotations on spin-free RDMs ...
    Transformed 1 RDMs.
    Transformed 2 RDMs.
    Transformed 3 RDMs.
  Timing for orbital canonicalization:                        0.029 s.

    -----------------------------------------------------------------------
      Spin-Adapted Multireference Driven Similarity Renormalization Group
                            written by Chenyang Li
                                 1 OMP thread
    -----------------------------------------------------------------------

  Disclaimer:
    The spin-adapted DSRG code is largely adopted from the spin-integrated code developed by
    Chenyang Li, Kevin P. Hannon, Tianyuan Zhang, and Francesco A. Evangelista.

  ==> Multireference Driven Similarity Renormalization Group <==

    Computing Fock matrix and cleaning JK ....... Done. Timing      0.000 s
    Reading DSRG options ........................ Done. Timing      0.000 s
    Setting ambit MO space ...................... Done. Timing      0.000 s
    Initializing density cumulants .............. Done. Timing      0.000 s
    Filling Fock matrix from ForteIntegrals ..... Done. Timing      0.000 s

  ==> Density Cumulant Summary <==

             2-cumulant   3-cumulant
    --------------------------------
    max        0.515026     0.228302
    2-norm     0.865812     0.686807
    --------------------------------

  ==> Checking Semicanonical Orbitals <==

    Block                Max            Mean
    ----------------------------------------
    CORE        0.0000000000    0.0000000000
    VIRTUAL     0.0000000000    0.0000000000
    GAS1        0.0000000000    0.0000000000
    ----------------------------------------
    Orbitals are semi-canonicalized.

  ==> Calculation Information <==

    --------------------------------------------------------
    Correlation level                                 LDSRG2
    Integral type                                   CHOLESKY
    Source operator                                 STANDARD
    Reference relaxation                               TWICE
    3RDM algorithm                                  EXPLICIT
    Core-Virtual source type                          NORMAL
    T1 amplitudes initial guess                          PT2
    Restart amplitudes                                  TRUE
    Sequential DSRG transformation                      TRUE
    Omit blocks of >= 3 virtual indices                 TRUE
    Read amplitudes from current dir                    TRUE
    Write amplitudes to current dir                    FALSE
    Use adaptive RSC threshold                          TRUE
    Flow parameter                                 1.000e+00
    Energy convergence threshold                   1.000e-08
    Residual convergence threshold                 1.000e-06
    Recursive single commutator threshold          1.000e-12
    Adaptive RSC threshold                         1.000e-03
    Adaptive RSC delta E                           5.000e-05
    Taylor expansion threshold                     1.000e-03
    Intruder amplitudes threshold                  1.000e-01
    Max number of iterations                              50
    Max nested commutators                                 4
    DIIS start                                             2
    Min DIIS vectors                                       3
    Max DIIS vectors                                       8
    DIIS extrapolating freq                                1
    Number of amplitudes for printing                     15
    --------------------------------------------------------

  ==> MR-DSRG (LDSRG2) Memory Information <==

    Memory assigned by the user                    524.29 MB
    Memory available for MR-DSRG                   471.82 MB
    Generalized Fock matrix                        880.00  B
    1-, 2-, and 3-density cumulants                704.00  B
    1-electron and 3-index integrals                35.20 KB
    T1 cluster amplitudes and residuals            560.00  B
    T2 cluster amplitudes and residuals             29.40 KB
    1-body Hbar and intermediates                    2.40 KB
    2-body Hbar and intermediates                  165.00 KB
    Local intermediates for sequential Hbar         34.40 KB
    Local intermediates for commutators             41.44 KB
    Max memory for local intermediates              41.44 KB
    Memory currently available                     471.59 MB


  ==> Total Timings (s) for Computing Commutators <==

           [H1, T1]    [H1, T2]    [H2, T1]    [H2, T2]  
    -----------------------------------------------------
    -> C0       0.000       0.003       0.000       0.099
    -> C1       0.000       0.039       0.000       0.505
    -> C2                   0.094       0.000       1.016
    -----------------------------------------------------


  ==> Build Initial Amplitudes Guesses <==

    Reading previous T2 from scratch dir ........ Done. Timing      0.000 s
    Reading previous T1 from scratch dir ........ Done. Timing      0.000 s

  ==> Initial Excitation Amplitudes Summary <==

    Active Indices:    1    2
    Largest T1 amplitudes (absolute values):
        i    a                i    a                i    a
    -----------------------------------------------------------------
    [   2    4] 0.0906375 [   2    3] 0.0887234 [   0    1] 0.0488390
    [   1    4] 0.0142258 [   0    2] 0.0107370 [   1    3] 0.0054536
    [   2    5] 0.0025632 [   1    5] 0.0020291 [   6    7] 0.0009432
    [   8    9] 0.0009432 [   0    5] 0.0009148 [   0    4] 0.0006993
    [   0    3] 0.0005092
    -----------------------------------------------------------------
    2-Norm of T1 vector:                            0.137235858600127
    Number of nonzero elements:                                    13
    -----------------------------------------------------------------
    Largest T2 amplitudes (absolute values):
        i    j    a    b                i    j    a    b                i    j    a    b
    -----------------------------------------------------------------------------------------------
    [   0    0    1    1] 0.0672609 [   2    2    2    3] 0.0591053 [   1    2    1    3] 0.0479232
    [   2    1    2    3] 0.0452707 [   8    8    9    9] 0.0414928 [   6    6    7    7] 0.0414928
    [   1    8    1    9] 0.0412196 [   1    6    1    7] 0.0412196 [   0    0    1    2] 0.0390483
    [   2    2    3    3] 0.0387551 [   2    6    1    7] 0.0348943 [   2    8    1    9] 0.0348943
    [   2    2    1    4] 0.0344755 [   6    8    7    9] 0.0299086 [   2    8    2    9] 0.0294839
    -----------------------------------------------------------------------------------------------
    2-Norm of T2 vector:                                                          0.297697380812511
    Number of nonzero elements:                                                                 405
    -----------------------------------------------------------------------------------------------

  ==> Possible Intruders <==

    T1 amplitudes larger than 0.1000: NULL
    T2 amplitudes larger than 0.1000: NULL

  ==> Computing MR-LDSRG(2) Energy <==

    Reference:
      J. Chem. Phys. 2016, 144, 164114.

                  Energy (a.u.)           Non-Diagonal Norm        Amplitude RMS          Timings (s)
           ---------------------------  ---------------------  ---------------------  ------------------
    Iter.        Corr.         Delta       Hbar1      Hbar2        T1         T2         Hbar     Amp.    Ncomm   DIIS
    ------------------------------------------------------------------------------------------------------------------
    Warning! Hbar is not converged in   4-nested commutators!
    Please increase DSRG_RSC_NCOMM.
       1    -0.095969039377 -9.597e-02   8.537e-02  1.420e-01   4.092e-03  5.187e-03     0.155    0.000     4
    Warning! Hbar is not converged in   4-nested commutators!
    Please increase DSRG_RSC_NCOMM.
       2    -0.096008315205 -3.928e-05   8.467e-02  1.478e-01   8.570e-04  2.017e-03     0.153    0.000     4      S
    Warning! Hbar is not converged in   4-nested commutators!
    Please increase DSRG_RSC_NCOMM.
       3    -0.096043531420 -3.522e-05   8.469e-02  1.461e-01   1.770e-04  6.409e-04     0.153    0.000     4      S
    Warning! Hbar is not converged in   4-nested commutators!
    Please increase DSRG_RSC_NCOMM.
       4    -0.096035526298  8.005e-06   8.470e-02  1.465e-01   4.107e-05  2.203e-04     0.151    0.000     4      S/E
    Warning! Hbar is not converged in   4-nested commutators!
    Please increase DSRG_RSC_NCOMM.
       5    -0.096038467872 -2.942e-06   8.469e-02  1.464e-01   7.717e-06  3.703e-05     0.153    0.000     4      S/E
    Warning! Hbar is not converged in   4-nested commutators!
    Please increase DSRG_RSC_NCOMM.
       6    -0.096038683548 -2.157e-07   8.469e-02  1.463e-01   1.680e-06  1.037e-05     0.153    0.000     4      S/E
    Warning! Hbar is not converged in   4-nested commutators!
    Please increase DSRG_RSC_NCOMM.
       7    -0.096038781227 -9.768e-08   8.469e-02  1.463e-01   5.186e-07  2.795e-06     0.151    0.000     4      S/E
    Warning! Hbar is not converged in   4-nested commutators!
    Please increase DSRG_RSC_NCOMM.
       8    -0.096038801635 -2.041e-08   8.469e-02  1.463e-01   1.330e-07  7.254e-07     0.152    0.000     4      S/E
    Warning! Hbar is not converged in   4-nested commutators!
    Please increase DSRG_RSC_NCOMM.
       9    -0.096038804151 -2.516e-09   8.469e-02  1.463e-01   3.297e-08  1.705e-07     0.152    0.000     4      S/E
    ------------------------------------------------------------------------------------------------------------------

  ==> MR-LDSRG(2) Energy Summary <==

    E0 (reference)                 =     -99.404144248921170
    MR-LDSRG(2) correlation energy =      -0.096038804151039
    MR-LDSRG(2) total energy       =     -99.500183053072206

  ==> Final Excitation Amplitudes Summary <==

    Active Indices:    1    2
    Largest T1 amplitudes (absolute values):
        i    a                i    a                i    a
    -----------------------------------------------------------------
    [   2    4] 0.0923853 [   2    3] 0.0872360 [   0    1] 0.0503814
    [   1    4] 0.0142447 [   0    2] 0.0109148 [   1    3] 0.0050861
    [   2    5] 0.0029181 [   1    5] 0.0020987 [   8    9] 0.0005816
    [   6    7] 0.0005816 [   0    4] 0.0005667 [   0    3] 0.0004779
    [   0    5] 0.0001320
    -----------------------------------------------------------------
    2-Norm of T1 vector:                            0.138005505461353
    Number of nonzero elements:                                    13
    -----------------------------------------------------------------
    Largest T2 amplitudes (absolute values):
        i    j    a    b                i    j    a    b                i    j    a    b
    -----------------------------------------------------------------------------------------------
    [   0    0    1    1] 0.0665255 [   2    2    2    3] 0.0576960 [   1    2    1    3] 0.0474798
    [   2    1    2    3] 0.0455813 [   8    8    9    9] 0.0414842 [   6    6    7    7] 0.0414842
    [   1    6    1    7] 0.0407593 [   1    8    1    9] 0.0407593 [   0    0    1    2] 0.0391701
    [   2    2    3    3] 0.0384925 [   2    8    1    9] 0.0348388 [   2    6    1    7] 0.0348388
    [   2    2    1    4] 0.0344655 [   6    8    7    9] 0.0298936 [   2    6    2    7] 0.0298017
    -----------------------------------------------------------------------------------------------
    2-Norm of T2 vector:                                                          0.296615005089429
    Number of nonzero elements:                                                                 405
    -----------------------------------------------------------------------------------------------

  ==> Possible Intruders <==

    T1 amplitudes larger than 0.1000: NULL
    T2 amplitudes larger than 0.1000: NULL
    Dumping amplitudes to scratch dir ........... Done. Timing      0.001 s
  =>** In reference relaxation loop **<=


  ==> De-Normal-Order 2-Body DSRG Transformed Hamiltonian <==

    Computing the scalar term ................... Done. Timing      0.000 s
    Computing the 1-body term ................... Done. Timing      0.000 s

  ==> String Lists <==

    --------------------------------------------------------
    number of alpha electrons                              1
    number of beta electrons                               1
    number of alpha strings                                2
    number of beta strings                                 2
    --------------------------------------------------------

  ==> FCI Solver <==

    --------------------------------------------------------
    Spin adapt                                         FALSE
    Number of determinants                                 4
    Symmetry                                               0
    Multiplicity                                           1
    Number of roots                                        1
    Target root                                            0
    --------------------------------------------------------

  ==> Initial Guess <==

  Initial guess determinants:         4

  Classification of the initial guess solutions

  Number   2S+1   Selected
  ------------------------
     3       1       *
     1       3        
  ------------------------

    Spin    Root           Energy        <S^2>    Status
  -------------------------------------------------------
   singlet    0     -175.318718929435  +0.000000  added
  -------------------------------------------------------

  ==> Davidson-Liu Solver <==

    --------------------------------------------------------
    Print level                                      Default
    Energy convergence threshold                   1.000e-08
    Residual convergence threshold                 1.000e-06
    Schmidt orthogonality threshold                1.000e-12
    Schmidt discard threshold                      1.000e-07
    Size of the space                                      4
    Number of roots                                        1
    Maximum number of iterations                         100
    Collapse subspace size                                 2
    Maximum subspace size                                  4
    --------------------------------------------------------

  Davidson-Liu solver: adding 1 guess vectors
  Iteration     Average Energy            max(∆E)            max(Residual)  Vectors
  ---------------------------------------------------------------------------------
       0      -99.500183389550        0.000181971700        0.000000000000      1
       1      -99.500183389550        0.000000000000        0.000000000000      2
  ---------------------------------------------------------------------------------

  ==> Root No. 0 <==

    20      0.96113664
    02     -0.26542303
    ba      0.05369811
    ab      0.05369811

    Total Energy:     -99.500183389550, <S^2>: 0.000000
    Time for FCI:       0.000168917000

  ==> Energy Summary <==

    Multi.(2ms)  Irrep.  No.               Energy      <S^2>
    --------------------------------------------------------
       1  (  0)    A1     0      -99.500183389550   0.000000
    --------------------------------------------------------
  Computing RDMs for dipole moments ... Done

  ==> Summary of Dipole Moments [e a0] (Nuclear + Electronic) <==

       State           DM_X           DM_Y           DM_Z           |DM|
    --------------------------------------------------------------------
         0A1     0.00000000     0.00000000     0.60369400     0.60369400
    --------------------------------------------------------------------
     Nuclear     0.00000000     0.00000000     1.40664889     1.40664889
    --------------------------------------------------------------------

 Permutations: [0]

  => SA-MRDSRG Reference Relaxation Energy Summary <=

                         Fixed Ref. (a.u.)              Relaxed Ref. (a.u.)
           -------------------------------  -------------------------------
    Iter.          Total Energy      Delta          Total Energy      Delta
    -----------------------------------------------------------------------
        1      -99.498863722874 -9.950e+01      -99.500365361250 -9.950e+01
        2      -99.500183053072 -1.319e-03      -99.500183389550  1.820e-04
    -----------------------------------------------------------------------
  Semicanonical orbitals must be used!


  ==> Total Timings (s) for Computing Commutators <==

           [H1, T1]    [H1, T2]    [H2, T1]    [H2, T2]  
    -----------------------------------------------------
    -> C0       0.000       0.003       0.000       0.076
    -> C1       0.000       0.030       0.000       0.380
    -> C2                   0.071       0.000       0.761
    -----------------------------------------------------


  Time to prepare integrals:        0.017 seconds
  Time to run job          :        3.376 seconds
  Total                    :        3.392 seconds
    MRDSRG unrelaxed energy...............................................................PASSED
    MRDSRG partially relaxed energy.......................................................PASSED
    MRDSRG relaxed energy.................................................................PASSED

    Psi4 stopped on: Thursday, 31 October 2024 08:52AM
    Psi4 wall time for execution: 0:00:03.81

*** Psi4 exiting successfully. Buy a developer a beer!
