
    -----------------------------------------------------------------------
          Psi4: An Open-Source Ab Initio Electronic Structure Package
                               Psi4 1.1a2.dev169 

                         Git: Rev {master} b2d0904 


    J. M. Turney, A. C. Simmonett, R. M. Parrish, E. G. Hohenstein,
    F. A. Evangelista, J. T. Fermann, B. J. Mintz, L. A. Burns, J. J. Wilke,
    M. L. Abrams, N. J. Russ, M. L. Leininger, C. L. Janssen, E. T. Seidl,
    W. D. Allen, H. F. Schaefer, R. A. King, E. F. Valeev, C. D. Sherrill,
    and T. D. Crawford, WIREs Comput. Mol. Sci. 2, 556-565 (2012)
    (doi: 10.1002/wcms.93)


                         Additional Contributions by
    A. E. DePrince, U. Bozkaya, A. Yu. Sokolov, D. G. A. Smith, R. Di Remigio,
    R. M. Richard, J. F. Gonthier, H. R. McAlexander, M. Saitow, and
    B. P. Pritchard
    -----------------------------------------------------------------------


    Psi4 started on: Thursday, 02 March 2017 04:04PM

    Process ID:  98066
    PSIDATADIR: /Users/jeffschriber/src/psi4_debug_install/share/psi4
    Memory:     500.0 MiB
    Threads:    1
    
  ==> Input File <==

--------------------------------------------------------------------------
#! Generated using commit GITCOMMIT
#Tests spin projection for a spin-contaminated system

import forte 

refscf =-38.88099225137536  
refen = -38.953571847659 

molecule CH2{
0 1
C  0.000000 0.00000 0.00000
H  1.644403 0.00000 1.32213
H -1.644403 0.00000 1.32213
units bohr
symmetry c2v
#symmetry c1
}

set {
  basis cc-pvDZ
  scf_type pk
  reference rohf
  e_convergence 11
  d_convergence 11
  r_convergence 11
  multiplicity 1
  guess gwh
}


set forte {
  JOB_TYPE mrcisd
  frozen_docc [2,0,0,0]
  restricted_docc [0,0,0,0]
  active [1,0,1,0]
  root_sym 0
  multiplicity 1
  aci_SELECT_TYPE aimed_energy
  sigma 0.8
  aci_prescreen_threshold 0.0
  aci_max_cycle 1
  nroot 1
  charge 0
}

energy('scf')

compare_values(refscf, get_variable("CURRENT ENERGY"),9,"SCF energy")
energy('forte')
compare_values(refen, get_variable("MRCISD ENERGY"), 9, "MR-CISD energy")

--------------------------------------------------------------------------
/Users/jeffschriber/src/forte/forte.so loaded.

*** tstart() called on Jeffs-MacBook-Pro-2.local
*** at Thu Mar  2 16:04:19 2017


         ---------------------------------------------------------
                                   SCF
            by Justin Turney, Rob Parrish, and Andy Simmonett
                             ROHF Reference
                        1 Threads,    524 MiB Core
         ---------------------------------------------------------

  ==> Geometry <==

    Molecular point group: c2v
    Full point group: C2v

    Geometry (in Bohr), charge = 0, multiplicity = 1:

       Center              X                  Y                   Z               Mass       
    ------------   -----------------  -----------------  -----------------  -----------------
           C          0.000000000000     0.000000000000    -0.190141121326    12.000000000000
           H          1.644403000000     0.000000000000     1.131988878674     1.007825032070
           H         -1.644403000000    -0.000000000000     1.131988878674     1.007825032070

  Running in c2v symmetry.

  Rotational constants: A =     19.95551  B =     11.04492  C =      7.10980 [cm^-1]
  Rotational constants: A = 598251.06074  B = 331118.37066  C = 213146.58067 [MHz]
  Nuclear repulsion =    5.991272557961065

  Charge       = 0
  Multiplicity = 1
  Electrons    = 8
  Nalpha       = 4
  Nbeta        = 4

  ==> Algorithm <==

  SCF Algorithm Type is PK.
  DIIS enabled.
  MOM disabled.
  Fractional occupation disabled.
  Guess Type is GWH.
  Energy threshold   = 1.00e-11
  Density threshold  = 1.00e-11
  Integral threshold = 0.00e+00

  ==> Primary Basis <==

  Basis Set: file /Users/jeffschriber/src/psi4_debug_install/share/psi4/basis/cc-pvdz.gbs
    Number of shells: 12
    Number of basis function: 24
    Number of Cartesian functions: 25
    Spherical Harmonics?: true
    Max angular momentum: 2

  ==> Pre-Iterations <==

   -------------------------------------------------------
    Irrep   Nso     Nmo     Nalpha   Nbeta   Ndocc  Nsocc
   -------------------------------------------------------
     A1        11      11       0       0       0       0
     A2         2       2       0       0       0       0
     B1         7       7       0       0       0       0
     B2         4       4       0       0       0       0
   -------------------------------------------------------
    Total      24      24       4       4       4       0
   -------------------------------------------------------

  ==> Integral Setup <==

  Using in-core PK algorithm.
   Calculation information:
      Number of atoms:                   3
      Number of AO shells:              12
      Number of primitives:             32
      Number of atomic orbitals:        25
      Number of basis functions:        24

      Integral cutoff                 1.00e-12
      Number of threads:                 1

  Performing in-core PK
  Using 90300 doubles for integral storage.
  We computed 3081 shell quartets total.
  Whereas there are 3081 unique shell quartets.
  ==> DiskJK: Disk-Based J/K Matrices <==

    J tasked:                  Yes
    K tasked:                  Yes
    wK tasked:                  No
    Memory (MB):               375
    Schwarz Cutoff:          1E-12

    OpenMP threads:              1
  Minimum eigenvalue in the overlap matrix is 2.9058910943E-02.
  Using Symmetric Orthogonalization.

  SCF Guess: Generalized Wolfsberg-Helmholtz.

  ==> Iterations <==

                        Total Energy        Delta E     RMS |[F,P]|

   @ROHF iter   1:   -38.28173679562072   -3.82817e+01   5.62961e-02 
   @ROHF iter   2:   -38.84934463058932   -5.67608e-01   1.11443e-02 DIIS
   @ROHF iter   3:   -38.87853263161535   -2.91880e-02   2.14983e-03 DIIS
   @ROHF iter   4:   -38.88079144877695   -2.25882e-03   6.23875e-04 DIIS
   @ROHF iter   5:   -38.88098685403364   -1.95405e-04   8.80519e-05 DIIS
   @ROHF iter   6:   -38.88099209994898   -5.24592e-06   1.27867e-05 DIIS
   @ROHF iter   7:   -38.88099223765745   -1.37708e-07   3.97453e-06 DIIS
   @ROHF iter   8:   -38.88099225118629   -1.35288e-08   5.79123e-07 DIIS
   @ROHF iter   9:   -38.88099225137320   -1.86908e-10   6.84117e-08 DIIS
   @ROHF iter  10:   -38.88099225137537   -2.17426e-12   4.93443e-09 DIIS
   @ROHF iter  11:   -38.88099225137537    0.00000e+00   5.20131e-10 DIIS
   @ROHF iter  12:   -38.88099225137539   -1.42109e-14   2.60719e-11 DIIS
   @ROHF iter  13:   -38.88099225137536    2.84217e-14   4.43970e-12 DIIS

  ==> Post-Iterations <==

    Orbital Energies (a.u.)
    -----------------------

    Doubly Occupied:                                                      

       1A1   -11.294981     2A1    -0.885961     1B1    -0.557587  
       3A1    -0.389780  

    Singly Occupied:                                                      

    

    Virtual:                                                              

       1B2     0.062786     4A1     0.194990     2B1     0.259448  
       3B1     0.587728     5A1     0.694391     2B2     0.738106  
       6A1     0.777429     4B1     0.861241     7A1     1.007106  
       8A1     1.205283     1A2     1.212767     3B2     1.289146  
       9A1     1.742794     5B1     1.754898     6B1     1.929359  
       2A2     2.006466     4B2     2.018800    10A1     2.306950  
      11A1     2.641055     7B1     2.735016  

    Final Occupation by Irrep:
             A1    A2    B1    B2 
    DOCC [     3,    0,    1,    0 ]
    SOCC [     0,    0,    0,    0 ]

  Energy converged.

  @ROHF Final Energy:   -38.88099225137536

   => Energetics <=

    Nuclear Repulsion Energy =              5.9912725579610653
    One-Electron Energy =                 -63.4879126903080646
    Two-Electron Energy =                  18.6156478809716361
    DFT Exchange-Correlation Energy =       0.0000000000000000
    Empirical Dispersion Energy =           0.0000000000000000
    PCM Polarization Energy =               0.0000000000000000
    EFP Energy =                            0.0000000000000000
    Total Energy =                        -38.8809922513753605



Properties will be evaluated at   0.000000,   0.000000,   0.000000 Bohr

Properties computed using the SCF density matrix

  Nuclear Dipole Moment: (a.u.)
     X:     0.0000      Y:     0.0000      Z:     1.1231

  Electronic Dipole Moment: (a.u.)
     X:     0.0000      Y:     0.0000      Z:    -0.3591

  Dipole Moment: (a.u.)
     X:     0.0000      Y:     0.0000      Z:     0.7640     Total:     0.7640

  Dipole Moment: (Debye)
     X:     0.0000      Y:     0.0000      Z:     1.9420     Total:     1.9420


*** tstop() called on Jeffs-MacBook-Pro-2.local at Thu Mar  2 16:04:20 2017
Module time:
	user time   =       0.19 seconds =       0.00 minutes
	system time =       0.01 seconds =       0.00 minutes
	total time  =          1 seconds =       0.02 minutes
Total time:
	user time   =       0.19 seconds =       0.00 minutes
	system time =       0.01 seconds =       0.00 minutes
	total time  =          1 seconds =       0.02 minutes
	SCF energy........................................................PASSED

         ---------------------------------------------------------
                                   SCF
            by Justin Turney, Rob Parrish, and Andy Simmonett
                             ROHF Reference
                        1 Threads,    524 MiB Core
         ---------------------------------------------------------

  ==> Geometry <==

    Molecular point group: c2v
    Full point group: C2v

    Geometry (in Bohr), charge = 0, multiplicity = 1:

       Center              X                  Y                   Z               Mass       
    ------------   -----------------  -----------------  -----------------  -----------------
           C          0.000000000000     0.000000000000    -0.190141121326    12.000000000000
           H          1.644403000000     0.000000000000     1.131988878674     1.007825032070
           H         -1.644403000000    -0.000000000000     1.131988878674     1.007825032070

  Running in c2v symmetry.

  Rotational constants: A =     19.95551  B =     11.04492  C =      7.10980 [cm^-1]
  Rotational constants: A = 598251.06074  B = 331118.37066  C = 213146.58067 [MHz]
  Nuclear repulsion =    5.991272557961065

  Charge       = 0
  Multiplicity = 1
  Electrons    = 8
  Nalpha       = 4
  Nbeta        = 4

  ==> Algorithm <==

  SCF Algorithm Type is PK.
  DIIS enabled.
  MOM disabled.
  Fractional occupation disabled.
  Guess Type is GWH.
  Energy threshold   = 1.00e-11
  Density threshold  = 1.00e-11
  Integral threshold = 0.00e+00

  ==> Primary Basis <==

  Basis Set: file /Users/jeffschriber/src/psi4_debug_install/share/psi4/basis/cc-pvdz.gbs
    Number of shells: 12
    Number of basis function: 24
    Number of Cartesian functions: 25
    Spherical Harmonics?: true
    Max angular momentum: 2

  ==> Pre-Iterations <==

   -------------------------------------------------------
    Irrep   Nso     Nmo     Nalpha   Nbeta   Ndocc  Nsocc
   -------------------------------------------------------
     A1        11      11       0       0       0       0
     A2         2       2       0       0       0       0
     B1         7       7       0       0       0       0
     B2         4       4       0       0       0       0
   -------------------------------------------------------
    Total      24      24       4       4       4       0
   -------------------------------------------------------

  ==> Integral Setup <==

  Using in-core PK algorithm.
   Calculation information:
      Number of atoms:                   3
      Number of AO shells:              12
      Number of primitives:             32
      Number of atomic orbitals:        25
      Number of basis functions:        24

      Integral cutoff                 1.00e-12
      Number of threads:                 1

  Performing in-core PK
  Using 90300 doubles for integral storage.
  We computed 3081 shell quartets total.
  Whereas there are 3081 unique shell quartets.
  ==> DiskJK: Disk-Based J/K Matrices <==

    J tasked:                  Yes
    K tasked:                  Yes
    wK tasked:                  No
    Memory (MB):               375
    Schwarz Cutoff:          1E-12

    OpenMP threads:              1
  Minimum eigenvalue in the overlap matrix is 2.9058910943E-02.
  Using Symmetric Orthogonalization.

  SCF Guess: Generalized Wolfsberg-Helmholtz.

  ==> Iterations <==

                        Total Energy        Delta E     RMS |[F,P]|

   @ROHF iter   1:   -38.28173679562072   -3.82817e+01   5.62961e-02 
   @ROHF iter   2:   -38.84934463058931   -5.67608e-01   1.11443e-02 DIIS
   @ROHF iter   3:   -38.87853263161536   -2.91880e-02   2.14983e-03 DIIS
   @ROHF iter   4:   -38.88079144877695   -2.25882e-03   6.23875e-04 DIIS
   @ROHF iter   5:   -38.88098685403371   -1.95405e-04   8.80519e-05 DIIS
   @ROHF iter   6:   -38.88099209994899   -5.24592e-06   1.27867e-05 DIIS
   @ROHF iter   7:   -38.88099223765747   -1.37708e-07   3.97453e-06 DIIS
   @ROHF iter   8:   -38.88099225118629   -1.35288e-08   5.79123e-07 DIIS
   @ROHF iter   9:   -38.88099225137320   -1.86908e-10   6.84117e-08 DIIS
   @ROHF iter  10:   -38.88099225137539   -2.18847e-12   4.93443e-09 DIIS
   @ROHF iter  11:   -38.88099225137536    2.84217e-14   5.20132e-10 DIIS
   @ROHF iter  12:   -38.88099225137538   -2.13163e-14   2.60718e-11 DIIS
   @ROHF iter  13:   -38.88099225137537    7.10543e-15   4.43995e-12 DIIS

  ==> Post-Iterations <==

    Orbital Energies (a.u.)
    -----------------------

    Doubly Occupied:                                                      

       1A1   -11.294981     2A1    -0.885961     1B1    -0.557587  
       3A1    -0.389780  

    Singly Occupied:                                                      

    

    Virtual:                                                              

       1B2     0.062786     4A1     0.194990     2B1     0.259448  
       3B1     0.587728     5A1     0.694391     2B2     0.738106  
       6A1     0.777429     4B1     0.861241     7A1     1.007106  
       8A1     1.205283     1A2     1.212767     3B2     1.289146  
       9A1     1.742794     5B1     1.754898     6B1     1.929359  
       2A2     2.006466     4B2     2.018800    10A1     2.306950  
      11A1     2.641055     7B1     2.735016  

    Final Occupation by Irrep:
             A1    A2    B1    B2 
    DOCC [     3,    0,    1,    0 ]
    SOCC [     0,    0,    0,    0 ]

  Energy converged.

  @ROHF Final Energy:   -38.88099225137537

   => Energetics <=

    Nuclear Repulsion Energy =              5.9912725579610653
    One-Electron Energy =                 -63.4879126903080717
    Two-Electron Energy =                  18.6156478809716290
    DFT Exchange-Correlation Energy =       0.0000000000000000
    Empirical Dispersion Energy =           0.0000000000000000
    PCM Polarization Energy =               0.0000000000000000
    EFP Energy =                            0.0000000000000000
    Total Energy =                        -38.8809922513753747

    Alert: EFP and PCM quantities not currently incorporated into SCF psivars.

Properties will be evaluated at   0.000000,   0.000000,   0.000000 Bohr

Properties computed using the SCF density matrix

  Nuclear Dipole Moment: (a.u.)
     X:     0.0000      Y:     0.0000      Z:     1.1231

  Electronic Dipole Moment: (a.u.)
     X:     0.0000      Y:     0.0000      Z:    -0.3591

  Dipole Moment: (a.u.)
     X:     0.0000      Y:     0.0000      Z:     0.7640     Total:     0.7640

  Dipole Moment: (Debye)
     X:     0.0000      Y:     0.0000      Z:     1.9420     Total:     1.9420

 MINTS: Wrapper to libmints.
   by Justin Turney

   Calculation information:
      Number of atoms:                   3
      Number of AO shells:              12
      Number of SO shells:               9
      Number of primitives:             32
      Number of atomic orbitals:        25
      Number of basis functions:        24

      Number of irreps:                  4
      Integral cutoff                 0.00e+00
      Number of functions per irrep: [  11    2    7    4 ]

 OEINTS: Overlap, kinetic, potential, dipole, and quadrupole integrals
         stored in file 35.

      Computing two-electron integrals...done
      Computed 11592 non-zero two-electron integrals.
        Stored in file 33.


Reading options from the FORTE block
Calling plugin forte.so.




  ==> MO Space Information <==

  Read options for space FROZEN_DOCC
  Read options for space RESTRICTED_DOCC
  Read options for space ACTIVE
 Removing orbital 0
 Removing orbital 1
  -------------------------------------------------
                       A1    A2    B1    B2   Sum
  -------------------------------------------------
    FROZEN_DOCC         2     0     0     0     2
    RESTRICTED_DOCC     0     0     0     0     0
    ACTIVE              1     0     1     0     2
    RESTRICTED_UOCC     8     2     6     4    20
    FROZEN_UOCC         0     0     0     0     0
    Total              11     2     7     4    24
  -------------------------------------------------

  ==> Integral Transformation <==

  Number of molecular orbitals:               24
  Number of correlated molecular orbitals:    22
  Number of frozen occupied orbitals:          2
  Number of frozen unoccupied orbitals:        0

    Molecular point group: c2v
    Full point group: C2v

    Geometry (in Bohr), charge = 0, multiplicity = 1:

       Center              X                  Y                   Z               Mass       
    ------------   -----------------  -----------------  -----------------  -----------------
           C          0.000000000000     0.000000000000    -0.190141121326    12.000000000000
           H          1.644403000000     0.000000000000     1.131988878674     1.007825032070
           H         -1.644403000000    -0.000000000000     1.131988878674     1.007825032070

  -AO BASIS SET INFORMATION:
    Name                   = file /Users/jeffschriber/src/psi4_debug_install/share/psi4/basis/cc-pvdz.gbs
    Total number of shells = 12
    Number of primitives   = 32
    Number of AO           = 25
    Number of SO           = 24
    Maximum AM             = 2
    Spherical Harmonics    = TRUE

  -Contraction Scheme:
    Atom   Type   All Primitives // Shells:
   ------ ------ --------------------------
       1     C     17s 4p 1d // 3s 2p 1d 
       2     H     4s 1p // 2s 1p 
       3     H     4s 1p // 2s 1p 

  ==> AO Basis Functions <==

    [ file /Users/jeffschriber/src/psi4_debug_install/share/psi4/basis/cc-pvdz.gbs ]
    spherical
    ****
    C   1
    S   8 1.00
                      6665.00000000           0.00069200
                      1000.00000000           0.00532900
                       228.00000000           0.02707700
                        64.71000000           0.10171800
                        21.06000000           0.27474000
                         7.49500000           0.44856400
                         2.79700000           0.28507400
                         0.52150000           0.01520400
    S   8 1.00
                      6665.00000000          -0.00014600
                      1000.00000000          -0.00115400
                       228.00000000          -0.00572500
                        64.71000000          -0.02331200
                        21.06000000          -0.06395500
                         7.49500000          -0.14998100
                         2.79700000          -0.12726200
                         0.52150000           0.54452900
    S   1 1.00
                         0.15960000           1.00000000
    P   3 1.00
                         9.43900000           0.03810900
                         2.00200000           0.20948000
                         0.54560000           0.50855700
    P   1 1.00
                         0.15170000           1.00000000
    D   1 1.00
                         0.55000000           1.00000000
    ****
    H   2
    S   3 1.00
                        13.01000000           0.01968500
                         1.96200000           0.13797700
                         0.44460000           0.47814800
    S   1 1.00
                         0.12200000           1.00000000
    P   1 1.00
                         0.72700000           1.00000000
    ****


  Overall Conventional Integrals timings

	Presorting SO-basis two-electron integrals.
	Sorting File: SO Ints (nn|nn) nbuckets = 1
	Transforming the one-electron integrals and constructing Fock matrices
	Starting first half-transformation.
	Sorting half-transformed integrals.
	First half integral transformation complete.
	Starting second half-transformation.
	Two-electron integral transformation complete.

  Integral transformation done. 0.01675600 s
  Reading the two-electron integrals from disk
  Size of two-electron integrals:   0.007416 GB  Using in-core PK algorithm.
   Calculation information:
      Number of atoms:                   3
      Number of AO shells:              12
      Number of primitives:             32
      Number of atomic orbitals:        25
      Number of basis functions:        24

      Integral cutoff                 1.00e-12
      Number of threads:                 1

  Performing in-core PK
  Using 90300 doubles for integral storage.
  We computed 3081 shell quartets total.
  Whereas there are 3081 unique shell quartets.

  Frozen-core energy            -40.188106616617 a.u.

  FrozenOneBody Operator takes  0.08390000 s
  Resorting integrals after freezing core.
  Conventional integrals take 0.18766300 s

                    ---------------------------------------
                      Adaptive Configuration Interaction
                      written by Francesco A. Evangelista
                    ---------------------------------------

  ==> Reference Information <==

  There are 2 frozen orbitals.
  There are 2 active orbitals.

  |22>
  REFERENCE ENERGY:         -38.880992251375
  ==> Calculation Information <==

  -----------------------------------------------------------------
    Multiplicity                             1    
    Symmetry                                 0    
    Number of roots                          1    
    Root used for properties                 0    
    Sigma                                    8.00e-01
    Gamma                                    1.00e+00
    Convergence threshold                    1.00e-09
    Determinant selection criterion          Second-order Energy
    Selection criterion                      Aimed selection
    Excited Algorithm                        AVERAGE
    Project out spin contaminants            True
    Enforce spin completeness of basis       True
    Enforce complete aimed selection         True
  -----------------------------------------------------------------
  Computing wavefunction for root 0
  Using streamlined Q-space builder.

  ==> Cycle 0 <==

  Initial P space dimension: 1
  Spin-complete dimension of the P space: 1 determinants
  Time spent diagonalizing H:   0.000071 s

    P-space  CI Energy Root   0        = -38.880992251375 Eh =   0.0000 eV

  Using 1 threads.
  Dimension of the SD space: 0 determinants
  Time spent building the model space: 0.000106 s

  Dimension of the P + Q space: 1 determinants
  Time spent screening the model space: 0.000011 s
  Spin-complete dimension of the PQ space: 1
  Time spent diagonalizing H:   0.000038 s

    PQ-space CI Energy Root   0        = -38.880992251375 Eh =   0.0000 eV
    PQ-space CI Energy + EPT2 Root   0 = -38.880992251375 Eh =   0.0000 eV


  Most important contributions to root   0:
    0   1.000000 1.000000000           0 |22>

  Spin state for root 0: S^2 = 0.000000, S = 0.000, singlet
  Cycle 0 took: 0.004421 s
  Not performing spin projection.

  ==> ACI Summary <==

  Iterations required:                         0
  Dimension of optimized determinant space:    1

  ACI(0.800) Correlation energy: 0.000000000000 Eh
  * Adaptive-CI Energy Root   0        = -38.880992251375 Eh =   0.0000 eV
  * Adaptive-CI Energy Root   0 + EPT2 = -38.880992251375 Eh =   0.0000 eV

  ==> Wavefunction Information <==

  Most important contributions to root   0:
    0   1.000000 1.000000000           0 |22>

  Spin state for root 0: S^2 = 0.000000, S = 0.000, singlet

     Order		 # of Dets        Total |c^2|
  __________ 	____________    ________________ 
        0                  1           1.00000000000

  Highest-order excitation searched:     2  

  1-RDM  took 0.000021 s (determinant)

  ==> NATURAL ORBITALS <==

        1B1     2.000000      1A1     2.000000  



  Adaptive-CI (bitset) ran in : 0.008325 s

  Saving information for root: 0

                            ------------------------
                              Uncontracted MR-CISD
                                 Jeff Schriber
                            ------------------------

  Adding single and double excitations ...
  Added 604 determinants from external space
  Excitations took 0.00091 s
  Dimension of model space: 605

 Davidson-Liu solver algorithm
  Initial guess space is incomplete.
  Trying to add 2 determinant(s).  2 determinant(s) added.
  Initial guess found 47 solutions with 2S+1 = 1 *
  Initial guess found 46 solutions with 2S+1 = 3  
  Initial guess found 9 solutions with 2S+1 = 5  
  Adding guess 0 (multiplicity = 1.000000)
  Adding guess 1 (multiplicity = 1.000000)

  ==> Diagonalizing Hamiltonian <==

  ----------------------------------------
    Iter.      Avg. Energy       Delta_E
  ----------------------------------------
      1      -44.900520144384  -4.490e+01
      2      -44.944070451487  -4.355e-02
      3      -44.944821661234  -7.512e-04
      4      -44.944842722973  -2.106e-05
      5      -44.944844219321  -1.496e-06
      6      -44.944844380933  -1.616e-07
      7      -44.944844403349  -2.242e-08
      8      -44.944844405370  -2.021e-09
      9      -44.944844405587  -2.166e-10
     10      -44.944844405616  -2.886e-11
     11      -44.944844405620  -4.611e-12
  ----------------------------------------
  The Davidson-Liu algorithm converged in 12 iterations.

  MR-CISD energy root 0: -38.9535718476591 Eh

  Your calculation took 0.44612000 seconds
	MR-CISD energy....................................................PASSED

*** Psi4 exiting successfully. Buy a developer a beer!
