
    -----------------------------------------------------------------------
          Psi4: An Open-Source Ab Initio Electronic Structure Package
                               Psi4 undefined 

                         Git: Rev {x2c-norm} b906495 


    D. G. A. Smith, L. A. Burns, A. C. Simmonett, R. M. Parrish,
    M. C. Schieber, R. Galvelis, P. Kraus, H. Kruse, R. Di Remigio,
    A. Alenaizan, A. M. James, S. Lehtola, J. P. Misiewicz, M. Scheurer,
    R. A. Shaw, J. B. Schriber, Y. Xie, Z. L. Glick, D. A. Sirianni,
    J. S. O'Brien, J. M. Waldrop, A. Kumar, E. G. Hohenstein,
    B. P. Pritchard, B. R. Brooks, H. F. Schaefer III, A. Yu. Sokolov,
    K. Patkowski, A. E. DePrince III, U. Bozkaya, R. A. King,
    F. A. Evangelista, J. M. Turney, T. D. Crawford, C. D. Sherrill,
    J. Chem. Phys. 152(18) 184108 (2020). https://doi.org/10.1063/5.0006002

                            Additional Code Authors
    E. T. Seidl, C. L. Janssen, E. F. Valeev, M. L. Leininger,
    J. F. Gonthier, R. M. Richard, H. R. McAlexander, M. Saitow, X. Wang,
    P. Verma, and M. H. Lechner

             Previous Authors, Complete List of Code Contributors,
                       and Citations for Specific Modules
    https://github.com/psi4/psi4/blob/master/codemeta.json
    https://github.com/psi4/psi4/graphs/contributors
    http://psicode.org/psi4manual/master/introduction.html#citing-psifour

    -----------------------------------------------------------------------


    Psi4 started on: Saturday, 30 January 2021 03:41AM

    Process ID: 63897
    Host:       Yorks-Mac.local
    PSIDATADIR: /Users/york/src/psi4new/psi4/share/psi4
    Memory:     500.0 MiB
    Threads:    1
    
  ==> Input File <==

--------------------------------------------------------------------------
#! Generated using commit GITCOMMIT 
# GAS ACI calculation for core excited state of CO using MULTI_GAS algorithm

import forte

memory 6000mb

exaci = -92.6912453842 #TEST
exacipt2 = -92.6922386459 #TEST
aveaci = -102.7436033287 #TEST

molecule CO{
0 1
   C
   O 1 1.123708
}

set {
  basis 6-31g**
  e_convergence 10
  d_convergence 10
  r_convergence 10
  guess gwh
  scf_type pk
  reference rohf
}


set forte {
  active_space_solver aci
  ms 0.0
  multiplicity 1
  sigma 0.001
  nroot 1
  root_sym 0
  charge 0
  sci_enforce_spin_complete true
  active_ref_type gas_single
  charge 0
  GAS1 [1,0,0,0]
  GAS2 [5,0,2,2]
  AVG_STATE [[0,1,1],[2,1,1]]
  GAS1MAX [2,1]
  aci_n_average 2
}

escf ,wfn = energy('scf',return_wfn = True)

ave_e = energy('forte')
compare_values(exaci, variable("ACI ENERGY"),9, "ACI energy") #TEST     
compare_values(exacipt2, variable("ACI+PT2 ENERGY"), 9, "ACI+PT2 energy") #TEST
compare_values(aveaci, ave_e, 9, "AVERAGE ACI ENERGY") #TEST
--------------------------------------------------------------------------

  Memory set to   5.588 GiB by Python driver.

Scratch directory: /Users/york/scratch/psi4/

*** tstart() called on Yorks-Mac.local
*** at Sat Jan 30 03:41:47 2021

   => Loading Basis Set <=

    Name: 6-31G**
    Role: ORBITAL
    Keyword: BASIS
    atoms 1 entry C          line   115 file /Users/york/src/psi4new/psi4/share/psi4/basis/6-31gss.gbs 
    atoms 2 entry O          line   149 file /Users/york/src/psi4new/psi4/share/psi4/basis/6-31gss.gbs 


         ---------------------------------------------------------
                                   SCF
               by Justin Turney, Rob Parrish, Andy Simmonett
                          and Daniel G. A. Smith
                             ROHF Reference
                        1 Threads,   5722 MiB Core
         ---------------------------------------------------------

  ==> Geometry <==

    Molecular point group: c2v
    Full point group: C_inf_v

    Geometry (in Angstrom), charge = 0, multiplicity = 1:

       Center              X                  Y                   Z               Mass       
    ------------   -----------------  -----------------  -----------------  -----------------
         C            0.000000000000     0.000000000000    -0.642031374683    12.000000000000
         O            0.000000000000     0.000000000000     0.481676625317    15.994914619570

  Running in c2v symmetry.

  Rotational constants: A = ************  B =      1.94718  C =      1.94718 [cm^-1]
  Rotational constants: A = ************  B =  58374.91066  C =  58374.91066 [MHz]
  Nuclear repulsion =   22.604187308589072

  Charge       = 0
  Multiplicity = 1
  Electrons    = 14
  Nalpha       = 7
  Nbeta        = 7

  ==> Algorithm <==

  SCF Algorithm Type is PK.
  DIIS enabled.
  MOM disabled.
  Fractional occupation disabled.
  Guess Type is GWH.
  Energy threshold   = 1.00e-10
  Density threshold  = 1.00e-10
  Integral threshold = 1.00e-12

  ==> Primary Basis <==

  Basis Set: 6-31G**
    Blend: 6-31G**
    Number of shells: 12
    Number of basis function: 30
    Number of Cartesian functions: 30
    Spherical Harmonics?: false
    Max angular momentum: 2

  ==> Integral Setup <==

  Using in-core PK algorithm.
   Calculation information:
      Number of atoms:                   2
      Number of AO shells:              12
      Number of primitives:             30
      Number of atomic orbitals:        30
      Number of basis functions:        30

      Integral cutoff                 1.00e-12
      Number of threads:                 1

  Performing in-core PK
  Using 216690 doubles for integral storage.
  We computed 3081 shell quartets total.
  Whereas there are 3081 unique shell quartets.

  ==> DiskJK: Disk-Based J/K Matrices <==

    J tasked:                  Yes
    K tasked:                  Yes
    wK tasked:                  No
    Memory [MiB]:             4291
    Schwarz Cutoff:          1E-12

    OpenMP threads:              1

  Minimum eigenvalue in the overlap matrix is 7.6561678406E-03.
  Reciprocal condition number of the overlap matrix is 1.4485031790E-03.
    Using symmetric orthogonalization.

  ==> Pre-Iterations <==

  SCF Guess: Generalized Wolfsberg-Helmholtz.

   -------------------------------------------------------
    Irrep   Nso     Nmo     Nalpha   Nbeta   Ndocc  Nsocc
   -------------------------------------------------------
     A1        16      16       5       5       5       0
     A2         2       2       0       0       0       0
     B1         6       6       1       1       1       0
     B2         6       6       1       1       1       0
   -------------------------------------------------------
    Total      30      30       7       7       7       0
   -------------------------------------------------------

  ==> Iterations <==

                        Total Energy        Delta E     RMS |[F,P]|

   @ROHF iter   1:  -111.55875766978539   -1.11559e+02   7.47973e-02 DIIS
   @ROHF iter   2:  -112.25282615537458   -6.94068e-01   4.55450e-02 DIIS
   @ROHF iter   3:  -112.68232123436255   -4.29495e-01   1.48650e-02 DIIS
   @ROHF iter   4:  -112.73739759824997   -5.50764e-02   7.16915e-04 DIIS
   @ROHF iter   5:  -112.73760131665779   -2.03718e-04   1.49149e-04 DIIS
   @ROHF iter   6:  -112.73761091467054   -9.59801e-06   1.26205e-05 DIIS
   @ROHF iter   7:  -112.73761100863288   -9.39623e-08   2.36513e-06 DIIS
   @ROHF iter   8:  -112.73761101088721   -2.25432e-09   5.73508e-07 DIIS
   @ROHF iter   9:  -112.73761101102286   -1.35657e-10   1.77318e-07 DIIS
   @ROHF iter  10:  -112.73761101103844   -1.55751e-11   2.13186e-08 DIIS
   @ROHF iter  11:  -112.73761101103864   -1.98952e-13   1.43484e-09 DIIS
   @ROHF iter  12:  -112.73761101103867   -2.84217e-14   2.66320e-10 DIIS
   @ROHF iter  13:  -112.73761101103869   -2.84217e-14   1.51114e-11 DIIS
  Energy and wave function converged.


  ==> Post-Iterations <==

    Orbital Energies [Eh]
    ---------------------

    Doubly Occupied:                                                      

       1A1   -20.675093     2A1   -11.359272     3A1    -1.522248  
       4A1    -0.796931     1B1    -0.634858     1B2    -0.634858  
       5A1    -0.547137  

    Singly Occupied:                                                      

    

    Virtual:                                                              

       2B1     0.163685     2B2     0.163685     6A1     0.409061  
       3B1     0.733489     3B2     0.733489     7A1     0.758352  
       8A1     0.995752     9A1     1.103683     4B1     1.207063  
       4B2     1.207063    10A1     1.611233    11A1     1.747874  
       1A2     1.747874     5B1     1.848075     5B2     1.848075  
       2A2     2.264383    12A1     2.264383    13A1     2.782669  
       6B2     2.957883     6B1     2.957883    14A1     3.360305  
      15A1     4.103048    16A1     4.302533  

    Final Occupation by Irrep:
             A1    A2    B1    B2 
    DOCC [     5,    0,    1,    1 ]
    SOCC [     0,    0,    0,    0 ]

  @ROHF Final Energy:  -112.73761101103869

   => Energetics <=

    Nuclear Repulsion Energy =             22.6041873085890721
    One-Electron Energy =                -198.3428006717379617
    Two-Electron Energy =                  63.0010023521101985
    Total Energy =                       -112.7376110110386946

Computation Completed


Properties will be evaluated at   0.000000,   0.000000,   0.000000 [a0]

Properties computed using the SCF density matrix

  Nuclear Dipole Moment: [e a0]
     X:     0.0000      Y:     0.0000      Z:     0.0023

  Electronic Dipole Moment: [e a0]
     X:     0.0000      Y:     0.0000      Z:    -0.1246

  Dipole Moment: [e a0]
     X:     0.0000      Y:     0.0000      Z:    -0.1223     Total:     0.1223

  Dipole Moment: [D]
     X:     0.0000      Y:     0.0000      Z:    -0.3109     Total:     0.3109


*** tstop() called on Yorks-Mac.local at Sat Jan 30 03:41:47 2021
Module time:
	user time   =       0.09 seconds =       0.00 minutes
	system time =       0.01 seconds =       0.00 minutes
	total time  =          0 seconds =       0.00 minutes
Total time:
	user time   =       0.09 seconds =       0.00 minutes
	system time =       0.01 seconds =       0.00 minutes
	total time  =          0 seconds =       0.00 minutes

Scratch directory: /Users/york/scratch/psi4/

 Data is an array -> call again
 Data is an array -> call again
  Forte
  ----------------------------------------------------------------------------
  A suite of quantum chemistry methods for strongly correlated electrons

    git branch: relax_overlap - git commit: 416ba2ac

  Developed by:
    Francesco A. Evangelista, Chenyang Li, Kevin P. Hannon,
    Jeffrey B. Schriber, Tianyuan Zhang, Chenxi Cai,
    Nan He, Nicholas Stair, Shuhe Wang, Renke Huang
  ----------------------------------------------------------------------------

  Size of Determinant class: 128 bits

  Preparing forte objects from a Psi4 Wavefunction object
  No reference wave function provided for Forte. Computing SCF orbitals using Psi4 ...

*** tstart() called on Yorks-Mac.local
*** at Sat Jan 30 03:41:47 2021

   => Loading Basis Set <=

    Name: 6-31G**
    Role: ORBITAL
    Keyword: BASIS
    atoms 1 entry C          line   115 file /Users/york/src/psi4new/psi4/share/psi4/basis/6-31gss.gbs 
    atoms 2 entry O          line   149 file /Users/york/src/psi4new/psi4/share/psi4/basis/6-31gss.gbs 


         ---------------------------------------------------------
                                   SCF
               by Justin Turney, Rob Parrish, Andy Simmonett
                          and Daniel G. A. Smith
                             ROHF Reference
                        1 Threads,   5722 MiB Core
         ---------------------------------------------------------

  ==> Geometry <==

    Molecular point group: c2v
    Full point group: C_inf_v

    Geometry (in Angstrom), charge = 0, multiplicity = 1:

       Center              X                  Y                   Z               Mass       
    ------------   -----------------  -----------------  -----------------  -----------------
         C            0.000000000000     0.000000000000    -0.642031374683    12.000000000000
         O            0.000000000000     0.000000000000     0.481676625317    15.994914619570

  Running in c2v symmetry.

  Rotational constants: A = ************  B =      1.94718  C =      1.94718 [cm^-1]
  Rotational constants: A = ************  B =  58374.91066  C =  58374.91066 [MHz]
  Nuclear repulsion =   22.604187308589072

  Charge       = 0
  Multiplicity = 1
  Electrons    = 14
  Nalpha       = 7
  Nbeta        = 7

  ==> Algorithm <==

  SCF Algorithm Type is PK.
  DIIS enabled.
  MOM disabled.
  Fractional occupation disabled.
  Guess Type is GWH.
  Energy threshold   = 1.00e-10
  Density threshold  = 1.00e-10
  Integral threshold = 1.00e-12

  ==> Primary Basis <==

  Basis Set: 6-31G**
    Blend: 6-31G**
    Number of shells: 12
    Number of basis function: 30
    Number of Cartesian functions: 30
    Spherical Harmonics?: false
    Max angular momentum: 2

  ==> Integral Setup <==

  Using in-core PK algorithm.
   Calculation information:
      Number of atoms:                   2
      Number of AO shells:              12
      Number of primitives:             30
      Number of atomic orbitals:        30
      Number of basis functions:        30

      Integral cutoff                 1.00e-12
      Number of threads:                 1

  Performing in-core PK
  Using 216690 doubles for integral storage.
  We computed 3081 shell quartets total.
  Whereas there are 3081 unique shell quartets.

  ==> DiskJK: Disk-Based J/K Matrices <==

    J tasked:                  Yes
    K tasked:                  Yes
    wK tasked:                  No
    Memory [MiB]:             4291
    Schwarz Cutoff:          1E-12

    OpenMP threads:              1

  Minimum eigenvalue in the overlap matrix is 7.6561678406E-03.
  Reciprocal condition number of the overlap matrix is 1.4485031790E-03.
    Using symmetric orthogonalization.

  ==> Pre-Iterations <==

  SCF Guess: Generalized Wolfsberg-Helmholtz.

   -------------------------------------------------------
    Irrep   Nso     Nmo     Nalpha   Nbeta   Ndocc  Nsocc
   -------------------------------------------------------
     A1        16      16       5       5       5       0
     A2         2       2       0       0       0       0
     B1         6       6       1       1       1       0
     B2         6       6       1       1       1       0
   -------------------------------------------------------
    Total      30      30       7       7       7       0
   -------------------------------------------------------

  ==> Iterations <==

                        Total Energy        Delta E     RMS |[F,P]|

   @ROHF iter   1:  -111.55875766978539   -1.11559e+02   7.47973e-02 DIIS
   @ROHF iter   2:  -112.25282615537458   -6.94068e-01   4.55450e-02 DIIS
   @ROHF iter   3:  -112.68232123436255   -4.29495e-01   1.48650e-02 DIIS
   @ROHF iter   4:  -112.73739759824997   -5.50764e-02   7.16915e-04 DIIS
   @ROHF iter   5:  -112.73760131665779   -2.03718e-04   1.49149e-04 DIIS
   @ROHF iter   6:  -112.73761091467054   -9.59801e-06   1.26205e-05 DIIS
   @ROHF iter   7:  -112.73761100863288   -9.39623e-08   2.36513e-06 DIIS
   @ROHF iter   8:  -112.73761101088721   -2.25432e-09   5.73508e-07 DIIS
   @ROHF iter   9:  -112.73761101102286   -1.35657e-10   1.77318e-07 DIIS
   @ROHF iter  10:  -112.73761101103844   -1.55751e-11   2.13186e-08 DIIS
   @ROHF iter  11:  -112.73761101103864   -1.98952e-13   1.43484e-09 DIIS
   @ROHF iter  12:  -112.73761101103867   -2.84217e-14   2.66320e-10 DIIS
   @ROHF iter  13:  -112.73761101103869   -2.84217e-14   1.51114e-11 DIIS
  Energy and wave function converged.


  ==> Post-Iterations <==

    Orbital Energies [Eh]
    ---------------------

    Doubly Occupied:                                                      

       1A1   -20.675093     2A1   -11.359272     3A1    -1.522248  
       4A1    -0.796931     1B1    -0.634858     1B2    -0.634858  
       5A1    -0.547137  

    Singly Occupied:                                                      

    

    Virtual:                                                              

       2B1     0.163685     2B2     0.163685     6A1     0.409061  
       3B1     0.733489     3B2     0.733489     7A1     0.758352  
       8A1     0.995752     9A1     1.103683     4B1     1.207063  
       4B2     1.207063    10A1     1.611233    11A1     1.747874  
       1A2     1.747874     5B1     1.848075     5B2     1.848075  
       2A2     2.264383    12A1     2.264383    13A1     2.782669  
       6B2     2.957883     6B1     2.957883    14A1     3.360305  
      15A1     4.103048    16A1     4.302533  

    Final Occupation by Irrep:
             A1    A2    B1    B2 
    DOCC [     5,    0,    1,    1 ]
    SOCC [     0,    0,    0,    0 ]

  @ROHF Final Energy:  -112.73761101103869

   => Energetics <=

    Nuclear Repulsion Energy =             22.6041873085890721
    One-Electron Energy =                -198.3428006717379617
    Two-Electron Energy =                  63.0010023521101985
    Total Energy =                       -112.7376110110386946

Computation Completed


Properties will be evaluated at   0.000000,   0.000000,   0.000000 [a0]

Properties computed using the SCF density matrix

  Nuclear Dipole Moment: [e a0]
     X:     0.0000      Y:     0.0000      Z:     0.0023

  Electronic Dipole Moment: [e a0]
     X:     0.0000      Y:     0.0000      Z:    -0.1246

  Dipole Moment: [e a0]
     X:     0.0000      Y:     0.0000      Z:    -0.1223     Total:     0.1223

  Dipole Moment: [D]
     X:     0.0000      Y:     0.0000      Z:    -0.3109     Total:     0.3109


*** tstop() called on Yorks-Mac.local at Sat Jan 30 03:41:48 2021
Module time:
	user time   =       0.08 seconds =       0.00 minutes
	system time =       0.00 seconds =       0.00 minutes
	total time  =          1 seconds =       0.02 minutes
Total time:
	user time   =       0.18 seconds =       0.00 minutes
	system time =       0.01 seconds =       0.00 minutes
	total time  =          1 seconds =       0.02 minutes

  Read options for space GAS1
  Read options for space GAS2
  Read options for space GAS1
  Read options for space GAS2

  ==> MO Space Information <==

  -------------------------------------------------
                       A1    A2    B1    B2   Sum
  -------------------------------------------------
    FROZEN_DOCC         0     0     0     0     0
    RESTRICTED_DOCC     0     0     0     0     0
    GAS1                1     0     0     0     1
    GAS2                5     0     2     2     9
    GAS3                0     0     0     0     0
    GAS4                0     0     0     0     0
    GAS5                0     0     0     0     0
    GAS6                0     0     0     0     0
    RESTRICTED_UOCC    10     2     4     4    20
    FROZEN_UOCC         0     0     0     0     0
    Total              16     2     6     6    30
  -------------------------------------------------   => Loading Basis Set <=

    Name: STO-3G
    Role: ORBITAL
    Keyword: MINAO_BASIS
    atoms 1 entry C          line    61 file /Users/york/src/psi4new/psi4/share/psi4/basis/sto-3g.gbs 
    atoms 2 entry O          line    81 file /Users/york/src/psi4new/psi4/share/psi4/basis/sto-3g.gbs 


  Forte will use psi4 integrals

  ==> Primary Basis Set Summary <==

  Basis Set: 6-31G**
    Blend: 6-31G**
    Number of shells: 12
    Number of basis function: 30
    Number of Cartesian functions: 30
    Spherical Harmonics?: false
    Max angular momentum: 2


  JK created using conventional PK integrals
  Using in-core PK algorithm.
   Calculation information:
      Number of atoms:                   2
      Number of AO shells:              12
      Number of primitives:             30
      Number of atomic orbitals:        30
      Number of basis functions:        30

      Integral cutoff                 1.00e-12
      Number of threads:                 1

  Performing in-core PK
  Using 216690 doubles for integral storage.
  We computed 3081 shell quartets total.
  Whereas there are 3081 unique shell quartets.

  ==> DiskJK: Disk-Based J/K Matrices <==

    J tasked:                  Yes
    K tasked:                  Yes
    wK tasked:                  No
    Memory [MiB]:             4577
    Schwarz Cutoff:          1E-12

    OpenMP threads:              1



  ==> Integral Transformation <==

  Number of molecular orbitals:                         30
  Number of correlated molecular orbitals:              30
  Number of frozen occupied orbitals:                    0
  Number of frozen unoccupied orbitals:                  0
  Two-electron integral type:                 Conventional


  Computing Conventional Integrals	Presorting SO-basis two-electron integrals.
	Sorting File: SO Ints (nn|nn) nbuckets = 1
	Constructing frozen core operators
	Starting first half-transformation.
	Sorting half-transformed integrals.
	First half integral transformation complete.
	Starting second half-transformation.
	Two-electron integral transformation complete.

  Integral transformation done. 0.02112085 s
  Reading the two-electron integrals from disk
  Size of two-electron integrals:   0.018105 GB
  Timing for conventional integral transformation:            0.048 s.
  Timing for freezing core and virtual orbitals:              0.000 s.
  Timing for computing conventional integrals:                0.048 s.

  ==> Summary of Active Space Solver Input <==

    Irrep.  Multi.(2ms)      N
    --------------------------
       A1      1  (  0)      1
       B1      1  (  0)      1
    --------------------------
    N: number of roots
    ms: spin z component
    Total number of roots:   2
    --------------------------


-------------------------------------------------------------------------------
               Selected Configuration Interaction Excited States
  written by Jeffrey B. Schriber, Tianyuan Zhang and Francesco A. Evangelista
-------------------------------------------------------------------------------

  ==> Reference Information <==

  ==> Calculation Information <==

  -----------------------------------------------------------------
    Multiplicity                             1    
    Symmetry                                 0    
    Number of roots                          1    
    Ms                                       0
    Excited Algorithm                        NONE
  -----------------------------------------------------------------
  Using 1 threads
  Computing wavefunction for root 0

        ---------------------------------------------------------------
                      Adaptive Configuration Interaction
          written by Jeffrey B. Schriber and Francesco A. Evangelista
        ---------------------------------------------------------------

  ==> Reference Information <==

  There are 0 frozen orbitals.
  There are 10 active orbitals.

  ==> Calculation Information <==

  -----------------------------------------------------------------
    Multiplicity                             1    
    Symmetry                                 0    
    Number of roots                          1    
    Root used for properties                 0    
    Sigma (Eh)                               1.00e-03
    Gamma (Eh^(-1))                          1.00e+00
    Convergence threshold                    1.00e-09
    Ms                                       0
    Diagonalization algorithm                SPARSE
    Excited Algorithm                        NONE
    Project out spin contaminants            True
    Enforce spin completeness of basis       True
    Enforce complete aimed selection         True
  -----------------------------------------------------------------
  Number of active alpha electrons: 7
  Number of active beta electrons: 7
  Maximum reference space size: 1000

  ==> GAS Orbital Energies from SCF <==

    GAS        Energy  Index
    ------------------------
     1   -20.67509326      0
     2   -11.35927182      1
     2    -1.52224836      2
     2    -0.79693086      3
     2    -0.54713745      4
     2     0.40906066      5
     2    -0.63485812      6
     2     0.16368498      7
     2    -0.63485812      8
     2     0.16368498      9
    ------------------------

  ==> Number of Electrons in GAS <==

    GAS  MAX  MIN
    -------------
      1    2    0
      2   14    0
    -------------

  ==> Possible Electron Occupations in GAS <==

    Config.  1_A  1_B  2_A  2_B
    ---------------------------
         1     1    1    6    6
         2     1    0    6    7
         3     0    1    7    6
         4     0    0    7    7
    ---------------------------
    n_A/B: # of alpha/beta electrons in GASn

  ==> Building GAS Determinants <==

    Reference determinant: |2222202020>

  ---------------------------------- Cycle 0 -----------------------------------


  ==> Diagonalizing the Hamiltonian in the P space <==

  Initial P space dimension: 1
  Spin-complete dimension of the P space: 1 determinants

  ==> Computing Coupling Lists <==
  --------------------------------
        α          0.000010 s
        β          0.000005 s
        αα         0.000012 s
        ββ         0.000010 s
        αβ         0.000026 s
  --------------------------------

  Davidson-Liu solver algorithm using SigmaVectorSparseList sigma algorithm

  Performing diagonalization of the H matrix
  Time spent diagonalizing H:   0.000182 s

    P-space  CI Energy Root   0        = -112.737611011039 Eh =   0.0000 eV, S^2 = 0.000000


  ==> Finding the Q space <==

  Using SR screening algorithm
  Time spent forming F space:             0.000048
  Time spent merging thread F spaces:             0.000023
  Size of F space: 157
  Time spent building sorting list: 0.000026
  Added 1 missing determinants in aimed selection.
  Time spent building the model space: 0.000181
  Spin-complete dimension of the PQ space: 53

  ==> Diagonalizing the Hamiltonian in the P + Q space <==

  Number of reference roots: 1

  ==> Computing Coupling Lists <==
  --------------------------------
        α          0.000153 s
        β          0.000151 s
        αα         0.000388 s
        ββ         0.000379 s
        αβ         0.000980 s
  --------------------------------

  Davidson-Liu solver algorithm using SigmaVectorSparseList sigma algorithm

  Performing diagonalization of the H matrix
  Total time spent diagonalizing H:   0.003188 s

    PQ-space CI Energy Root   0        = -112.790124530582 Eh =   0.0000 eV, S^2 = 0.000000
    PQ-space CI Energy + EPT2 Root   0 = -112.791052248150 Eh =   0.0000 eV


  ==> GAS Contribution Analysis <==

  Root 0:
    Config.  1_A  1_B  2_A  2_B  Contribution
    -----------------------------------------
         1     1    1    6    6 100.00000000%
         2     1    0    6    7   0.00000000%
         3     0    1    7    6   0.00000000%
         4     0    0    7    7   0.00000000%
    -----------------------------------------
               GAS1      GAS2    Contribution
    -----------------------------------------
                  0        14     0.00000000%
                  1        13     0.00000000%
                  2        12   100.00000000%
    -----------------------------------------

  ==> Pruning the Q space <==

  Added 1 missing determinants in aimed selection.
  Cycle 0 took: 0.004177 s

  ---------------------------------- Cycle 1 -----------------------------------


  ==> Diagonalizing the Hamiltonian in the P space <==

  Initial P space dimension: 30
  Spin-complete dimension of the P space: 42 determinants

  ==> Computing Coupling Lists <==
  --------------------------------
        α          0.000127 s
        β          0.000125 s
        αα         0.000311 s
        ββ         0.000304 s
        αβ         0.000792 s
  --------------------------------

  Davidson-Liu solver algorithm using SigmaVectorSparseList sigma algorithm

  Performing diagonalization of the H matrix
  Time spent diagonalizing H:   0.002153 s

    P-space  CI Energy Root   0        = -112.789304789929 Eh =   0.0000 eV, S^2 = 0.000000


  ==> Finding the Q space <==

  Using SR screening algorithm
  Time spent forming F space:             0.000725
  Time spent merging thread F spaces:             0.000186
  Size of F space: 1724
  Time spent building sorting list: 0.000239
  Added 3 missing determinants in aimed selection.
  Time spent building the model space: 0.001612
  Spin-complete dimension of the PQ space: 146

  ==> Diagonalizing the Hamiltonian in the P + Q space <==

  Number of reference roots: 1

  ==> Computing Coupling Lists <==
  --------------------------------
        α          0.000375 s
        β          0.000361 s
        αα         0.000906 s
        ββ         0.000897 s
        αβ         0.002397 s
  --------------------------------

  Davidson-Liu solver algorithm using SigmaVectorSparseList sigma algorithm

  Performing diagonalization of the H matrix
  Total time spent diagonalizing H:   0.008765 s

    PQ-space CI Energy Root   0        = -112.796040156341 Eh =   0.0000 eV, S^2 = 0.000000
    PQ-space CI Energy + EPT2 Root   0 = -112.797023896337 Eh =   0.0000 eV


  ==> GAS Contribution Analysis <==

  Root 0:
    Config.  1_A  1_B  2_A  2_B  Contribution
    -----------------------------------------
         1     1    1    6    6 100.00000000%
         2     1    0    6    7   0.00000000%
         3     0    1    7    6   0.00000000%
         4     0    0    7    7   0.00000000%
    -----------------------------------------
               GAS1      GAS2    Contribution
    -----------------------------------------
                  0        14     0.00000000%
                  1        13     0.00000000%
                  2        12   100.00000000%
    -----------------------------------------

  ==> Pruning the Q space <==

  Added 2 missing determinants in aimed selection.
  Cycle 1 took: 0.013725 s

  ---------------------------------- Cycle 2 -----------------------------------


  ==> Diagonalizing the Hamiltonian in the P space <==

  Initial P space dimension: 57
  Spin-complete dimension of the P space: 61 determinants

  ==> Computing Coupling Lists <==
  --------------------------------
        α          0.000154 s
        β          0.000155 s
        αα         0.000385 s
        ββ         0.000374 s
        αβ         0.000982 s
  --------------------------------

  Davidson-Liu solver algorithm using SigmaVectorSparseList sigma algorithm

  Performing diagonalization of the H matrix
  Time spent diagonalizing H:   0.002896 s

    P-space  CI Energy Root   0        = -112.794513595312 Eh =   0.0000 eV, S^2 = 0.000000


  ==> Finding the Q space <==

  Using SR screening algorithm
  Time spent forming F space:             0.000935
  Time spent merging thread F spaces:             0.000205
  Size of F space: 2098
  Time spent building sorting list: 0.000273
  Time spent building the model space: 0.001925
  Spin-complete dimension of the PQ space: 124

  ==> Diagonalizing the Hamiltonian in the P + Q space <==

  Number of reference roots: 1

  ==> Computing Coupling Lists <==
  --------------------------------
        α          0.000301 s
        β          0.000300 s
        αα         0.000813 s
        ββ         0.000875 s
        αβ         0.002105 s
  --------------------------------

  Davidson-Liu solver algorithm using SigmaVectorSparseList sigma algorithm

  Performing diagonalization of the H matrix
  Total time spent diagonalizing H:   0.006846 s

    PQ-space CI Energy Root   0        = -112.795961273185 Eh =   0.0000 eV, S^2 = 0.000000
    PQ-space CI Energy + EPT2 Root   0 = -112.796944312400 Eh =   0.0000 eV


  ==> GAS Contribution Analysis <==

  Root 0:
    Config.  1_A  1_B  2_A  2_B  Contribution
    -----------------------------------------
         1     1    1    6    6 100.00000000%
         2     1    0    6    7   0.00000000%
         3     0    1    7    6   0.00000000%
         4     0    0    7    7   0.00000000%
    -----------------------------------------
               GAS1      GAS2    Contribution
    -----------------------------------------
                  0        14     0.00000000%
                  1        13     0.00000000%
                  2        12   100.00000000%
    -----------------------------------------

  ==> Pruning the Q space <==

  Added 3 missing determinants in aimed selection.
  Cycle 2 took: 0.012777 s

  ---------------------------------- Cycle 3 -----------------------------------


  ==> Diagonalizing the Hamiltonian in the P space <==

  Initial P space dimension: 57
  Spin-complete dimension of the P space: 61 determinants

  ==> Computing Coupling Lists <==
  --------------------------------
        α          0.000179 s
        β          0.000176 s
        αα         0.000427 s
        ββ         0.000416 s
        αβ         0.001080 s
  --------------------------------

  Davidson-Liu solver algorithm using SigmaVectorSparseList sigma algorithm

  Performing diagonalization of the H matrix
  Time spent diagonalizing H:   0.003064 s

    P-space  CI Energy Root   0        = -112.794513595312 Eh =   0.0000 eV, S^2 = -0.000000


  ==> Finding the Q space <==

  Using SR screening algorithm
  Time spent forming F space:             0.000932
  Time spent merging thread F spaces:             0.000203
  Size of F space: 2098
  Time spent building sorting list: 0.000274
  Time spent building the model space: 0.001928
  Spin-complete dimension of the PQ space: 124

  ==> Diagonalizing the Hamiltonian in the P + Q space <==

  Number of reference roots: 1

  ==> Computing Coupling Lists <==
  --------------------------------
        α          0.000329 s
        β          0.000328 s
        αα         0.000819 s
        ββ         0.000811 s
        αβ         0.002077 s
  --------------------------------

  Davidson-Liu solver algorithm using SigmaVectorSparseList sigma algorithm

  Performing diagonalization of the H matrix
  Total time spent diagonalizing H:   0.006776 s

    PQ-space CI Energy Root   0        = -112.795961273185 Eh =   0.0000 eV, S^2 = 0.000000
    PQ-space CI Energy + EPT2 Root   0 = -112.796944312399 Eh =   0.0000 eV


  ==> GAS Contribution Analysis <==

  Root 0:
    Config.  1_A  1_B  2_A  2_B  Contribution
    -----------------------------------------
         1     1    1    6    6 100.00000000%
         2     1    0    6    7   0.00000000%
         3     0    1    7    6   0.00000000%
         4     0    0    7    7   0.00000000%
    -----------------------------------------
               GAS1      GAS2    Contribution
    -----------------------------------------
                  0        14     0.00000000%
                  1        13     0.00000000%
                  2        12   100.00000000%
    -----------------------------------------
  ***** Calculation Converged *****

  ==> ACI Natural Orbitals <==


  ==> Computing Coupling Lists <==
  --------------------------------
        α          0.000332 s
        β          0.000331 s
        2A1     2.000000      1A1     2.000000      3A1     1.999173  
        4A1     1.998626      5A1     1.971987      1B1     1.967179  
        1B2     1.967179      2B2     0.045872      2B1     0.045872  
        6A1     0.004112  

  ==> Excited state solver summary <==

  Iterations required:                         3
  Dimension of optimized determinant space:    124

  * Selected-CI Energy Root   0        = -112.795961273185 Eh =   0.0000 eV
  * Selected-CI Energy Root   0 + EPT2 = -112.796944312399 Eh =   0.0000 eV

  ==> Wavefunction Information <==

  Most important contributions to root   0:
    0  -0.975319 0.951247056          53 |2222202020>
    1   0.084404 0.007124077          52 |2222202002>
    2   0.084404 0.007124077          51 |2222200220>
    3   0.066693 0.004447994          50 |2222002220>
    4   0.066693 0.004447994          49 |2222002022>
    5   0.064901 0.004212159          47 |222220-++->
    6   0.064901 0.004212159          48 |222220+--+>
    7   0.052267 0.002731833          46 |222220+-+->
    8   0.052267 0.002731833          45 |222220-+-+>
    9  -0.023963 0.000574206          42 |222+-02022>

  Saving information for root: 0

-------------------------------------------------------------------------------
               Selected Configuration Interaction Excited States
  written by Jeffrey B. Schriber, Tianyuan Zhang and Francesco A. Evangelista
-------------------------------------------------------------------------------

  ==> Reference Information <==

  ==> Calculation Information <==

  -----------------------------------------------------------------
    Multiplicity                             1    
    Symmetry                                 2    
    Number of roots                          1    
    Ms                                       0
    Excited Algorithm                        NONE
  -----------------------------------------------------------------
  Using 1 threads
  Computing wavefunction for root 0

        ---------------------------------------------------------------
                      Adaptive Configuration Interaction
          written by Jeffrey B. Schriber and Francesco A. Evangelista
        ---------------------------------------------------------------

  ==> Reference Information <==

  There are 0 frozen orbitals.
  There are 10 active orbitals.

  ==> Calculation Information <==

  -----------------------------------------------------------------
    Multiplicity                             1    
    Symmetry                                 2    
    Number of roots                          1    
    Root used for properties                 0    
    Sigma (Eh)                               1.00e-03
    Gamma (Eh^(-1))                          1.00e+00
    Convergence threshold                    1.00e-09
    Ms                                       0
    Diagonalization algorithm                SPARSE
    Excited Algorithm                        NONE
    Project out spin contaminants            True
    Enforce spin completeness of basis       True
    Enforce complete aimed selection         True
  -----------------------------------------------------------------
  Number of active alpha electrons: 7
  Number of active beta electrons: 7
  Maximum reference space size: 1000

  ==> GAS Orbital Energies from SCF <==

    GAS        Energy  Index
    ------------------------
     1   -20.67509326      0
     2   -11.35927182      1
     2    -1.52224836      2
     2    -0.79693086      3
     2    -0.54713745      4
     2     0.40906066      5
     2    -0.63485812      6
     2     0.16368498      7
     2    -0.63485812      8
     2     0.16368498      9
    ------------------------

  ==> Number of Electrons in GAS <==

    GAS  MAX  MIN
    -------------
      1    1    0
      2   14    0
    -------------

  ==> Possible Electron Occupations in GAS <==

    Config.  1_A  1_B  2_A  2_B
    ---------------------------
         1     1    0    6    7
         2     0    1    7    6
         3     0    0    7    7
    ---------------------------
    n_A/B: # of alpha/beta electrons in GASn

  ==> Building GAS Determinants <==

    Reference determinant: |+222202-20>

  ---------------------------------- Cycle 0 -----------------------------------


  ==> Diagonalizing the Hamiltonian in the P space <==

  Initial P space dimension: 1
  Spin-complete dimension of the P space: 2 determinants

  ==> Computing Coupling Lists <==
  --------------------------------
        α          0.000008 s
        β          0.000008 s
        αα         0.000019 s
        ββ         0.000017 s
        αβ         0.000043 s
  --------------------------------

  Davidson-Liu solver algorithm using SigmaVectorSparseList sigma algorithm

  Performing diagonalization of the H matrix
  Time spent diagonalizing H:   0.000166 s

    P-space  CI Energy Root   0        = -92.424092538923 Eh =   0.0000 eV, S^2 = 2.000000


  ==> Finding the Q space <==

  Using SR screening algorithm
  Time spent forming F space:             0.000050
  Time spent merging thread F spaces:             0.000022
  Size of F space: 212
  Time spent building sorting list: 0.000030
  Time spent building the model space: 0.000175
  Spin-complete dimension of the PQ space: 106

  ==> Diagonalizing the Hamiltonian in the P + Q space <==

  Number of reference roots: 1

  ==> Computing Coupling Lists <==
  --------------------------------
        α          0.000281 s
        β          0.000281 s
        αα         0.000713 s
        ββ         0.000705 s
        αβ         0.001805 s
  --------------------------------

  Davidson-Liu solver algorithm using SigmaVectorSparseList sigma algorithm

  Performing diagonalization of the H matrix
  Total time spent diagonalizing H:   0.005586 s

    PQ-space CI Energy Root   0        = -92.687775591145 Eh =   0.0000 eV, S^2 = 2.000000
    PQ-space CI Energy + EPT2 Root   0 = -92.688740757591 Eh =   0.0000 eV


  ==> GAS Contribution Analysis <==

  Root 0:
    Config.  1_A  1_B  2_A  2_B  Contribution
    -----------------------------------------
         1     1    0    6    7  49.99903357%
         2     0    1    7    6  49.99903357%
         3     0    0    7    7   0.00193287%
    -----------------------------------------
               GAS1      GAS2    Contribution
    -----------------------------------------
                  0        14     0.00193287%
                  1        13    99.99806713%
    -----------------------------------------

  ==> Pruning the Q space <==

  Cycle 0 took: 0.006725 s

  ---------------------------------- Cycle 1 -----------------------------------


  ==> Diagonalizing the Hamiltonian in the P space <==

  Initial P space dimension: 50
  Spin-complete dimension of the P space: 100 determinants

  ==> Computing Coupling Lists <==
  --------------------------------
        α          0.000256 s
        β          0.000253 s
        αα         0.000621 s
        ββ         0.000603 s
        αβ         0.001688 s
  --------------------------------

  Davidson-Liu solver algorithm using SigmaVectorSparseList sigma algorithm

  Performing diagonalization of the H matrix
  Time spent diagonalizing H:   0.005082 s

    P-space  CI Energy Root   0        = -92.687258780321 Eh =   0.0000 eV, S^2 = 2.000000


  ==> Finding the Q space <==

  Using SR screening algorithm
  Time spent forming F space:             0.001117
  Time spent merging thread F spaces:             0.000130
  Size of F space: 1322
  Time spent building sorting list: 0.000173
  Time spent building the model space: 0.001758
  Spin-complete dimension of the PQ space: 168

  ==> Diagonalizing the Hamiltonian in the P + Q space <==

  Number of reference roots: 1

  ==> Computing Coupling Lists <==
  --------------------------------
        α          0.000415 s
        β          0.000413 s
        αα         0.001021 s
        ββ         0.001074 s
        αβ         0.002793 s
  --------------------------------

  Davidson-Liu solver algorithm using SigmaVectorSparseList sigma algorithm

  Performing diagonalization of the H matrix
  Total time spent diagonalizing H:   0.010047 s

    PQ-space CI Energy Root   0        = -92.691091983582 Eh =   0.0000 eV, S^2 = 2.000000
    PQ-space CI Energy + EPT2 Root   0 = -92.692079808627 Eh =   0.0000 eV


  ==> GAS Contribution Analysis <==

  Root 0:
    Config.  1_A  1_B  2_A  2_B  Contribution
    -----------------------------------------
         1     1    0    6    7  49.99906557%
         2     0    1    7    6  49.99906557%
         3     0    0    7    7   0.00186887%
    -----------------------------------------
               GAS1      GAS2    Contribution
    -----------------------------------------
                  0        14     0.00186887%
                  1        13    99.99813113%
    -----------------------------------------

  ==> Pruning the Q space <==

  Cycle 1 took: 0.018280 s

  ---------------------------------- Cycle 2 -----------------------------------


  ==> Diagonalizing the Hamiltonian in the P space <==

  Initial P space dimension: 68
  Spin-complete dimension of the P space: 108 determinants

  ==> Computing Coupling Lists <==
  --------------------------------
        α          0.000276 s
        β          0.000270 s
        αα         0.000664 s
        ββ         0.000649 s
        αβ         0.001811 s
  --------------------------------

  Davidson-Liu solver algorithm using SigmaVectorSparseList sigma algorithm

  Performing diagonalization of the H matrix
  Time spent diagonalizing H:   0.005535 s

    P-space  CI Energy Root   0        = -92.688867667132 Eh =   0.0000 eV, S^2 = 2.000000


  ==> Finding the Q space <==

  Using SR screening algorithm
  Time spent forming F space:             0.001225
  Time spent merging thread F spaces:             0.000135
  Size of F space: 1382
  Time spent building sorting list: 0.000181
  Added 1 missing determinants in aimed selection.
  Time spent building the model space: 0.001910
  Spin-complete dimension of the PQ space: 170

  ==> Diagonalizing the Hamiltonian in the P + Q space <==

  Number of reference roots: 1

  ==> Computing Coupling Lists <==
  --------------------------------
        α          0.000421 s
        β          0.000417 s
        αα         0.001026 s
        ββ         0.001071 s
        αβ         0.002754 s
  --------------------------------

  Davidson-Liu solver algorithm using SigmaVectorSparseList sigma algorithm

  Performing diagonalization of the H matrix
  Total time spent diagonalizing H:   0.010154 s

    PQ-space CI Energy Root   0        = -92.691156796377 Eh =   0.0000 eV, S^2 = 2.000000
    PQ-space CI Energy + EPT2 Root   0 = -92.692138281500 Eh =   0.0000 eV


  ==> GAS Contribution Analysis <==

  Root 0:
    Config.  1_A  1_B  2_A  2_B  Contribution
    -----------------------------------------
         1     1    0    6    7  49.99906546%
         2     0    1    7    6  49.99906546%
         3     0    0    7    7   0.00186907%
    -----------------------------------------
               GAS1      GAS2    Contribution
    -----------------------------------------
                  0        14     0.00186907%
                  1        13    99.99813093%
    -----------------------------------------

  ==> Pruning the Q space <==

  Added 1 missing determinants in aimed selection.
  Cycle 2 took: 0.019037 s

  ---------------------------------- Cycle 3 -----------------------------------


  ==> Diagonalizing the Hamiltonian in the P space <==

  Initial P space dimension: 70
  Spin-complete dimension of the P space: 114 determinants

  ==> Computing Coupling Lists <==
  --------------------------------
        α          0.000308 s
        β          0.000312 s
        αα         0.000816 s
        ββ         0.000783 s
        αβ         0.001945 s
  --------------------------------

  Davidson-Liu solver algorithm using SigmaVectorSparseList sigma algorithm

  Performing diagonalization of the H matrix
  Time spent diagonalizing H:   0.006187 s

    P-space  CI Energy Root   0        = -92.689195120702 Eh =   0.0000 eV, S^2 = 2.000000


  ==> Finding the Q space <==

  Using SR screening algorithm
  Time spent forming F space:             0.001280
  Time spent merging thread F spaces:             0.000141
  Size of F space: 1456
  Time spent building sorting list: 0.000193
  Time spent building the model space: 0.001987
  Spin-complete dimension of the PQ space: 172

  ==> Diagonalizing the Hamiltonian in the P + Q space <==

  Number of reference roots: 1

  ==> Computing Coupling Lists <==
  --------------------------------
        α          0.000451 s
        β          0.000464 s
        αα         0.001139 s
        ββ         0.001125 s
        αβ         0.002854 s
  --------------------------------

  Davidson-Liu solver algorithm using SigmaVectorSparseList sigma algorithm

  Performing diagonalization of the H matrix
  Total time spent diagonalizing H:   0.010636 s

    PQ-space CI Energy Root   0        = -92.691245384184 Eh =   0.0000 eV, S^2 = 2.000000
    PQ-space CI Energy + EPT2 Root   0 = -92.692238645861 Eh =   0.0000 eV


  ==> GAS Contribution Analysis <==

  Root 0:
    Config.  1_A  1_B  2_A  2_B  Contribution
    -----------------------------------------
         1     1    0    6    7  49.99906566%
         2     0    1    7    6  49.99906567%
         3     0    0    7    7   0.00186867%
    -----------------------------------------
               GAS1      GAS2    Contribution
    -----------------------------------------
                  0        14     0.00186867%
                  1        13    99.99813133%
    -----------------------------------------

  ==> Pruning the Q space <==

  Cycle 3 took: 0.020219 s

  ---------------------------------- Cycle 4 -----------------------------------


  ==> Diagonalizing the Hamiltonian in the P space <==

  Initial P space dimension: 70
  Spin-complete dimension of the P space: 114 determinants

  ==> Computing Coupling Lists <==
  --------------------------------
        α          0.000302 s
        β          0.000307 s
        αα         0.000777 s
        ββ         0.000770 s
        αβ         0.001966 s
  --------------------------------

  Davidson-Liu solver algorithm using SigmaVectorSparseList sigma algorithm

  Performing diagonalization of the H matrix
  Time spent diagonalizing H:   0.006221 s

    P-space  CI Energy Root   0        = -92.689195120702 Eh =   0.0000 eV, S^2 = 2.000000


  ==> Finding the Q space <==

  Using SR screening algorithm
  Time spent forming F space:             0.001277
  Time spent merging thread F spaces:             0.000153
  Size of F space: 1456
  Time spent building sorting list: 0.000193
  Time spent building the model space: 0.001989
  Spin-complete dimension of the PQ space: 172

  ==> Diagonalizing the Hamiltonian in the P + Q space <==

  Number of reference roots: 1

  ==> Computing Coupling Lists <==
  --------------------------------
        α          0.000444 s
        β          0.000462 s
        αα         0.001137 s
        ββ         0.001117 s
        αβ         0.002845 s
  --------------------------------

  Davidson-Liu solver algorithm using SigmaVectorSparseList sigma algorithm

  Performing diagonalization of the H matrix
  Total time spent diagonalizing H:   0.010303 s

    PQ-space CI Energy Root   0        = -92.691245384184 Eh =   0.0000 eV, S^2 = 2.000000
    PQ-space CI Energy + EPT2 Root   0 = -92.692238645861 Eh =   0.0000 eV


  ==> GAS Contribution Analysis <==

  Root 0:
    Config.  1_A  1_B  2_A  2_B  Contribution
    -----------------------------------------
         1     1    0    6    7  49.99906567%
         2     0    1    7    6  49.99906566%
         3     0    0    7    7   0.00186867%
    -----------------------------------------
               GAS1      GAS2    Contribution
    -----------------------------------------
                  0        14     0.00186867%
                  1        13    99.99813133%
    -----------------------------------------
  ***** Calculation Converged *****

  ==> ACI Natural Orbitals <==


  ==> Computing Coupling Lists <==
  --------------------------------
        α          0.000430 s
        β          0.000440 s
        1A1     2.000000      2A1     1.999789      3A1     1.999580  
        1B1     1.999184      1B2     1.997983      4A1     1.963023  
        2B1     1.000816      5A1     0.999996      2B2     0.036632  
        6A1     0.002997  

  ==> Excited state solver summary <==

  Iterations required:                         4
  Dimension of optimized determinant space:    172

  * Selected-CI Energy Root   0        = -92.691245384184 Eh =   0.0000 eV
  * Selected-CI Energy Root   0 + EPT2 = -92.692238645861 Eh =   0.0000 eV

  ==> Wavefunction Information <==

  Most important contributions to root   0:
    0   0.623729 0.389038344          68 |+222202-20>
    1  -0.623729 0.389038344          69 |-222202+20>
    2  -0.176472 0.031142374          66 |+222202--+>
    3   0.176472 0.031142374          67 |-222202++->
    4  -0.174884 0.030584553          64 |+22220-220>
    5   0.174884 0.030584553          65 |-22220+220>
    6  -0.164180 0.026954930          62 |+222202-+->
    7   0.164180 0.026954930          63 |-222202+-+>
    8   0.078367 0.006141452          60 |+222002-22>
    9  -0.078367 0.006141452          61 |-222002+22>

  Saving information for root: 0

  ==> Energy Summary <==

    Multi.(2ms)  Irrep.  No.               Energy
    ---------------------------------------------
       1  (  0)    A1     0     -112.795961273185
    ---------------------------------------------
       1  (  0)    B1     0      -92.691245384184
    ---------------------------------------------

  Time to prepare integrals:        0.074 seconds
  Time to run job          :        0.133 seconds
  Total                    :        0.207 seconds    ACI energy............................................................................PASSED
    ACI+PT2 energy........................................................................PASSED
    AVERAGE ACI ENERGY....................................................................PASSED

    Psi4 stopped on: Saturday, 30 January 2021 03:41AM
    Psi4 wall time for execution: 0:00:00.43

*** Psi4 exiting successfully. Buy a developer a beer!
