
    -----------------------------------------------------------------------
          Psi4: An Open-Source Ab Initio Electronic Structure Package
                               Psi4 undefined 

                         Git: Rev {master} 67a0d70 dirty


    D. G. A. Smith, L. A. Burns, A. C. Simmonett, R. M. Parrish,
    M. C. Schieber, R. Galvelis, P. Kraus, H. Kruse, R. Di Remigio,
    A. Alenaizan, A. M. James, S. Lehtola, J. P. Misiewicz, M. Scheurer,
    R. A. Shaw, J. B. Schriber, Y. Xie, Z. L. Glick, D. A. Sirianni,
    J. S. O'Brien, J. M. Waldrop, A. Kumar, E. G. Hohenstein,
    B. P. Pritchard, B. R. Brooks, H. F. Schaefer III, A. Yu. Sokolov,
    K. Patkowski, A. E. DePrince III, U. Bozkaya, R. A. King,
    F. A. Evangelista, J. M. Turney, T. D. Crawford, C. D. Sherrill,
    J. Chem. Phys. 152(18) 184108 (2020). https://doi.org/10.1063/5.0006002

                            Additional Code Authors
    E. T. Seidl, C. L. Janssen, E. F. Valeev, M. L. Leininger,
    J. F. Gonthier, R. M. Richard, H. R. McAlexander, M. Saitow, X. Wang,
    P. Verma, and M. H. Lechner

             Previous Authors, Complete List of Code Contributors,
                       and Citations for Specific Modules
    https://github.com/psi4/psi4/blob/master/codemeta.json
    https://github.com/psi4/psi4/graphs/contributors
    http://psicode.org/psi4manual/master/introduction.html#citing-psifour

    -----------------------------------------------------------------------


    Psi4 started on: Tuesday, 16 March 2021 06:11PM

    Process ID: 53259
    Host:       CHE-FEVANGE
    PSIDATADIR: /Users/fevange/Source/psi4/objdir-Debug/stage/share/psi4
    Memory:     500.0 MiB
    Threads:    1
    
  ==> Input File <==

--------------------------------------------------------------------------
#! Generated using commit GITCOMMIT 
# GAS ACI calculation for core excited state of CO using MULTI_GAS algorithm

import forte

memory 6000mb

exaci = -92.6912453842 #TEST
exacipt2 = -92.6922386459 #TEST
aveaci = -102.7436033287 #TEST

molecule CO{
0 1
   C
   O 1 1.123708
}

set {
  basis 6-31g**
  e_convergence 10
  d_convergence 10
  r_convergence 10
  guess gwh
  scf_type pk
  reference rohf
}


set forte {
  active_space_solver aci
  ms 0.0
  sigma 0.001
  nroot 1
  root_sym 0
  charge 0
  sci_enforce_spin_complete true
  active_ref_type gas_single
  charge 0
  GAS1 [1,0,0,0]
  GAS2 [5,0,2,2]
  AVG_STATE [[0,1,1],[2,3,1]]
  GAS1MAX [2,1]
  aci_n_average 0
}

escf ,wfn = energy('scf',return_wfn = True)

ave_e = energy('forte')
compare_values(exaci, variable("ACI ENERGY"),9, "ACI energy") #TEST     
compare_values(exacipt2, variable("ACI+PT2 ENERGY"), 9, "ACI+PT2 energy") #TEST
compare_values(aveaci, ave_e, 9, "AVERAGE ACI ENERGY") #TEST
--------------------------------------------------------------------------

  Memory set to   5.588 GiB by Python driver.

Scratch directory: /tmp/

*** tstart() called on CHE-FEVANGE
*** at Tue Mar 16 18:11:28 2021

   => Loading Basis Set <=

    Name: 6-31G**
    Role: ORBITAL
    Keyword: BASIS
    atoms 1 entry C          line   115 file /Users/fevange/Source/psi4/objdir-Debug/stage/share/psi4/basis/6-31gss.gbs 
    atoms 2 entry O          line   149 file /Users/fevange/Source/psi4/objdir-Debug/stage/share/psi4/basis/6-31gss.gbs 


         ---------------------------------------------------------
                                   SCF
               by Justin Turney, Rob Parrish, Andy Simmonett
                          and Daniel G. A. Smith
                             ROHF Reference
                        1 Threads,   5722 MiB Core
         ---------------------------------------------------------

  ==> Geometry <==

    Molecular point group: c2v
    Full point group: C_inf_v

    Geometry (in Angstrom), charge = 0, multiplicity = 1:

       Center              X                  Y                   Z               Mass       
    ------------   -----------------  -----------------  -----------------  -----------------
         C            0.000000000000     0.000000000000    -0.642031374683    12.000000000000
         O            0.000000000000     0.000000000000     0.481676625317    15.994914619570

  Running in c2v symmetry.

  Rotational constants: A = ************  B =      1.94718  C =      1.94718 [cm^-1]
  Rotational constants: A = ************  B =  58374.91066  C =  58374.91066 [MHz]
  Nuclear repulsion =   22.604187308589072

  Charge       = 0
  Multiplicity = 1
  Electrons    = 14
  Nalpha       = 7
  Nbeta        = 7

  ==> Algorithm <==

  SCF Algorithm Type is PK.
  DIIS enabled.
  MOM disabled.
  Fractional occupation disabled.
  Guess Type is GWH.
  Energy threshold   = 1.00e-10
  Density threshold  = 1.00e-10
  Integral threshold = 1.00e-12

  ==> Primary Basis <==

  Basis Set: 6-31G**
    Blend: 6-31G**
    Number of shells: 12
    Number of basis function: 30
    Number of Cartesian functions: 30
    Spherical Harmonics?: false
    Max angular momentum: 2

  ==> Integral Setup <==

  Using in-core PK algorithm.
   Calculation information:
      Number of atoms:                   2
      Number of AO shells:              12
      Number of primitives:             30
      Number of atomic orbitals:        30
      Number of basis functions:        30

      Integral cutoff                 1.00e-12
      Number of threads:                 1

  Performing in-core PK
  Using 216690 doubles for integral storage.
  We computed 3081 shell quartets total.
  Whereas there are 3081 unique shell quartets.

  ==> DiskJK: Disk-Based J/K Matrices <==

    J tasked:                  Yes
    K tasked:                  Yes
    wK tasked:                  No
    Memory [MiB]:             4291
    Schwarz Cutoff:          1E-12

    OpenMP threads:              1

  Minimum eigenvalue in the overlap matrix is 7.6561678406E-03.
  Reciprocal condition number of the overlap matrix is 1.4485031790E-03.
    Using symmetric orthogonalization.

  ==> Pre-Iterations <==

  SCF Guess: Generalized Wolfsberg-Helmholtz.

   -------------------------------------------------------
    Irrep   Nso     Nmo     Nalpha   Nbeta   Ndocc  Nsocc
   -------------------------------------------------------
     A1        16      16       5       5       5       0
     A2         2       2       0       0       0       0
     B1         6       6       1       1       1       0
     B2         6       6       1       1       1       0
   -------------------------------------------------------
    Total      30      30       7       7       7       0
   -------------------------------------------------------

  ==> Iterations <==

                        Total Energy        Delta E     RMS |[F,P]|

   @ROHF iter   1:  -111.55875766978522   -1.11559e+02   7.47973e-02 DIIS
   @ROHF iter   2:  -112.25282615537444   -6.94068e-01   4.55450e-02 DIIS
   @ROHF iter   3:  -112.68232123436235   -4.29495e-01   1.48650e-02 DIIS
   @ROHF iter   4:  -112.73739759824969   -5.50764e-02   7.16915e-04 DIIS
   @ROHF iter   5:  -112.73760131665762   -2.03718e-04   1.49149e-04 DIIS
   @ROHF iter   6:  -112.73761091467031   -9.59801e-06   1.26205e-05 DIIS
   @ROHF iter   7:  -112.73761100863274   -9.39624e-08   2.36513e-06 DIIS
   @ROHF iter   8:  -112.73761101088706   -2.25432e-09   5.73508e-07 DIIS
   @ROHF iter   9:  -112.73761101102258   -1.35515e-10   1.77318e-07 DIIS
   @ROHF iter  10:  -112.73761101103815   -1.55751e-11   2.13186e-08 DIIS
   @ROHF iter  11:  -112.73761101103852   -3.69482e-13   1.43484e-09 DIIS
   @ROHF iter  12:  -112.73761101103852    0.00000e+00   2.66320e-10 DIIS
   @ROHF iter  13:  -112.73761101103852    0.00000e+00   1.51119e-11 DIIS
  Energy and wave function converged.


  ==> Post-Iterations <==

    Orbital Energies [Eh]
    ---------------------

    Doubly Occupied:                                                      

       1A1   -20.675093     2A1   -11.359272     3A1    -1.522248  
       4A1    -0.796931     1B1    -0.634858     1B2    -0.634858  
       5A1    -0.547137  

    Singly Occupied:                                                      

    

    Virtual:                                                              

       2B1     0.163685     2B2     0.163685     6A1     0.409061  
       3B1     0.733489     3B2     0.733489     7A1     0.758352  
       8A1     0.995752     9A1     1.103683     4B1     1.207063  
       4B2     1.207063    10A1     1.611233     1A2     1.747874  
      11A1     1.747874     5B1     1.848075     5B2     1.848075  
       2A2     2.264383    12A1     2.264383    13A1     2.782669  
       6B2     2.957883     6B1     2.957883    14A1     3.360305  
      15A1     4.103048    16A1     4.302533  

    Final Occupation by Irrep:
             A1    A2    B1    B2 
    DOCC [     5,    0,    1,    1 ]
    SOCC [     0,    0,    0,    0 ]

  @ROHF Final Energy:  -112.73761101103852

   => Energetics <=

    Nuclear Repulsion Energy =             22.6041873085890721
    One-Electron Energy =                -198.3428006717376775
    Two-Electron Energy =                  63.0010023521100706
    Total Energy =                       -112.7376110110385241

Computation Completed


Properties will be evaluated at   0.000000,   0.000000,   0.000000 [a0]

Properties computed using the SCF density matrix

  Nuclear Dipole Moment: [e a0]
     X:     0.0000      Y:     0.0000      Z:     0.0023

  Electronic Dipole Moment: [e a0]
     X:     0.0000      Y:     0.0000      Z:    -0.1246

  Dipole Moment: [e a0]
     X:     0.0000      Y:     0.0000      Z:    -0.1223     Total:     0.1223

  Dipole Moment: [D]
     X:     0.0000      Y:     0.0000      Z:    -0.3109     Total:     0.3109


*** tstop() called on CHE-FEVANGE at Tue Mar 16 18:11:29 2021
Module time:
	user time   =       0.35 seconds =       0.01 minutes
	system time =       0.01 seconds =       0.00 minutes
	total time  =          1 seconds =       0.02 minutes
Total time:
	user time   =       0.35 seconds =       0.01 minutes
	system time =       0.01 seconds =       0.00 minutes
	total time  =          1 seconds =       0.02 minutes

Scratch directory: /tmp/

 Data is an array -> call again
 Data is an array -> call again
  Forte
  ----------------------------------------------------------------------------
  A suite of quantum chemistry methods for strongly correlated electrons

    git branch: genop - git commit: 657e71d8

  Developed by:
    Francesco A. Evangelista, Chenyang Li, Kevin P. Hannon,
    Jeffrey B. Schriber, Tianyuan Zhang, Chenxi Cai,
    Nan He, Nicholas Stair, Shuhe Wang, Renke Huang
  ----------------------------------------------------------------------------

  Size of Determinant class: 128 bits

  Preparing forte objects from a Psi4 Wavefunction object
  No reference wave function provided for Forte. Computing SCF orbitals using Psi4 ...

*** tstart() called on CHE-FEVANGE
*** at Tue Mar 16 18:11:29 2021

   => Loading Basis Set <=

    Name: 6-31G**
    Role: ORBITAL
    Keyword: BASIS
    atoms 1 entry C          line   115 file /Users/fevange/Source/psi4/objdir-Debug/stage/share/psi4/basis/6-31gss.gbs 
    atoms 2 entry O          line   149 file /Users/fevange/Source/psi4/objdir-Debug/stage/share/psi4/basis/6-31gss.gbs 


         ---------------------------------------------------------
                                   SCF
               by Justin Turney, Rob Parrish, Andy Simmonett
                          and Daniel G. A. Smith
                             ROHF Reference
                        1 Threads,   5722 MiB Core
         ---------------------------------------------------------

  ==> Geometry <==

    Molecular point group: c2v
    Full point group: C_inf_v

    Geometry (in Angstrom), charge = 0, multiplicity = 1:

       Center              X                  Y                   Z               Mass       
    ------------   -----------------  -----------------  -----------------  -----------------
         C            0.000000000000     0.000000000000    -0.642031374683    12.000000000000
         O            0.000000000000     0.000000000000     0.481676625317    15.994914619570

  Running in c2v symmetry.

  Rotational constants: A = ************  B =      1.94718  C =      1.94718 [cm^-1]
  Rotational constants: A = ************  B =  58374.91066  C =  58374.91066 [MHz]
  Nuclear repulsion =   22.604187308589072

  Charge       = 0
  Multiplicity = 1
  Electrons    = 14
  Nalpha       = 7
  Nbeta        = 7

  ==> Algorithm <==

  SCF Algorithm Type is PK.
  DIIS enabled.
  MOM disabled.
  Fractional occupation disabled.
  Guess Type is GWH.
  Energy threshold   = 1.00e-10
  Density threshold  = 1.00e-10
  Integral threshold = 1.00e-12

  ==> Primary Basis <==

  Basis Set: 6-31G**
    Blend: 6-31G**
    Number of shells: 12
    Number of basis function: 30
    Number of Cartesian functions: 30
    Spherical Harmonics?: false
    Max angular momentum: 2

  ==> Integral Setup <==

  Using in-core PK algorithm.
   Calculation information:
      Number of atoms:                   2
      Number of AO shells:              12
      Number of primitives:             30
      Number of atomic orbitals:        30
      Number of basis functions:        30

      Integral cutoff                 1.00e-12
      Number of threads:                 1

  Performing in-core PK
  Using 216690 doubles for integral storage.
  We computed 3081 shell quartets total.
  Whereas there are 3081 unique shell quartets.

  ==> DiskJK: Disk-Based J/K Matrices <==

    J tasked:                  Yes
    K tasked:                  Yes
    wK tasked:                  No
    Memory [MiB]:             4291
    Schwarz Cutoff:          1E-12

    OpenMP threads:              1

  Minimum eigenvalue in the overlap matrix is 7.6561678406E-03.
  Reciprocal condition number of the overlap matrix is 1.4485031790E-03.
    Using symmetric orthogonalization.

  ==> Pre-Iterations <==

  SCF Guess: Generalized Wolfsberg-Helmholtz.

   -------------------------------------------------------
    Irrep   Nso     Nmo     Nalpha   Nbeta   Ndocc  Nsocc
   -------------------------------------------------------
     A1        16      16       5       5       5       0
     A2         2       2       0       0       0       0
     B1         6       6       1       1       1       0
     B2         6       6       1       1       1       0
   -------------------------------------------------------
    Total      30      30       7       7       7       0
   -------------------------------------------------------

  ==> Iterations <==

                        Total Energy        Delta E     RMS |[F,P]|

   @ROHF iter   1:  -111.55875766978522   -1.11559e+02   7.47973e-02 DIIS
   @ROHF iter   2:  -112.25282615537444   -6.94068e-01   4.55450e-02 DIIS
   @ROHF iter   3:  -112.68232123436235   -4.29495e-01   1.48650e-02 DIIS
   @ROHF iter   4:  -112.73739759824969   -5.50764e-02   7.16915e-04 DIIS
   @ROHF iter   5:  -112.73760131665762   -2.03718e-04   1.49149e-04 DIIS
   @ROHF iter   6:  -112.73761091467031   -9.59801e-06   1.26205e-05 DIIS
   @ROHF iter   7:  -112.73761100863274   -9.39624e-08   2.36513e-06 DIIS
   @ROHF iter   8:  -112.73761101088706   -2.25432e-09   5.73508e-07 DIIS
   @ROHF iter   9:  -112.73761101102258   -1.35515e-10   1.77318e-07 DIIS
   @ROHF iter  10:  -112.73761101103815   -1.55751e-11   2.13186e-08 DIIS
   @ROHF iter  11:  -112.73761101103852   -3.69482e-13   1.43484e-09 DIIS
   @ROHF iter  12:  -112.73761101103852    0.00000e+00   2.66320e-10 DIIS
   @ROHF iter  13:  -112.73761101103855   -2.84217e-14   1.51119e-11 DIIS
  Energy and wave function converged.


  ==> Post-Iterations <==

    Orbital Energies [Eh]
    ---------------------

    Doubly Occupied:                                                      

       1A1   -20.675093     2A1   -11.359272     3A1    -1.522248  
       4A1    -0.796931     1B1    -0.634858     1B2    -0.634858  
       5A1    -0.547137  

    Singly Occupied:                                                      

    

    Virtual:                                                              

       2B1     0.163685     2B2     0.163685     6A1     0.409061  
       3B1     0.733489     3B2     0.733489     7A1     0.758352  
       8A1     0.995752     9A1     1.103683     4B1     1.207063  
       4B2     1.207063    10A1     1.611233     1A2     1.747874  
      11A1     1.747874     5B1     1.848075     5B2     1.848075  
       2A2     2.264383    12A1     2.264383    13A1     2.782669  
       6B2     2.957883     6B1     2.957883    14A1     3.360305  
      15A1     4.103048    16A1     4.302533  

    Final Occupation by Irrep:
             A1    A2    B1    B2 
    DOCC [     5,    0,    1,    1 ]
    SOCC [     0,    0,    0,    0 ]

  @ROHF Final Energy:  -112.73761101103855

   => Energetics <=

    Nuclear Repulsion Energy =             22.6041873085890721
    One-Electron Energy =                -198.3428006717376775
    Two-Electron Energy =                  63.0010023521100635
    Total Energy =                       -112.7376110110385383

Computation Completed


Properties will be evaluated at   0.000000,   0.000000,   0.000000 [a0]

Properties computed using the SCF density matrix

  Nuclear Dipole Moment: [e a0]
     X:     0.0000      Y:     0.0000      Z:     0.0023

  Electronic Dipole Moment: [e a0]
     X:     0.0000      Y:     0.0000      Z:    -0.1246

  Dipole Moment: [e a0]
     X:     0.0000      Y:     0.0000      Z:    -0.1223     Total:     0.1223

  Dipole Moment: [D]
     X:     0.0000      Y:     0.0000      Z:    -0.3109     Total:     0.3109


*** tstop() called on CHE-FEVANGE at Tue Mar 16 18:11:29 2021
Module time:
	user time   =       0.37 seconds =       0.01 minutes
	system time =       0.01 seconds =       0.00 minutes
	total time  =          0 seconds =       0.00 minutes
Total time:
	user time   =       0.76 seconds =       0.01 minutes
	system time =       0.02 seconds =       0.00 minutes
	total time  =          1 seconds =       0.02 minutes

  Read options for space GAS1
  Read options for space GAS2
  Read options for space GAS1
  Read options for space GAS2

  ==> MO Space Information <==

  -------------------------------------------------
                       A1    A2    B1    B2   Sum
  -------------------------------------------------
    FROZEN_DOCC         0     0     0     0     0
    RESTRICTED_DOCC     0     0     0     0     0
    GAS1                1     0     0     0     1
    GAS2                5     0     2     2     9
    GAS3                0     0     0     0     0
    GAS4                0     0     0     0     0
    GAS5                0     0     0     0     0
    GAS6                0     0     0     0     0
    RESTRICTED_UOCC    10     2     4     4    20
    FROZEN_UOCC         0     0     0     0     0
    Total              16     2     6     6    30
  -------------------------------------------------   => Loading Basis Set <=

    Name: STO-3G
    Role: ORBITAL
    Keyword: MINAO_BASIS
    atoms 1 entry C          line    61 file /Users/fevange/Source/psi4/objdir-Debug/stage/share/psi4/basis/sto-3g.gbs 
    atoms 2 entry O          line    81 file /Users/fevange/Source/psi4/objdir-Debug/stage/share/psi4/basis/sto-3g.gbs 


  Forte will use psi4 integrals

  ==> Primary Basis Set Summary <==

  Basis Set: 6-31G**
    Blend: 6-31G**
    Number of shells: 12
    Number of basis function: 30
    Number of Cartesian functions: 30
    Spherical Harmonics?: false
    Max angular momentum: 2


  JK created using conventional PK integrals
  Using in-core PK algorithm.
   Calculation information:
      Number of atoms:                   2
      Number of AO shells:              12
      Number of primitives:             30
      Number of atomic orbitals:        30
      Number of basis functions:        30

      Integral cutoff                 1.00e-12
      Number of threads:                 1

  Performing in-core PK
  Using 216690 doubles for integral storage.
  We computed 3081 shell quartets total.
  Whereas there are 3081 unique shell quartets.

  ==> DiskJK: Disk-Based J/K Matrices <==

    J tasked:                  Yes
    K tasked:                  Yes
    wK tasked:                  No
    Memory [MiB]:             4577
    Schwarz Cutoff:          1E-12

    OpenMP threads:              1



  ==> Integral Transformation <==

  Number of molecular orbitals:                         30
  Number of correlated molecular orbitals:              30
  Number of frozen occupied orbitals:                    0
  Number of frozen unoccupied orbitals:                  0
  Two-electron integral type:                 Conventional


  Computing Conventional Integrals	Presorting SO-basis two-electron integrals.
	Sorting File: SO Ints (nn|nn) nbuckets = 1
	Constructing frozen core operators
	Starting first half-transformation.
	Sorting half-transformed integrals.
	First half integral transformation complete.
	Starting second half-transformation.
	Two-electron integral transformation complete.

  Integral transformation done. 0.04172960 s
  Reading the two-electron integrals from disk
  Size of two-electron integrals:   0.018105 GB
  Timing for conventional integral transformation:            0.160 s.
  Timing for freezing core and virtual orbitals:              0.000 s.
  Timing for computing conventional integrals:                0.160 s.

  ==> Summary of Active Space Solver Input <==

    Irrep.  Multi.(2ms)      N
    --------------------------
       A1      1  (  0)      1
       B1      3  (  0)      1
    --------------------------
    N: number of roots
    ms: spin z component
    Total number of roots:   2
    --------------------------


--------------------------------------------------------------------------------
               Selected Configuration Interaction Excited States
  written by Jeffrey B. Schriber, Tianyuan Zhang, and Francesco A. Evangelista
--------------------------------------------------------------------------------

  ==> Calculation Information <==

  -----------------------------------------------------------------
    Multiplicity                             1    
    Symmetry                                 0    
    Number of roots                          1    
    Ms                                       0
    Excited Algorithm                        NONE
  -----------------------------------------------------------------
  Using 1 thread(s)
  Computing wavefunction for root 0

        ---------------------------------------------------------------
                      Adaptive Configuration Interaction
          written by Jeffrey B. Schriber and Francesco A. Evangelista
        ---------------------------------------------------------------

  ==> Reference Information <==

  There are 0 frozen orbitals.
  There are 10 active orbitals.

  ==> Calculation Information <==

  -----------------------------------------------------------------
    Multiplicity                             1    
    Symmetry                                 0    
    Number of roots                          1    
    Root used for properties                 0    
    Roots used for averaging                 1    
    Root averaging offset                    0    
    Sigma (Eh)                               1.00e-03
    Gamma (Eh^(-1))                          1.00e+00
    Convergence threshold                    1.00e-09
    Ms                                       0
    Diagonalization algorithm                SPARSE
    Excited Algorithm                        NONE
    Project out spin contaminants            True
    Enforce spin completeness of basis       True
    Enforce complete aimed selection         True
    Multiroot averaging                      Average
  -----------------------------------------------------------------
  Number of active orbitals: 10
  Number of active alpha electrons: 7
  Number of active beta electrons: 7

  ==> GAS Orbital Energies from SCF <==

    GAS        Energy  Index
    ------------------------
     1   -20.67509326      0
     2   -11.35927182      1
     2    -1.52224836      2
     2    -0.79693086      3
     2    -0.54713745      4
     2     0.40906066      5
     2    -0.63485812      6
     2     0.16368498      7
     2    -0.63485812      8
     2     0.16368498      9
    ------------------------

  ==> Number of Electrons in GAS <==

    GAS  MAX  MIN
    -------------
      1    2    0
      2   14    0
    -------------

  ==> Possible Electron Occupations in GAS <==

    Config.  1_A  1_B  2_A  2_B
    ---------------------------
         1     1    1    6    6
         2     1    0    6    7
         3     0    1    7    6
         4     0    0    7    7
    ---------------------------
    n_A/B: # of alpha/beta electrons in GASn

  ==> Building GAS Determinants <==

    Reference determinant: |2222202020>


  ---------------------------------- Cycle 0 -----------------------------------

  ==> Diagonalizing the Hamiltonian in the P space <==

  Initial P space dimension: 1
  Spin-complete dimension of the P space: 1 determinants

  ==> Computing 1 Coupling Lists <==

        α          9.329e-06 seconds
        β          6.738e-06 seconds

  ==> Computing 2 Coupling Lists <==

        αα         1.506e-05 seconds
        ββ         1.459e-05 seconds
        αβ         2.766e-05 seconds

  Davidson-Liu solver algorithm using SigmaVectorSparseList sigma algorithm

  Performing diagonalization of the H matrix
  Found 1 roots with 2S+1 = 1 *
  Time spent diagonalizing H:   0.000281 s

    P-space  CI Energy Root   0        = -112.737611011038 Eh =   0.0000 eV, S^2 = 0.000000


  ==> Finding the Q space <==

  Using SR screening algorithm
  Time spent forming F space:             0.000057
  Time spent merging thread F spaces:             0.000028
  Size of F space: 157
  Time spent building sorting list: 0.000028
  Added 1 missing determinants in aimed selection (find_q_space).
  Dimension of the PQ space:                  49
  Dimension of the PQ space (spin-complete) : 53
  Time spent building the model space: 0.000225

  ==> Diagonalizing the Hamiltonian in the P + Q space <==

  Number of reference roots: 1

  ==> Computing 1 Coupling Lists <==

        α          1.641e-04 seconds
        β          1.770e-04 seconds

  ==> Computing 2 Coupling Lists <==

        αα         4.385e-04 seconds
        ββ         4.214e-04 seconds
        αβ         1.123e-03 seconds

  Davidson-Liu solver algorithm using SigmaVectorSparseList sigma algorithm

  Performing diagonalization of the H matrix
  Found 29 roots with 2S+1 = 1 *
  Found 19 roots with 2S+1 = 3
  Found 5 roots with 2S+1 = 5
  Total time spent diagonalizing H:   0.003456 s

    PQ-space CI Energy Root   0        = -112.790124530582 Eh =   0.0000 eV, S^2 = 0.000000
    PQ-space CI Energy + EPT2 Root   0 = -112.791052248150 Eh =   0.0000 eV


  ==> GAS Contribution Analysis <==

  Root 0:
    Config.  1_A  1_B  2_A  2_B  Contribution
    -----------------------------------------
         1     1    1    6    6 100.00000000%
         2     1    0    6    7   0.00000000%
         3     0    1    7    6   0.00000000%
         4     0    0    7    7   0.00000000%
    -----------------------------------------
               GAS1      GAS2    Contribution
    -----------------------------------------
                  0        14     0.00000000%
                  1        13     0.00000000%
                  2        12   100.00000000%
    -----------------------------------------

  ==> Pruning the Q space <==

  Added 1 missing determinants in aimed selection (prune_q_space).
  Cycle 0 took: 0.004710 s


  ---------------------------------- Cycle 1 -----------------------------------

  ==> Diagonalizing the Hamiltonian in the P space <==

  Initial P space dimension: 30
  Spin-complete dimension of the P space: 42 determinants

  ==> Computing 1 Coupling Lists <==

        α          1.634e-04 seconds
        β          1.483e-04 seconds

  ==> Computing 2 Coupling Lists <==

        αα         3.909e-04 seconds
        ββ         3.738e-04 seconds
        αβ         9.643e-04 seconds

  Davidson-Liu solver algorithm using SigmaVectorSparseList sigma algorithm

  Performing diagonalization of the H matrix
  Found 20 roots with 2S+1 = 1 *
  Found 17 roots with 2S+1 = 3
  Found 5 roots with 2S+1 = 5
  Time spent diagonalizing H:   0.002947 s

    P-space  CI Energy Root   0        = -112.789304789928 Eh =   0.0000 eV, S^2 = 0.000000


  ==> Finding the Q space <==

  Using SR screening algorithm
  Time spent forming F space:             0.000801
  Time spent merging thread F spaces:             0.000209
  Size of F space: 1724
  Time spent building sorting list: 0.000265
  Added 3 missing determinants in aimed selection (find_q_space).
  Dimension of the PQ space:                  108
  Dimension of the PQ space (spin-complete) : 146
  Time spent building the model space: 0.001862

  ==> Diagonalizing the Hamiltonian in the P + Q space <==

  Number of reference roots: 1

  ==> Computing 1 Coupling Lists <==

        α          4.607e-04 seconds
        β          4.589e-04 seconds

  ==> Computing 2 Coupling Lists <==

        αα         1.341e-03 seconds
        ββ         1.242e-03 seconds
        αβ         2.898e-03 seconds

  Davidson-Liu solver algorithm using SigmaVectorSparseList sigma algorithm

  Performing diagonalization of the H matrix
  Found 64 roots with 2S+1 = 1 *
  Found 63 roots with 2S+1 = 3
  Found 18 roots with 2S+1 = 5
  Found 1 roots with 2S+1 = 7
  Total time spent diagonalizing H:   0.013788 s

    PQ-space CI Energy Root   0        = -112.796040156341 Eh =   0.0000 eV, S^2 = 0.000000
    PQ-space CI Energy + EPT2 Root   0 = -112.797023896337 Eh =   0.0000 eV


  ==> GAS Contribution Analysis <==

  Root 0:
    Config.  1_A  1_B  2_A  2_B  Contribution
    -----------------------------------------
         1     1    1    6    6 100.00000000%
         2     1    0    6    7   0.00000000%
         3     0    1    7    6   0.00000000%
         4     0    0    7    7   0.00000000%
    -----------------------------------------
               GAS1      GAS2    Contribution
    -----------------------------------------
                  0        14     0.00000000%
                  1        13     0.00000000%
                  2        12   100.00000000%
    -----------------------------------------

  ==> Pruning the Q space <==

  Added 2 missing determinants in aimed selection (prune_q_space).
  Cycle 1 took: 0.020884 s


  ---------------------------------- Cycle 2 -----------------------------------

  ==> Diagonalizing the Hamiltonian in the P space <==

  Initial P space dimension: 57
  Spin-complete dimension of the P space: 61 determinants

  ==> Computing 1 Coupling Lists <==

        α          3.263e-04 seconds
        β          3.196e-04 seconds

  ==> Computing 2 Coupling Lists <==

        αα         7.834e-04 seconds
        ββ         7.942e-04 seconds
        αβ         2.100e-03 seconds

  Davidson-Liu solver algorithm using SigmaVectorSparseList sigma algorithm

  Performing diagonalization of the H matrix
  Found 32 roots with 2S+1 = 1 *
  Found 24 roots with 2S+1 = 3
  Found 5 roots with 2S+1 = 5
  Time spent diagonalizing H:   0.006584 s

    P-space  CI Energy Root   0        = -112.794513595312 Eh =   0.0000 eV, S^2 = 0.000000


  ==> Finding the Q space <==

  Using SR screening algorithm
  Time spent forming F space:             0.001725
  Time spent merging thread F spaces:             0.000347
  Size of F space: 2098
  Time spent building sorting list: 0.000610
  Dimension of the PQ space:                  102
  Dimension of the PQ space (spin-complete) : 124
  Time spent building the model space: 0.003765

  ==> Diagonalizing the Hamiltonian in the P + Q space <==

  Number of reference roots: 1

  ==> Computing 1 Coupling Lists <==

        α          5.797e-04 seconds
        β          5.903e-04 seconds

  ==> Computing 2 Coupling Lists <==

        αα         1.599e-03 seconds
        ββ         1.477e-03 seconds
        αβ         4.097e-03 seconds

  Davidson-Liu solver algorithm using SigmaVectorSparseList sigma algorithm

  Performing diagonalization of the H matrix
  Found 58 roots with 2S+1 = 1 *
  Found 51 roots with 2S+1 = 3
  Found 14 roots with 2S+1 = 5
  Found 1 roots with 2S+1 = 7
  Total time spent diagonalizing H:   0.015574 s

    PQ-space CI Energy Root   0        = -112.795961273185 Eh =   0.0000 eV, S^2 = 0.000000
    PQ-space CI Energy + EPT2 Root   0 = -112.796944312399 Eh =   0.0000 eV


  ==> GAS Contribution Analysis <==

  Root 0:
    Config.  1_A  1_B  2_A  2_B  Contribution
    -----------------------------------------
         1     1    1    6    6 100.00000000%
         2     1    0    6    7   0.00000000%
         3     0    1    7    6   0.00000000%
         4     0    0    7    7   0.00000000%
    -----------------------------------------
               GAS1      GAS2    Contribution
    -----------------------------------------
                  0        14     0.00000000%
                  1        13     0.00000000%
                  2        12   100.00000000%
    -----------------------------------------

  ==> Pruning the Q space <==

  Added 3 missing determinants in aimed selection (prune_q_space).
  Cycle 2 took: 0.028372 s


  ---------------------------------- Cycle 3 -----------------------------------

  ==> Diagonalizing the Hamiltonian in the P space <==

  Initial P space dimension: 57
  Spin-complete dimension of the P space: 61 determinants

  ==> Computing 1 Coupling Lists <==

        α          3.588e-04 seconds
        β          3.088e-04 seconds

  ==> Computing 2 Coupling Lists <==

        αα         7.724e-04 seconds
        ββ         1.109e-03 seconds
        αβ         2.110e-03 seconds

  Davidson-Liu solver algorithm using SigmaVectorSparseList sigma algorithm

  Performing diagonalization of the H matrix
  Found 32 roots with 2S+1 = 1 *
  Found 24 roots with 2S+1 = 3
  Found 5 roots with 2S+1 = 5
  Time spent diagonalizing H:   0.006838 s

    P-space  CI Energy Root   0        = -112.794513595312 Eh =   0.0000 eV, S^2 = 0.000000


  ==> Finding the Q space <==

  Using SR screening algorithm
  Time spent forming F space:             0.001705
  Time spent merging thread F spaces:             0.000359
  Size of F space: 2098
  Time spent building sorting list: 0.000608
  Dimension of the PQ space:                  102
  Dimension of the PQ space (spin-complete) : 124
  Time spent building the model space: 0.003904

  ==> Diagonalizing the Hamiltonian in the P + Q space <==

  Number of reference roots: 1

  ==> Computing 1 Coupling Lists <==

        α          4.296e-04 seconds
        β          3.713e-04 seconds

  ==> Computing 2 Coupling Lists <==

        αα         9.245e-04 seconds
        ββ         9.300e-04 seconds
        αβ         2.397e-03 seconds

  Davidson-Liu solver algorithm using SigmaVectorSparseList sigma algorithm

  Performing diagonalization of the H matrix
  Found 58 roots with 2S+1 = 1 *
  Found 51 roots with 2S+1 = 3
  Found 14 roots with 2S+1 = 5
  Found 1 roots with 2S+1 = 7
  Total time spent diagonalizing H:   0.013734 s

    PQ-space CI Energy Root   0        = -112.795961273185 Eh =   0.0000 eV, S^2 = 0.000000
    PQ-space CI Energy + EPT2 Root   0 = -112.796944312399 Eh =   0.0000 eV


  ==> GAS Contribution Analysis <==

  Root 0:
    Config.  1_A  1_B  2_A  2_B  Contribution
    -----------------------------------------
         1     1    1    6    6 100.00000000%
         2     1    0    6    7   0.00000000%
         3     0    1    7    6   0.00000000%
         4     0    0    7    7   0.00000000%
    -----------------------------------------
               GAS1      GAS2    Contribution
    -----------------------------------------
                  0        14     0.00000000%
                  1        13     0.00000000%
                  2        12   100.00000000%
    -----------------------------------------
  ***** Calculation Converged *****

  ==> ACI Natural Orbitals <==

        2A1     2.000000      1A1     2.000000      3A1     1.999173  
        4A1     1.998626      5A1     1.971987      1B1     1.967179  
        1B2     1.967179      2B2     0.045872      2B1     0.045872  
        6A1     0.004112  

  ==> Excited state solver summary <==

  Iterations required:                         3
  Dimension of optimized determinant space:    124

  * Selected-CI Energy Root   0        = -112.795961273185 Eh =   0.0000 eV
  * Selected-CI Energy Root   0 + EPT2 = -112.796944312399 Eh =   0.0000 eV

  ==> Wavefunction Information <==

  Most important contributions to root   0:
    0  -0.975319 0.951247056          53 |2222202020>
    1   0.084404 0.007124077          52 |2222202002>
    2   0.084404 0.007124077          51 |2222200220>
    3   0.066693 0.004447994          50 |2222002022>
    4   0.066693 0.004447994          49 |2222002220>
    5   0.064901 0.004212159          48 |222220-++->
    6   0.064901 0.004212159          47 |222220+--+>
    7   0.052267 0.002731833          45 |222220-+-+>
    8   0.052267 0.002731833          46 |222220+-+->
    9  -0.023963 0.000574206          43 |222+-02220>

  Saving information for root: 0

--------------------------------------------------------------------------------
               Selected Configuration Interaction Excited States
  written by Jeffrey B. Schriber, Tianyuan Zhang, and Francesco A. Evangelista
--------------------------------------------------------------------------------

  ==> Calculation Information <==

  -----------------------------------------------------------------
    Multiplicity                             3    
    Symmetry                                 2    
    Number of roots                          1    
    Ms                                       0
    Excited Algorithm                        NONE
  -----------------------------------------------------------------
  Using 1 thread(s)
  Computing wavefunction for root 0

        ---------------------------------------------------------------
                      Adaptive Configuration Interaction
          written by Jeffrey B. Schriber and Francesco A. Evangelista
        ---------------------------------------------------------------

  ==> Reference Information <==

  There are 0 frozen orbitals.
  There are 10 active orbitals.

  ==> Calculation Information <==

  -----------------------------------------------------------------
    Multiplicity                             3    
    Symmetry                                 2    
    Number of roots                          1    
    Root used for properties                 0    
    Roots used for averaging                 1    
    Root averaging offset                    0    
    Sigma (Eh)                               1.00e-03
    Gamma (Eh^(-1))                          1.00e+00
    Convergence threshold                    1.00e-09
    Ms                                       0
    Diagonalization algorithm                SPARSE
    Excited Algorithm                        NONE
    Project out spin contaminants            True
    Enforce spin completeness of basis       True
    Enforce complete aimed selection         True
    Multiroot averaging                      Average
  -----------------------------------------------------------------
  Number of active orbitals: 10
  Number of active alpha electrons: 7
  Number of active beta electrons: 7

  ==> GAS Orbital Energies from SCF <==

    GAS        Energy  Index
    ------------------------
     1   -20.67509326      0
     2   -11.35927182      1
     2    -1.52224836      2
     2    -0.79693086      3
     2    -0.54713745      4
     2     0.40906066      5
     2    -0.63485812      6
     2     0.16368498      7
     2    -0.63485812      8
     2     0.16368498      9
    ------------------------

  ==> Number of Electrons in GAS <==

    GAS  MAX  MIN
    -------------
      1    1    0
      2   14    0
    -------------

  ==> Possible Electron Occupations in GAS <==

    Config.  1_A  1_B  2_A  2_B
    ---------------------------
         1     1    0    6    7
         2     0    1    7    6
         3     0    0    7    7
    ---------------------------
    n_A/B: # of alpha/beta electrons in GASn

  ==> Building GAS Determinants <==

    Reference determinant: |+222202-20>


  ---------------------------------- Cycle 0 -----------------------------------

  ==> Diagonalizing the Hamiltonian in the P space <==

  Initial P space dimension: 1
  Spin-complete dimension of the P space: 2 determinants

  ==> Computing 1 Coupling Lists <==

        α          1.824e-05 seconds
        β          1.725e-05 seconds

  ==> Computing 2 Coupling Lists <==

        αα         3.519e-05 seconds
        ββ         3.589e-05 seconds
        αβ         9.138e-05 seconds

  Davidson-Liu solver algorithm using SigmaVectorSparseList sigma algorithm

  Performing diagonalization of the H matrix
  Found 1 roots with 2S+1 = 1
  Found 1 roots with 2S+1 = 3 *
  Time spent diagonalizing H:   0.000493 s

    P-space  CI Energy Root   0        = -92.424092538923 Eh =   0.0000 eV, S^2 = 2.000000


  ==> Finding the Q space <==

  Using SR screening algorithm
  Time spent forming F space:             0.000092
  Time spent merging thread F spaces:             0.000042
  Size of F space: 212
  Time spent building sorting list: 0.000067
  Dimension of the PQ space:                  80
  Dimension of the PQ space (spin-complete) : 106
  Time spent building the model space: 0.000435

  ==> Diagonalizing the Hamiltonian in the P + Q space <==

  Number of reference roots: 1

  ==> Computing 1 Coupling Lists <==

        α          5.687e-04 seconds
        β          5.509e-04 seconds

  ==> Computing 2 Coupling Lists <==

        αα         1.523e-03 seconds
        ββ         1.446e-03 seconds
        αβ         4.259e-03 seconds

  Davidson-Liu solver algorithm using SigmaVectorSparseList sigma algorithm

  Performing diagonalization of the H matrix
  Found 35 roots with 2S+1 = 1
  Found 51 roots with 2S+1 = 3 *
  Found 18 roots with 2S+1 = 5
  Found 2 roots with 2S+1 = 7
  Total time spent diagonalizing H:   0.014813 s

    PQ-space CI Energy Root   0        = -92.687775591145 Eh =   0.0000 eV, S^2 = 2.000000
    PQ-space CI Energy + EPT2 Root   0 = -92.688740757590 Eh =   0.0000 eV


  ==> GAS Contribution Analysis <==

  Root 0:
    Config.  1_A  1_B  2_A  2_B  Contribution
    -----------------------------------------
         1     1    0    6    7  49.99903357%
         2     0    1    7    6  49.99903357%
         3     0    0    7    7   0.00193287%
    -----------------------------------------
               GAS1      GAS2    Contribution
    -----------------------------------------
                  0        14     0.00193287%
                  1        13    99.99806713%
    -----------------------------------------

  ==> Pruning the Q space <==

  Cycle 0 took: 0.017457 s


  ---------------------------------- Cycle 1 -----------------------------------

  ==> Diagonalizing the Hamiltonian in the P space <==

  Initial P space dimension: 50
  Spin-complete dimension of the P space: 100 determinants

  ==> Computing 1 Coupling Lists <==

        α          5.287e-04 seconds
        β          5.022e-04 seconds

  ==> Computing 2 Coupling Lists <==

        αα         1.296e-03 seconds
        ββ         1.299e-03 seconds
        αβ         3.443e-03 seconds

  Davidson-Liu solver algorithm using SigmaVectorSparseList sigma algorithm

  Performing diagonalization of the H matrix
  Found 32 roots with 2S+1 = 1
  Found 48 roots with 2S+1 = 3 *
  Found 18 roots with 2S+1 = 5
  Found 2 roots with 2S+1 = 7
  Time spent diagonalizing H:   0.012139 s

    P-space  CI Energy Root   0        = -92.687258780321 Eh =   0.0000 eV, S^2 = 2.000000


  ==> Finding the Q space <==

  Using SR screening algorithm
  Time spent forming F space:             0.001268
  Time spent merging thread F spaces:             0.000172
  Size of F space: 1322
  Time spent building sorting list: 0.000205
  Dimension of the PQ space:                  134
  Dimension of the PQ space (spin-complete) : 168
  Time spent building the model space: 0.002124

  ==> Diagonalizing the Hamiltonian in the P + Q space <==

  Number of reference roots: 1

  ==> Computing 1 Coupling Lists <==

        α          4.818e-04 seconds
        β          5.020e-04 seconds

  ==> Computing 2 Coupling Lists <==

        αα         1.214e-03 seconds
        ββ         1.271e-03 seconds
        αβ         5.024e-03 seconds

  Davidson-Liu solver algorithm using SigmaVectorSparseList sigma algorithm

  Performing diagonalization of the H matrix
  Found 54 roots with 2S+1 = 1
  Found 81 roots with 2S+1 = 3 *
  Found 30 roots with 2S+1 = 5
  Found 3 roots with 2S+1 = 7
  Total time spent diagonalizing H:   0.021870 s

    PQ-space CI Energy Root   0        = -92.691091983582 Eh =   0.0000 eV, S^2 = 2.000000
    PQ-space CI Energy + EPT2 Root   0 = -92.692079808626 Eh =   0.0000 eV


  ==> GAS Contribution Analysis <==

  Root 0:
    Config.  1_A  1_B  2_A  2_B  Contribution
    -----------------------------------------
         1     1    0    6    7  49.99906557%
         2     0    1    7    6  49.99906557%
         3     0    0    7    7   0.00186887%
    -----------------------------------------
               GAS1      GAS2    Contribution
    -----------------------------------------
                  0        14     0.00186887%
                  1        13    99.99813113%
    -----------------------------------------

  ==> Pruning the Q space <==

  Cycle 1 took: 0.038830 s


  ---------------------------------- Cycle 2 -----------------------------------

  ==> Diagonalizing the Hamiltonian in the P space <==

  Initial P space dimension: 68
  Spin-complete dimension of the P space: 108 determinants

  ==> Computing 1 Coupling Lists <==

        α          3.362e-04 seconds
        β          3.307e-04 seconds

  ==> Computing 2 Coupling Lists <==

        αα         8.878e-04 seconds
        ββ         9.219e-04 seconds
        αβ         2.353e-03 seconds

  Davidson-Liu solver algorithm using SigmaVectorSparseList sigma algorithm

  Performing diagonalization of the H matrix
  Found 35 roots with 2S+1 = 1
  Found 52 roots with 2S+1 = 3 *
  Found 19 roots with 2S+1 = 5
  Found 2 roots with 2S+1 = 7
  Time spent diagonalizing H:   0.008923 s

    P-space  CI Energy Root   0        = -92.688867667132 Eh =   0.0000 eV, S^2 = 2.000000


  ==> Finding the Q space <==

  Using SR screening algorithm
  Time spent forming F space:             0.001324
  Time spent merging thread F spaces:             0.000153
  Size of F space: 1382
  Time spent building sorting list: 0.000204
  Added 1 missing determinants in aimed selection (find_q_space).
  Dimension of the PQ space:                  140
  Dimension of the PQ space (spin-complete) : 170
  Time spent building the model space: 0.002153

  ==> Diagonalizing the Hamiltonian in the P + Q space <==

  Number of reference roots: 1

  ==> Computing 1 Coupling Lists <==

        α          4.747e-04 seconds
        β          4.947e-04 seconds

  ==> Computing 2 Coupling Lists <==

        αα         1.308e-03 seconds
        ββ         1.146e-03 seconds
        αβ         3.062e-03 seconds

  Davidson-Liu solver algorithm using SigmaVectorSparseList sigma algorithm

  Performing diagonalization of the H matrix
  Found 55 roots with 2S+1 = 1
  Found 82 roots with 2S+1 = 3 *
  Found 30 roots with 2S+1 = 5
  Found 3 roots with 2S+1 = 7
  Total time spent diagonalizing H:   0.016460 s

    PQ-space CI Energy Root   0        = -92.691156796377 Eh =   0.0000 eV, S^2 = 2.000000
    PQ-space CI Energy + EPT2 Root   0 = -92.692138281500 Eh =   0.0000 eV


  ==> GAS Contribution Analysis <==

  Root 0:
    Config.  1_A  1_B  2_A  2_B  Contribution
    -----------------------------------------
         1     1    0    6    7  49.99906546%
         2     0    1    7    6  49.99906546%
         3     0    0    7    7   0.00186907%
    -----------------------------------------
               GAS1      GAS2    Contribution
    -----------------------------------------
                  0        14     0.00186907%
                  1        13    99.99813093%
    -----------------------------------------

  ==> Pruning the Q space <==

  Added 1 missing determinants in aimed selection (prune_q_space).
  Cycle 2 took: 0.029108 s


  ---------------------------------- Cycle 3 -----------------------------------

  ==> Diagonalizing the Hamiltonian in the P space <==

  Initial P space dimension: 70
  Spin-complete dimension of the P space: 114 determinants

  ==> Computing 1 Coupling Lists <==

        α          3.246e-04 seconds
        β          3.296e-04 seconds

  ==> Computing 2 Coupling Lists <==

        αα         1.506e-03 seconds
        ββ         1.458e-03 seconds
        αβ         3.786e-03 seconds

  Davidson-Liu solver algorithm using SigmaVectorSparseList sigma algorithm

  Performing diagonalization of the H matrix
  Found 37 roots with 2S+1 = 1
  Found 55 roots with 2S+1 = 3 *
  Found 20 roots with 2S+1 = 5
  Found 2 roots with 2S+1 = 7
  Time spent diagonalizing H:   0.014680 s

    P-space  CI Energy Root   0        = -92.689195120702 Eh =   0.0000 eV, S^2 = 2.000000


  ==> Finding the Q space <==

  Using SR screening algorithm
  Time spent forming F space:             0.001512
  Time spent merging thread F spaces:             0.000184
  Size of F space: 1456
  Time spent building sorting list: 0.000216
  Dimension of the PQ space:                  142
  Dimension of the PQ space (spin-complete) : 172
  Time spent building the model space: 0.002502

  ==> Diagonalizing the Hamiltonian in the P + Q space <==

  Number of reference roots: 1

  ==> Computing 1 Coupling Lists <==

        α          5.034e-04 seconds
        β          4.609e-04 seconds

  ==> Computing 2 Coupling Lists <==

        αα         1.208e-03 seconds
        ββ         1.206e-03 seconds
        αβ         3.111e-03 seconds

  Davidson-Liu solver algorithm using SigmaVectorSparseList sigma algorithm

  Performing diagonalization of the H matrix
  Found 56 roots with 2S+1 = 1
  Found 83 roots with 2S+1 = 3 *
  Found 30 roots with 2S+1 = 5
  Found 3 roots with 2S+1 = 7
  Total time spent diagonalizing H:   0.015845 s

    PQ-space CI Energy Root   0        = -92.691245384184 Eh =   0.0000 eV, S^2 = 2.000000
    PQ-space CI Energy + EPT2 Root   0 = -92.692238645861 Eh =   0.0000 eV


  ==> GAS Contribution Analysis <==

  Root 0:
    Config.  1_A  1_B  2_A  2_B  Contribution
    -----------------------------------------
         1     1    0    6    7  49.99906566%
         2     0    1    7    6  49.99906566%
         3     0    0    7    7   0.00186867%
    -----------------------------------------
               GAS1      GAS2    Contribution
    -----------------------------------------
                  0        14     0.00186867%
                  1        13    99.99813133%
    -----------------------------------------

  ==> Pruning the Q space <==

  Cycle 3 took: 0.034782 s


  ---------------------------------- Cycle 4 -----------------------------------

  ==> Diagonalizing the Hamiltonian in the P space <==

  Initial P space dimension: 70
  Spin-complete dimension of the P space: 114 determinants

  ==> Computing 1 Coupling Lists <==

        α          3.406e-04 seconds
        β          3.458e-04 seconds

  ==> Computing 2 Coupling Lists <==

        αα         8.521e-04 seconds
        ββ         8.325e-04 seconds
        αβ         2.214e-03 seconds

  Davidson-Liu solver algorithm using SigmaVectorSparseList sigma algorithm

  Performing diagonalization of the H matrix
  Found 37 roots with 2S+1 = 1
  Found 55 roots with 2S+1 = 3 *
  Found 20 roots with 2S+1 = 5
  Found 2 roots with 2S+1 = 7
  Time spent diagonalizing H:   0.009005 s

    P-space  CI Energy Root   0        = -92.689195120702 Eh =   0.0000 eV, S^2 = 2.000000


  ==> Finding the Q space <==

  Using SR screening algorithm
  Time spent forming F space:             0.001495
  Time spent merging thread F spaces:             0.000158
  Size of F space: 1456
  Time spent building sorting list: 0.000214
  Dimension of the PQ space:                  142
  Dimension of the PQ space (spin-complete) : 172
  Time spent building the model space: 0.002354

  ==> Diagonalizing the Hamiltonian in the P + Q space <==

  Number of reference roots: 1

  ==> Computing 1 Coupling Lists <==

        α          4.658e-04 seconds
        β          4.669e-04 seconds

  ==> Computing 2 Coupling Lists <==

        αα         1.233e-03 seconds
        ββ         1.239e-03 seconds
        αβ         3.432e-03 seconds

  Davidson-Liu solver algorithm using SigmaVectorSparseList sigma algorithm

  Performing diagonalization of the H matrix
  Found 56 roots with 2S+1 = 1
  Found 83 roots with 2S+1 = 3 *
  Found 30 roots with 2S+1 = 5
  Found 3 roots with 2S+1 = 7
  Total time spent diagonalizing H:   0.015907 s

    PQ-space CI Energy Root   0        = -92.691245384184 Eh =   0.0000 eV, S^2 = 2.000000
    PQ-space CI Energy + EPT2 Root   0 = -92.692238645861 Eh =   0.0000 eV


  ==> GAS Contribution Analysis <==

  Root 0:
    Config.  1_A  1_B  2_A  2_B  Contribution
    -----------------------------------------
         1     1    0    6    7  49.99906566%
         2     0    1    7    6  49.99906566%
         3     0    0    7    7   0.00186867%
    -----------------------------------------
               GAS1      GAS2    Contribution
    -----------------------------------------
                  0        14     0.00186867%
                  1        13    99.99813133%
    -----------------------------------------
  ***** Calculation Converged *****

  ==> ACI Natural Orbitals <==

        1A1     2.000000      2A1     1.999789      3A1     1.999580  
        1B1     1.999184      1B2     1.997983      4A1     1.963023  
        2B1     1.000816      5A1     0.999996      2B2     0.036632  
        6A1     0.002997  

  ==> Excited state solver summary <==

  Iterations required:                         4
  Dimension of optimized determinant space:    172

  * Selected-CI Energy Root   0        = -92.691245384184 Eh =   0.0000 eV
  * Selected-CI Energy Root   0 + EPT2 = -92.692238645861 Eh =   0.0000 eV

  ==> Wavefunction Information <==

  Most important contributions to root   0:
    0   0.623729 0.389038344          69 |+222202-20>
    1  -0.623729 0.389038344          68 |-222202+20>
    2  -0.176472 0.031142374          66 |+222202--+>
    3   0.176472 0.031142374          67 |-222202++->
    4  -0.174884 0.030584553          65 |+22220-220>
    5   0.174884 0.030584553          64 |-22220+220>
    6  -0.164180 0.026954930          62 |+222202-+->
    7   0.164180 0.026954930          63 |-222202+-+>
    8  -0.078367 0.006141452          60 |-222002+22>
    9   0.078367 0.006141452          61 |+222002-22>

  Saving information for root: 0

  ==> Energy Summary <==

    Multi.(2ms)  Irrep.  No.               Energy      <S^2>
    --------------------------------------------------------
       1  (  0)    A1     0     -112.795961273185   0.000000
    --------------------------------------------------------
       3  (  0)    B1     0      -92.691245384184   2.000000
    --------------------------------------------------------

  Time to prepare integrals:        0.264 seconds
  Time to run job          :        0.238 seconds
  Total                    :        0.502 seconds
    ACI energy............................................................................PASSED
    ACI+PT2 energy........................................................................PASSED
    AVERAGE ACI ENERGY....................................................................PASSED

    Psi4 stopped on: Tuesday, 16 March 2021 06:11PM
    Psi4 wall time for execution: 0:00:01.39

*** Psi4 exiting successfully. Buy a developer a beer!
