    -----------------------------------------------------------------------
          Psi4: An Open-Source Ab Initio Electronic Structure Package
                              Psi4 1.0rc292 Driver

                          Git: Rev {gtfock_casscf} b39ccea dirty

    J. M. Turney, A. C. Simmonett, R. M. Parrish, E. G. Hohenstein,
    F. A. Evangelista, J. T. Fermann, B. J. Mintz, L. A. Burns, J. J. Wilke,
    M. L. Abrams, N. J. Russ, M. L. Leininger, C. L. Janssen, E. T. Seidl,
    W. D. Allen, H. F. Schaefer, R. A. King, E. F. Valeev, C. D. Sherrill,
    and T. D. Crawford, WIREs Comput. Mol. Sci. 2, 556-565 (2012)
    (doi: 10.1002/wcms.93)

                         Additional Contributions by
    A. E. DePrince, U. Bozkaya, A. Yu. Sokolov, D. G. A. Smith, R. Di Remigio,
    R. M. Richard, J. F. Gonthier, H. R. McAlexander, M. Saitow, and
    B. P. Pritchard
    -----------------------------------------------------------------------


    Psi4 started on: Thu Aug 11 14:31:53 2016

    Process ID:  32184
    PSI4DATADIR: /home/kannon/src/psi4src/psi4/share
    Memory level set to 256.000 MB

  ==> Input File <==

--------------------------------------------------------------------------
#! CASSCF/6-31G** energy point
import forte 
molecule {
O
H 1 1.00
H 1 1.00 2 103.1
}

set {
    basis           6-31G**
    reference       rhf
    restricted_docc [1, 0, 0, 0]
    active          [3, 0, 1, 2] 
    scf_type        gtfock
    mcscf_type      conv_parallel
}

casscf_energy = energy('casscf')

compare_values(-76.073865006902, casscf_energy, 6, 'CASSCF Energy')  #TEST
set forte {
    restricted_docc [1, 0, 0, 0]
    active          [3, 0, 1, 2] 
    job_type        casscf
}
forte_energy = energy('forte')
compare_values(casscf_energy, forte_energy, 6, "FORTE CASSCF Energy")
--------------------------------------------------------------------------
/home/kannon/src/forte/forte.so loaded.
    There are an even number of electrons - assuming singlet.
    Specify the multiplicity in the molecule input block.


*** tstart() called on master
*** at Thu Aug 11 14:31:53 2016


         ---------------------------------------------------------
                                   SCF
            by Justin Turney, Rob Parrish, and Andy Simmonett
                              RHF Reference
                        1 Threads,    256 MiB Core
         ---------------------------------------------------------

  ==> Geometry <==

    Molecular point group: c2v
    Full point group: C2v

    Geometry (in Angstrom), charge = 0, multiplicity = 1:

       Center              X                  Y                   Z               Mass       
    ------------   -----------------  -----------------  -----------------  -----------------
           O          0.000000000000     0.000000000000    -0.069592187390    15.994914619560
           H          0.000000000000    -0.783151105291     0.552239257844     1.007825032070
           H          0.000000000000     0.783151105291     0.552239257844     1.007825032070

  Running in c2v symmetry.

  Rotational constants: A =     24.35462  B =     13.63610  C =      8.74166 [cm^-1]
  Rotational constants: A = 730133.20983  B = 408800.03934  C = 262068.46197 [MHz]
  Nuclear repulsion =    8.804686618639055

  Charge       = 0
  Multiplicity = 1
  Electrons    = 10
  Nalpha       = 5
  Nbeta        = 5

  ==> Algorithm <==

  SCF Algorithm Type is GTFOCK.
  DIIS enabled.
  MOM disabled.
  Fractional occupation disabled.
  Guess Type is SAD.
  Energy threshold   = 1.00e-08
  Density threshold  = 1.00e-08
  Integral threshold = 0.00e+00

  ==> Primary Basis <==

  Basis Set: 6-31G**
    Number of shells: 12
    Number of basis function: 25
    Number of Cartesian functions: 25
    Spherical Harmonics?: false
    Max angular momentum: 2

  ==> Pre-Iterations <==

   -------------------------------------------------------
    Irrep   Nso     Nmo     Nalpha   Nbeta   Ndocc  Nsocc
   -------------------------------------------------------
     A1        12      12       0       0       0       0
     A2         2       2       0       0       0       0
     B1         4       4       0       0       0       0
     B2         7       7       0       0       0       0
   -------------------------------------------------------
    Total      25      25       5       5       5       0
   -------------------------------------------------------

  ==> Integral Setup <==


 Using GTFock for ParallelJK build with 2 MPI processes and 1 omp threads
 PFock_create is complete.  Took 0.011418 s.   Minimum eigenvalue in the overlap matrix is 2.3361254517E-02.
  Using Symmetric Orthogonalization.
  SCF Guess: Superposition of Atomic Densities via on-the-fly atomic UHF.

  ==> Iterations <==

                        Total Energy        Delta E     RMS |[F,P]|


 Get J and K 0.00006800 s.   @RHF iter   0:   -75.84512390181364   -7.58451e+01   1.07281e-01 

 Get J and K 0.00005200 s.   @RHF iter   1:   -75.97932807296060   -1.34204e-01   2.02957e-02 

 Get J and K 0.00005400 s.   @RHF iter   2:   -76.00813545537268   -2.88074e-02   1.09976e-02 DIIS

 Get J and K 0.00005300 s.   @RHF iter   3:   -76.01691294487263   -8.77749e-03   1.45198e-03 DIIS

 Get J and K 0.00005400 s.   @RHF iter   4:   -76.01725312103308   -3.40176e-04   4.19473e-04 DIIS

 Get J and K 0.00005400 s.   @RHF iter   5:   -76.01729445401908   -4.13330e-05   8.08389e-05 DIIS

 Get J and K 0.00005700 s.   @RHF iter   6:   -76.01729647836297   -2.02434e-06   1.56398e-05 DIIS

 Get J and K 0.00004200 s.   @RHF iter   7:   -76.01729655285641   -7.44934e-08   2.87601e-06 DIIS

 Get J and K 0.00005500 s.   @RHF iter   8:   -76.01729655525558   -2.39918e-09   3.44938e-07 DIIS

 Get J and K 0.00005000 s.   @RHF iter   9:   -76.01729655528310   -2.75122e-11   3.48915e-08 DIIS

 Get J and K 0.00004200 s.   @RHF iter  10:   -76.01729655528317   -7.10543e-14   3.71820e-09 DIIS

  ==> Post-Iterations <==

    Orbital Energies (a.u.)
    -----------------------

    Doubly Occupied:                                                      

       1A1   -20.569000     2A1    -1.320609     1B2    -0.678724  
       3A1    -0.563930     1B1    -0.495004  

    Virtual:                                                              

       4A1     0.202466     2B2     0.292719     3B2     0.981164  
       5A1     1.056318     6A1     1.129179     2B1     1.168639  
       4B2     1.294985     7A1     1.413596     1A2     1.802875  
       8A1     1.806916     3B1     1.918871     9A1     2.513249  
       5B2     2.537822     6B2     2.713577     2A2     2.921065  
       4B1     2.947486    10A1     3.291755    11A1     3.620730  
       7B2     3.874917    12A1     4.077740  

    Final Occupation by Irrep:
             A1    A2    B1    B2 
    DOCC [     3,    0,    1,    1 ]

  Energy converged.

  @RHF Final Energy:   -76.01729655528317

   => Energetics <=

    Nuclear Repulsion Energy =              8.8046866186390549
    One-Electron Energy =                -122.3894315318945161
    Two-Electron Energy =                  37.5674483579722960
    DFT Exchange-Correlation Energy =       0.0000000000000000
    Empirical Dispersion Energy =           0.0000000000000000
    PCM Polarization Energy =               0.0000000000000000
    EFP Energy =                            0.0000000000000000
    Total Energy =                        -76.0172965552831670

    Alert: EFP and PCM quantities not currently incorporated into SCF psivars.
  Saving occupied orbitals to File 180.

*** tstop() called on master at Thu Aug 11 14:31:54 2016
Module time:
	user time   =       0.57 seconds =       0.01 minutes
	system time =       0.02 seconds =       0.00 minutes
	total time  =          1 seconds =       0.02 minutes
Total time:
	user time   =       0.57 seconds =       0.01 minutes
	system time =       0.02 seconds =       0.00 minutes
	total time  =          1 seconds =       0.02 minutes


Properties will be evaluated at   0.000000,   0.000000,   0.000000 Bohr

Properties computed using the SCF density matrix

  Nuclear Dipole Moment: (a.u.)
     X:     0.0000      Y:    -0.0000      Z:     1.0351

  Electronic Dipole Moment: (a.u.)
     X:     0.0000      Y:     0.0000      Z:    -0.1532

  Dipole Moment: (a.u.)
     X:     0.0000      Y:    -0.0000      Z:     0.8819     Total:     0.8819

  Dipole Moment: (Debye)
     X:     0.0000      Y:    -0.0000      Z:     2.2414     Total:     2.2414


         ---------------------------------------------------------
                                 D E T C I  

                             C. David Sherrill
                             Matt L. Leininger
                               18 June 1999
         ---------------------------------------------------------


DETCI PARAMETERS: 
   EX LEVEL      =        8      H0 BLOCKSIZE =     1000
   VAL EX LEVEL  =        0      H0 GUESS SIZE=     1000
   H0COUPLINGSIZE=        0      H0 COUPLING  =       no
   MAXITER       =       12      NUM PRINT    =       20
   NUM ROOTS     =        1      ICORE        =        1
   PRINT         =        1      FCI          =      yes
   R CONV        = 1.00e-07      MIXED        =      yes
   E CONV        = 1.00e-06      MIXED4       =      yes
   R4S           =       no      REPL OTF     =       no
   DIAG METHOD   =      SEM
   PRECONDITIONER= DAVIDSON      UPDATE       = DAVIDSON
   S             =   0.0000      Ms0          =      yes
   MAX NUM VECS  =       13
   RESTART       =       no
   GUESS VECTOR  =   D FILE      OPENTYPE     =     NONE
   REF SYM       =     auto
   COLLAPSE SIZE =        1      HD AVG       = EVANGELISTI
   LSE           =       no      LSE ITER     =        0
   HD OTF        =      yes      NO DFILE     =       no
   MPN           =       no      MPN SCHMIDT  =       no
   ZAPTN         =       no      MPN WIGNER   =       no
   PERT Z        =   1.0000      FOLLOW ROOT  =        0
   NUM THREADS   =        1
   FILTER GUESS  =       no      SF RESTRICT  =       no
   OPDM          =      yes      TRANS DENSITY=       no

   FILES         =  50 51 52 53

   EX ALLOW      =  1  1  1  1  1  1  1  1 
   STATE AVERAGE =  1(1.00) 

ORBITALS:
   NMO          =       25
   FROZEN CORE  =        0      RESTR CORE   =        1
   FROZEN VIRT  =        0      RESTR VIRT   =       18
   DROPPED CORE =        1      DROPPED VIRT =       18
   EXPLICIT CORE=        0      ORBS IN CI   =        6
   NUM ALP      =        5      NUM BET      =        5
   NUM ALP EXPL =        4      NUM BET EXPL =        4
   IOPEN        =       no

   DOCC            =   3   0   1   1 
   SOCC            =   0   0   0   0 

   FROZEN DOCC     =   0   0   0   0 
   RESTRICTED DOCC =   1   0   0   0 
   ACTIVE          =   3   0   1   2 
   RESTRICTED UOCC =   8   2   3   5 
   FROZEN UOCC     =   0   0   0   0 
         ---------------------------------------------------------


   ==> Setting up CI strings <==

   There are 15 alpha and 15 beta strings
   The CI space requires 65 (6.50E+01) determinants and 4 blocks


*** tstart() called on master
*** at Thu Aug 11 14:31:54 2016


   ==> Transforming CI integrals aodirect <==

 CSOtoAO takes 0.000018 s.
 Form Active Density takes 0.000143 s.
 Using GTFock for ParallelJK build with 2 MPI processes and 1 omp threads
 PFock_create is complete.  Took 0.005819 s. 
 Get J and K 0.00042100 s.
 MCSCF Integral Trans Fock build: 0.24643700 s
 Fill (pu | xy) integrals takes 0.000352 s.
 Fill the (zu|xy) integrals takes 0.000031 s
 Get J and K 0.00005400 s.
 Restricted Docc operator takes 0.02028600 s
 pitzer_to_ci_order_twoel takes 0.000007 s
 tf and gmat take 0.000009 s
 ParallelMCSCF integral transform takes 0.27145700 s.
   ==> Starting Parallel-MCSCF iterations <==

                           Total Energy        Delta E      RMS Grad   NCI  Time(s)


 Solving CI takes 0.00383100 s
 Computing PDM took   0.0006 s
 Get J and K 0.00008300 s.
 Gradient took 0.02647200 s
 MCSCF: Update takes   0.0266 s.
 SOMCSCF Solve takes   0.0000 s
 Scale_x takes   0.0000 s
 Adding entry in DIIS takes   0.0000 s
 Extrapolatating with DIIS takes   0.0000 s
  Ck: Form_X takes 0.000002 s
  exp(U) = 1 + U =  0.00000 s.
 U^2  0.00001 s.
 U^3 + (1 + U + U^2) 0.000013 s.
 U Schmidt took 0.000024 s.
 CU took 0.000006 s.
 Ck timings take   0.0001 s.
   ==> Transforming CI integrals aodirect <==

 CSOtoAO takes 0.000016 s.
 Form Active Density takes 0.000134 s.
 Get J and K 0.00039800 s.
 MCSCF Integral Trans Fock build: 0.14154200 s
 Fill (pu | xy) integrals takes 0.000333 s.
 Fill the (zu|xy) integrals takes 0.000030 s
 Get J and K 0.00003800 s.
 Restricted Docc operator takes 0.02022000 s
 pitzer_to_ci_order_twoel takes 0.000006 s
 tf and gmat take 0.000009 s
 ParallelMCSCF integral transform takes 0.16243300 s.   @Parallel-MCSCF Iter   1:  -76.02993400952521   -1.2637e-02   9.0407e-03   1   APPROX    1.936420e-01

 Solving CI takes 0.00782600 s
 Computing PDM took   0.0006 s
 Get J and K 0.00008200 s.
 Gradient took 0.02640000 s
 MCSCF: Update takes   0.0265 s.
 SOMCSCF Solve takes   0.0000 s
 Scale_x takes   0.0000 s
 Adding entry in DIIS takes   0.0000 s
 Extrapolatating with DIIS takes   0.0000 s
  Ck: Form_X takes 0.000002 s
  exp(U) = 1 + U =  0.00000 s.
 U^2  0.00000 s.
 U^3 + (1 + U + U^2) 0.000013 s.
 U Schmidt took 0.000017 s.
 CU took 0.000005 s.
 Ck timings take   0.0001 s.
   ==> Transforming CI integrals aodirect <==

 CSOtoAO takes 0.000015 s.
 Form Active Density takes 0.000133 s.
 Get J and K 0.00038300 s.
 MCSCF Integral Trans Fock build: 0.14154500 s
 Fill (pu | xy) integrals takes 0.000343 s.
 Fill the (zu|xy) integrals takes 0.000031 s
 Get J and K 0.00003900 s.
 Restricted Docc operator takes 0.02019800 s
 pitzer_to_ci_order_twoel takes 0.000007 s
 tf and gmat take 0.000009 s
 ParallelMCSCF integral transform takes 0.16241200 s.   @Parallel-MCSCF Iter   2:  -76.06895453744814   -3.9021e-02   1.2293e-02   9   APPROX    1.974890e-01

 Solving CI takes 0.00628000 s
 Computing PDM took   0.0006 s
 Get J and K 0.00008400 s.
 Gradient took 0.02643000 s
 MCSCF: Update takes   0.0265 s.
 SOMCSCF Solve takes   0.0000 s
 Scale_x takes   0.0000 s
 Adding entry in DIIS takes   0.0000 s
 Extrapolatating with DIIS takes   0.0000 s
  Ck: Form_X takes 0.000001 s
  exp(U) = 1 + U =  0.00000 s.
 U^2  0.00001 s.
 U^3 + (1 + U + U^2) 0.000012 s.
 U Schmidt took 0.000016 s.
 CU took 0.000005 s.
 Ck timings take   0.0001 s.
   ==> Transforming CI integrals aodirect <==

 CSOtoAO takes 0.000016 s.
 Form Active Density takes 0.000135 s.
 Get J and K 0.00038100 s.
 MCSCF Integral Trans Fock build: 0.14147400 s
 Fill (pu | xy) integrals takes 0.000349 s.
 Fill the (zu|xy) integrals takes 0.000030 s
 Get J and K 0.00003800 s.
 Restricted Docc operator takes 0.02017600 s
 pitzer_to_ci_order_twoel takes 0.000006 s
 tf and gmat take 0.000009 s
 ParallelMCSCF integral transform takes 0.16232200 s.   @Parallel-MCSCF Iter   3:  -76.07303819968591   -4.0837e-03   4.0475e-03   7   APPROX    1.958890e-01

 Solving CI takes 0.00631800 s
 Computing PDM took   0.0006 s
 Get J and K 0.00008400 s.
 Gradient took 0.02638900 s
 MCSCF: Update takes   0.0265 s.
 SOMCSCF Solve takes   0.0000 s
 Scale_x takes   0.0000 s
 Adding entry in DIIS takes   0.0000 s
 Extrapolatating with DIIS takes   0.0001 s
  Ck: Form_X takes 0.000002 s
  exp(U) = 1 + U =  0.00000 s.
 U^2  0.00000 s.
 U^3 + (1 + U + U^2) 0.000012 s.
 U Schmidt took 0.000017 s.
 CU took 0.000005 s.
 Ck timings take   0.0001 s.
   ==> Transforming CI integrals aodirect <==

 CSOtoAO takes 0.000016 s.
 Form Active Density takes 0.000134 s.
 Get J and K 0.00040700 s.
 MCSCF Integral Trans Fock build: 0.14265500 s
 Fill (pu | xy) integrals takes 0.000407 s.
 Fill the (zu|xy) integrals takes 0.000034 s
 Get J and K 0.00003800 s.
 Restricted Docc operator takes 0.02035900 s
 pitzer_to_ci_order_twoel takes 0.000007 s
 tf and gmat take 0.000008 s
 ParallelMCSCF integral transform takes 0.16376500 s.   @Parallel-MCSCF Iter   4:  -76.07365002735612   -6.1183e-04   1.5715e-03   7   APPROX, DIIS    1.974410e-01

 Solving CI takes 0.00644400 s
 Computing PDM took   0.0006 s
 Get J and K 0.00008300 s.
 Gradient took 0.02640900 s
 MCSCF: Update takes   0.0265 s.
 SOMCSCF Solve takes   0.0000 s
 Scale_x takes   0.0000 s
 Adding entry in DIIS takes   0.0000 s
 Extrapolatating with DIIS takes   0.0001 s
  Ck: Form_X takes 0.000002 s
  exp(U) = 1 + U =  0.00000 s.
 U^2  0.00001 s.
 U^3 + (1 + U + U^2) 0.000013 s.
 U Schmidt took 0.000019 s.
 CU took 0.000006 s.
 Ck timings take   0.0001 s.
   ==> Transforming CI integrals aodirect <==

 CSOtoAO takes 0.000039 s.
 Form Active Density takes 0.000144 s.
 Get J and K 0.00038600 s.
 MCSCF Integral Trans Fock build: 0.14156000 s
 Fill (pu | xy) integrals takes 0.000339 s.
 Fill the (zu|xy) integrals takes 0.000030 s
 Get J and K 0.00003800 s.
 Restricted Docc operator takes 0.02020000 s
 pitzer_to_ci_order_twoel takes 0.000007 s
 tf and gmat take 0.000008 s
 ParallelMCSCF integral transform takes 0.16247700 s.   @Parallel-MCSCF Iter   5:  -76.07377666913547   -1.2664e-04   8.6198e-04   7   APPROX, DIIS    1.964080e-01

 Solving CI takes 0.00632800 s
 Computing PDM took   0.0006 s
 Get J and K 0.00008400 s.
 Gradient took 0.02647000 s
 MCSCF: Update takes   0.0265 s.
 SOMCSCF Solve takes   0.0000 s
 Scale_x takes   0.0000 s
 Adding entry in DIIS takes   0.0000 s
 Extrapolatating with DIIS takes   0.0001 s
  Ck: Form_X takes 0.000001 s
  exp(U) = 1 + U =  0.00000 s.
 U^2  0.00000 s.
 U^3 + (1 + U + U^2) 0.000013 s.
 U Schmidt took 0.000016 s.
 CU took 0.000005 s.
 Ck timings take   0.0001 s.
   ==> Transforming CI integrals aodirect <==

 CSOtoAO takes 0.000016 s.
 Form Active Density takes 0.000130 s.
 Get J and K 0.00038000 s.
 MCSCF Integral Trans Fock build: 0.14148100 s
 Fill (pu | xy) integrals takes 0.000335 s.
 Fill the (zu|xy) integrals takes 0.000030 s
 Get J and K 0.00005300 s.
 Restricted Docc operator takes 0.02024300 s
 pitzer_to_ci_order_twoel takes 0.000007 s
 tf and gmat take 0.000008 s
 ParallelMCSCF integral transform takes 0.16239500 s.   @Parallel-MCSCF Iter   6:  -76.07382713310146   -5.0464e-05   6.1418e-04   7   APPROX, DIIS    1.961500e-01

 Solving CI takes 0.00567900 s
 Computing PDM took   0.0006 s
 Get J and K 0.00008600 s.
 Gradient took 0.02644500 s
 MCSCF: Update takes   0.0265 s.
 SOMCSCF Solve takes   0.0000 s
 Scale_x takes   0.0000 s
 Adding entry in DIIS takes   0.0000 s
 Extrapolatating with DIIS takes   0.0001 s
  Ck: Form_X takes 0.000001 s
  exp(U) = 1 + U =  0.00000 s.
 U^2  0.00001 s.
 U^3 + (1 + U + U^2) 0.000012 s.
 U Schmidt took 0.000016 s.
 CU took 0.000006 s.
 Ck timings take   0.0001 s.
   ==> Transforming CI integrals aodirect <==

 CSOtoAO takes 0.000016 s.
 Form Active Density takes 0.000134 s.
 Get J and K 0.00037500 s.
 MCSCF Integral Trans Fock build: 0.14141700 s
 Fill (pu | xy) integrals takes 0.000327 s.
 Fill the (zu|xy) integrals takes 0.000031 s
 Get J and K 0.00003800 s.
 Restricted Docc operator takes 0.02021000 s
 pitzer_to_ci_order_twoel takes 0.000007 s
 tf and gmat take 0.000009 s
 ParallelMCSCF integral transform takes 0.16227900 s.   @Parallel-MCSCF Iter   7:  -76.07383432102992   -7.1879e-06   4.0875e-04   6   APPROX, DIIS    1.953770e-01

 Solving CI takes 0.00568200 s
 Computing PDM took   0.0006 s
 Get J and K 0.00008300 s.
 Gradient took 0.02641100 s
 MCSCF: Update takes   0.0265 s.
 SOMCSCF Solve takes   0.0000 s
 Scale_x takes   0.0000 s
 Adding entry in DIIS takes   0.0000 s
 Extrapolatating with DIIS takes   0.0001 s
  Ck: Form_X takes 0.000002 s
  exp(U) = 1 + U =  0.00000 s.
 U^2  0.00001 s.
 U^3 + (1 + U + U^2) 0.000013 s.
 U Schmidt took 0.000016 s.
 CU took 0.000005 s.
 Ck timings take   0.0001 s.
   ==> Transforming CI integrals aodirect <==

 CSOtoAO takes 0.000016 s.
 Form Active Density takes 0.000135 s.
 Get J and K 0.00038200 s.
 MCSCF Integral Trans Fock build: 0.14162900 s
 Fill (pu | xy) integrals takes 0.000345 s.
 Fill the (zu|xy) integrals takes 0.000030 s
 Get J and K 0.00003800 s.
 Restricted Docc operator takes 0.02020400 s
 pitzer_to_ci_order_twoel takes 0.000007 s
 tf and gmat take 0.000008 s
 ParallelMCSCF integral transform takes 0.16250600 s.   @Parallel-MCSCF Iter   8:  -76.07384701966451   -1.2699e-05   2.6732e-04   6   APPROX, DIIS    1.955980e-01

 Solving CI takes 0.00577000 s
 Computing PDM took   0.0006 s
 Get J and K 0.00008400 s.
 Gradient took 0.02642000 s
 MCSCF: Update takes   0.0265 s.
 SOMCSCF Solve takes   0.0000 s
 Scale_x takes   0.0000 s
 Adding entry in DIIS takes   0.0000 s
 Extrapolatating with DIIS takes   0.0001 s
  Ck: Form_X takes 0.000002 s
  exp(U) = 1 + U =  0.00000 s.
 U^2  0.00000 s.
 U^3 + (1 + U + U^2) 0.000012 s.
 U Schmidt took 0.000017 s.
 CU took 0.000005 s.
 Ck timings take   0.0001 s.
   ==> Transforming CI integrals aodirect <==

 CSOtoAO takes 0.000015 s.
 Form Active Density takes 0.000140 s.
 Get J and K 0.00036500 s.
 MCSCF Integral Trans Fock build: 0.14151800 s
 Fill (pu | xy) integrals takes 0.000328 s.
 Fill the (zu|xy) integrals takes 0.000030 s
 Get J and K 0.00003800 s.
 Restricted Docc operator takes 0.02020500 s
 pitzer_to_ci_order_twoel takes 0.000007 s
 tf and gmat take 0.000009 s
 ParallelMCSCF integral transform takes 0.16238600 s.   @Parallel-MCSCF Iter   9:  -76.07386199516087   -1.4975e-05   1.5245e-04   6   APPROX, DIIS    1.955680e-01

 Solving CI takes 0.00566900 s
 Computing PDM took   0.0006 s
 Get J and K 0.00008400 s.
 Gradient took 0.02646200 s
 MCSCF: Update takes   0.0265 s.
 SOMCSCF Solve takes   0.0000 s
 Scale_x takes   0.0000 s
 Adding entry in DIIS takes   0.0000 s
 Extrapolatating with DIIS takes   0.0001 s
  Ck: Form_X takes 0.000002 s
  exp(U) = 1 + U =  0.00000 s.
 U^2  0.00000 s.
 U^3 + (1 + U + U^2) 0.000012 s.
 U Schmidt took 0.000016 s.
 CU took 0.000005 s.
 Ck timings take   0.0001 s.
   ==> Transforming CI integrals aodirect <==

 CSOtoAO takes 0.000015 s.
 Form Active Density takes 0.000133 s.
 Get J and K 0.00038800 s.
 MCSCF Integral Trans Fock build: 0.14152900 s
 Fill (pu | xy) integrals takes 0.000331 s.
 Fill the (zu|xy) integrals takes 0.000031 s
 Get J and K 0.00003700 s.
 Restricted Docc operator takes 0.02020800 s
 pitzer_to_ci_order_twoel takes 0.000007 s
 tf and gmat take 0.000008 s
 ParallelMCSCF integral transform takes 0.16238100 s.   @Parallel-MCSCF Iter  10:  -76.07386492373827   -2.9286e-06   8.4825e-05   6   APPROX, DIIS    1.954970e-01

 Solving CI takes 0.00504800 s
 Computing PDM took   0.0006 s
 Get J and K 0.00008400 s.
 Gradient took 0.02645100 s
 MCSCF: Update takes   0.0265 s.
       MCSCF has converged!

   @MCSCF Final Energy:   -76.073864985473051


   => Energetics <=

   SCF energy =              -76.017296555283167
   Total CI energy =         -76.073864985473051


   CI Root  1 energy =       -76.073864985473051


The 20 most important determinants

*   1    0.986833  (    3,    3)  2A1X  3A1X  1B1X  1B2X  
*   2   -0.080301  (    6,    6)  2A1X  3A1X  1B1X  2B2X  
*   3   -0.052780  (    4,    4)  2A1X  4A1X  1B1X  1B2X  
*   4    0.051072  (    4,    6)  2A1X  3A1B  4A1A  1B1X  1B2A  2B2B  
*   5    0.051072  (    6,    4)  2A1X  3A1A  4A1B  1B1X  1B2B  2B2A  
*   6   -0.032182  (    4,    5)  2A1A  3A1B  4A1X  1B1X  1B2X  
*   7   -0.032182  (    5,    4)  2A1B  3A1A  4A1X  1B1X  1B2X  
*   8    0.031035  (    5,    6)  2A1B  3A1X  4A1A  1B1X  1B2A  2B2B  
*   9    0.031035  (    6,    5)  2A1A  3A1X  4A1B  1B1X  1B2B  2B2A  
*  10   -0.030833  (    9,    9)  2A1X  3A1X  4A1X  1B1X  
*  11   -0.030041  (    5,    5)  3A1X  4A1X  1B1X  1B2X  
*  12   -0.028952  (   10,   10)  2A1X  1B1X  1B2X  2B2X  
*  13   -0.026532  (    9,   10)  2A1X  3A1A  4A1A  1B1X  1B2B  2B2B  
*  14   -0.026532  (   10,    9)  2A1X  3A1B  4A1B  1B1X  1B2A  2B2A  
*  15    0.024540  (    3,    7)  2A1X  3A1A  4A1B  1B1X  1B2A  2B2B  
*  16    0.024540  (    7,    3)  2A1X  3A1B  4A1A  1B1X  1B2B  2B2A  
*  17   -0.019856  (    9,   11)  2A1A  3A1X  4A1A  1B1X  1B2B  2B2B  
*  18   -0.019856  (   11,    9)  2A1B  3A1X  4A1B  1B1X  1B2A  2B2A  
*  19   -0.017609  (   11,   11)  3A1X  1B1X  1B2X  2B2X  
*  20   -0.015798  (   13,   13)  2A1X  3A1X  4A1X  1B2X  



		 ================================== 		

		     Natural Orbital Analysis 		

        1  B1   1.999341       1  A1   1.998801       2  A1   1.976076   
        1  B2   1.973938       2  B2   0.026629       3  A1   0.025215   


		 ================================== 		

*** tstop() called on master at Thu Aug 11 14:31:56 2016
Module time:
	user time   =       2.23 seconds =       0.04 minutes
	system time =       0.02 seconds =       0.00 minutes
	total time  =          2 seconds =       0.03 minutes
Total time:
	user time   =       2.81 seconds =       0.05 minutes
	system time =       0.04 seconds =       0.00 minutes
	total time  =          3 seconds =       0.05 minutes


Properties will be evaluated at   0.000000,   0.000000,   0.000000 Bohr

Properties computed using the CASSCF density matrix

  Nuclear Dipole Moment: (a.u.)
     X:     0.0000      Y:    -0.0000      Z:     1.0351

  Electronic Dipole Moment: (a.u.)
     X:     0.0000      Y:     0.0000      Z:    -0.2209

  Dipole Moment: (a.u.)
     X:     0.0000      Y:    -0.0000      Z:     0.8142     Total:     0.8142

  Dipole Moment: (Debye)
     X:     0.0000      Y:    -0.0000      Z:     2.0694     Total:     2.0694

	CASSCF Energy.....................................................PASSED

*** tstart() called on master
*** at Thu Aug 11 14:31:56 2016


         ---------------------------------------------------------
                                   SCF
            by Justin Turney, Rob Parrish, and Andy Simmonett
                              RHF Reference
                        1 Threads,    256 MiB Core
         ---------------------------------------------------------

  ==> Geometry <==

    Molecular point group: c2v
    Full point group: C2v

    Geometry (in Angstrom), charge = 0, multiplicity = 1:

       Center              X                  Y                   Z               Mass       
    ------------   -----------------  -----------------  -----------------  -----------------
           O          0.000000000000     0.000000000000    -0.069592187390    15.994914619560
           H          0.000000000000    -0.783151105291     0.552239257844     1.007825032070
           H          0.000000000000     0.783151105291     0.552239257844     1.007825032070

  Running in c2v symmetry.

  Rotational constants: A =     24.35462  B =     13.63610  C =      8.74166 [cm^-1]
  Rotational constants: A = 730133.20983  B = 408800.03934  C = 262068.46197 [MHz]
  Nuclear repulsion =    8.804686618639055

  Charge       = 0
  Multiplicity = 1
  Electrons    = 10
  Nalpha       = 5
  Nbeta        = 5

  ==> Algorithm <==

  SCF Algorithm Type is GTFOCK.
  DIIS enabled.
  MOM disabled.
  Fractional occupation disabled.
  Guess Type is SAD.
  Energy threshold   = 1.00e-08
  Density threshold  = 1.00e-08
  Integral threshold = 0.00e+00

  ==> Primary Basis <==

  Basis Set: 6-31G**
    Number of shells: 12
    Number of basis function: 25
    Number of Cartesian functions: 25
    Spherical Harmonics?: false
    Max angular momentum: 2

  ==> Pre-Iterations <==

   -------------------------------------------------------
    Irrep   Nso     Nmo     Nalpha   Nbeta   Ndocc  Nsocc
   -------------------------------------------------------
     A1        12      12       0       0       0       0
     A2         2       2       0       0       0       0
     B1         4       4       0       0       0       0
     B2         7       7       0       0       0       0
   -------------------------------------------------------
    Total      25      25       5       5       5       0
   -------------------------------------------------------

  ==> Integral Setup <==


 Using GTFock for ParallelJK build with 2 MPI processes and 1 omp threads
 PFock_create is complete.  Took 0.001697 s.   Minimum eigenvalue in the overlap matrix is 2.3361254517E-02.
  Using Symmetric Orthogonalization.
  SCF Guess: Superposition of Atomic Densities via on-the-fly atomic UHF.

  ==> Iterations <==

                        Total Energy        Delta E     RMS |[F,P]|


 Get J and K 0.00005300 s.   @RHF iter   0:   -75.84512390181364   -7.58451e+01   1.07281e-01 

 Get J and K 0.00003700 s.   @RHF iter   1:   -75.97932807296054   -1.34204e-01   2.02957e-02 

 Get J and K 0.00005600 s.   @RHF iter   2:   -76.00813545537252   -2.88074e-02   1.09976e-02 DIIS

 Get J and K 0.00003800 s.   @RHF iter   3:   -76.01691294487247   -8.77749e-03   1.45198e-03 DIIS

 Get J and K 0.00003700 s.   @RHF iter   4:   -76.01725312103305   -3.40176e-04   4.19473e-04 DIIS

 Get J and K 0.00003700 s.   @RHF iter   5:   -76.01729445401904   -4.13330e-05   8.08389e-05 DIIS

 Get J and K 0.00003900 s.   @RHF iter   6:   -76.01729647836287   -2.02434e-06   1.56398e-05 DIIS

 Get J and K 0.00003600 s.   @RHF iter   7:   -76.01729655285632   -7.44935e-08   2.87601e-06 DIIS

 Get J and K 0.00003500 s.   @RHF iter   8:   -76.01729655525554   -2.39922e-09   3.44938e-07 DIIS

 Get J and K 0.00003900 s.   @RHF iter   9:   -76.01729655528294   -2.73985e-11   3.48915e-08 DIIS

 Get J and K 0.00006000 s.   @RHF iter  10:   -76.01729655528307   -1.27898e-13   3.71820e-09 DIIS

  ==> Post-Iterations <==

    Orbital Energies (a.u.)
    -----------------------

    Doubly Occupied:                                                      

       1A1   -20.569000     2A1    -1.320609     1B2    -0.678724  
       3A1    -0.563930     1B1    -0.495004  

    Virtual:                                                              

       4A1     0.202466     2B2     0.292719     3B2     0.981164  
       5A1     1.056318     6A1     1.129179     2B1     1.168639  
       4B2     1.294985     7A1     1.413596     1A2     1.802875  
       8A1     1.806916     3B1     1.918871     9A1     2.513249  
       5B2     2.537822     6B2     2.713577     2A2     2.921065  
       4B1     2.947486    10A1     3.291755    11A1     3.620730  
       7B2     3.874917    12A1     4.077740  

    Final Occupation by Irrep:
             A1    A2    B1    B2 
    DOCC [     3,    0,    1,    1 ]

  Energy converged.

  @RHF Final Energy:   -76.01729655528307

   => Energetics <=

    Nuclear Repulsion Energy =              8.8046866186390549
    One-Electron Energy =                -122.3894315318944592
    Two-Electron Energy =                  37.5674483579723244
    DFT Exchange-Correlation Energy =       0.0000000000000000
    Empirical Dispersion Energy =           0.0000000000000000
    PCM Polarization Energy =               0.0000000000000000
    EFP Energy =                            0.0000000000000000
    Total Energy =                        -76.0172965552830817

    Alert: EFP and PCM quantities not currently incorporated into SCF psivars.
  Saving occupied orbitals to File 180.

*** tstop() called on master at Thu Aug 11 14:31:57 2016
Module time:
	user time   =       0.55 seconds =       0.01 minutes
	system time =       0.00 seconds =       0.00 minutes
	total time  =          1 seconds =       0.02 minutes
Total time:
	user time   =       3.43 seconds =       0.06 minutes
	system time =       0.05 seconds =       0.00 minutes
	total time  =          4 seconds =       0.07 minutes


Properties will be evaluated at   0.000000,   0.000000,   0.000000 Bohr

Properties computed using the SCF density matrix

  Nuclear Dipole Moment: (a.u.)
     X:     0.0000      Y:    -0.0000      Z:     1.0351

  Electronic Dipole Moment: (a.u.)
     X:     0.0000      Y:     0.0000      Z:    -0.1532

  Dipole Moment: (a.u.)
     X:     0.0000      Y:    -0.0000      Z:     0.8819     Total:     0.8819

  Dipole Moment: (Debye)
     X:     0.0000      Y:    -0.0000      Z:     2.2414     Total:     2.2414


Reading options from the FORTE block
Calling plugin /home/kannon/src/forte/forte.so.




  ==> MO Space Information <==

  Read options for space RESTRICTED_DOCC
  Read options for space ACTIVE
  -------------------------------------------------
                       A1    A2    B1    B2   Sum
  -------------------------------------------------
    FROZEN_DOCC         0     0     0     0     0
    RESTRICTED_DOCC     1     0     0     0     1
    ACTIVE              3     0     1     2     6
    RESTRICTED_UOCC     8     2     3     5    18
    FROZEN_UOCC         0     0     0     0     0
    Total              12     2     4     7    25
  -------------------------------------------------

  ==> Integral Transformation <==

  Number of molecular orbitals:               25
  Number of correlated molecular orbitals:    25
  Number of frozen occupied orbitals:          0
  Number of frozen unoccupied orbitals:        0

    Molecular point group: c2v
    Full point group: C2v

    Geometry (in Angstrom), charge = 0, multiplicity = 1:

       Center              X                  Y                   Z               Mass       
    ------------   -----------------  -----------------  -----------------  -----------------
           O          0.000000000000     0.000000000000    -0.069592187390    15.994914619560
           H          0.000000000000    -0.783151105291     0.552239257844     1.007825032070
           H          0.000000000000     0.783151105291     0.552239257844     1.007825032070

  -AO BASIS SET INFORMATION:
    Name                   = 6-31G**
    Total number of shells = 12
    Number of primitives   = 25
    Number of AO           = 25
    Number of SO           = 25
    Maximum AM             = 2
    Spherical Harmonics    = FALSE

  -Contraction Scheme:
    Atom   Type   All Primitives // Shells:
   ------ ------ --------------------------
       1     O     10s 4p 1d // 3s 2p 1d 
       2     H     4s 1p // 2s 1p 
       3     H     4s 1p // 2s 1p 

  ==> AO Basis Functions <==

    [ 6-31G** ]
    cartesian
    ****
    O   1
    S   6 1.00
                      5484.67170000           0.00183110
                       825.23495000           0.01395010
                       188.04696000           0.06844510
                        52.96450000           0.23271430
                        16.89757000           0.47019300
                         5.79963530           0.35852090
    S   3 1.00
                        15.53961600          -0.11077750
                         3.59993360          -0.14802630
                         1.01376180           1.13076700
    P   3 1.00
                        15.53961600           0.07087430
                         3.59993360           0.33975280
                         1.01376180           0.72715860
    S   1 1.00
                         0.27000580           1.00000000
    P   1 1.00
                         0.27000580           1.00000000
    D   1 1.00
                         0.80000000           1.00000000
    ****
    H   2
    S   3 1.00
                        18.73113700           0.03349460
                         2.82539370           0.23472695
                         0.64012170           0.81375733
    S   1 1.00
                         0.16127780           1.00000000
    P   1 1.00
                         1.10000000           1.00000000
    ****


  Overall Conventional Integrals timings

	Presorting SO-basis two-electron integrals.
	Sorting File: SO Ints (nn|nn) nbuckets = 1
	Transforming the one-electron integrals and constructing Fock matrices
	Starting first half-transformation.
	Sorting half-transformed integrals.
	First half integral transformation complete.
	Starting second half-transformation.
	Two-electron integral transformation complete.

  Integral transformation done. 0.01839500 s
  Reading the two-electron integrals from disk
  Size of two-electron integrals:   0.008731 GB
  Conventional integrals take 0.08934700 s

                -----------------------------------------------
                  Complete Active Space Self Consistent Field
                                 Kevin Hannon
                -----------------------------------------------

     JK takes 0.00318 s to initialize while using GTFOCK

  ==> CASSCF Iteration <==

 iter    ||g||           Delta_E            E_CASSCF       CONV_TYPE
 E_casscf: 0.00000000
 Using GTFock for ParallelJK build with 2 MPI processes and 1 omp threads
 PFock_create is complete.  Took 0.005320 s. 
 Get J and K 0.00035500 s.

 Transform Integrals takes 0.19275400 s.

  Performing a CAS with FCI

  ==> FCI Summary <==

    Number of electrons: 10
    Charge: 0
    Multiplicity: 1
    Davidson subspace max dim: 8
    Davidson subspace min dim: 2
    M_s: 0

  ==> String Lists <==

  Number of alpha electrons     = 4
  Number of beta electrons      = 4
  Number of alpha strings       = 15
  Number of beta strings        = 15
  Number of alpha strings (N-3) = 6
  Number of beta strings (N-3)  = 6
  Timing for strings        =      0.000 s
  Timing for NN strings     =      0.000 s
  Timing for VO strings     =      0.001 s
  Timing for OO strings     =      0.000 s
  Timing for Knowles-Handy  =      0.001 s
  Timing for VVOO strings   =      0.001 s
  Timing for VOVO strings   =      0.000 s
  Timing for 1-hole strings =      0.000 s
  Timing for 2-hole strings =      0.001 s
  Timing for 3-hole strings =      0.001 s
  Total timing              =      0.002 s

  ==> FCI Solver <==

    Number of determinants                          65
    Symmetry                                         0
    Multiplicity                                     1
    Number of roots                                  1
    Target root                                      0
    Trial vectors per root                          10

 Get J and K 0.00003400 s.
  Allocating memory for the Hamiltonian algorithm. Size: 2 x 6 x 6.   Memory: 0.000001 GB
  Initial guess space is incomplete.
  Adding 5 determinant(s).

  ==> FCI Initial Guess <==

  ---------------------------------------------
    Root            Energy     <S^2>   Spin
  ---------------------------------------------
      0      -76.027917101904  0.000  singlet
      1      -75.643107003471  2.000  triplet
      2      -75.598355309161  0.000  singlet
      3      -75.462464425892  2.000  triplet
      4      -75.330708839047  0.000  singlet
      5      -75.041455708504  0.000  singlet
      6      -75.016724205718  6.000  quintet
      7      -74.943193877263  2.000  triplet
      8      -74.937972304777  0.000  singlet
      9      -74.867658077648  2.000  triplet
     10      -74.844156382509  0.000  singlet
     11      -74.819718309395  2.000  triplet
     12      -74.795619602913  0.000  singlet
     13      -74.775056790104  0.000  singlet
     14      -74.767227395479  0.000  singlet
     15      -74.721048807488  2.000  triplet
     16      -74.663825019477  0.000  singlet
     17      -74.599610095497  0.000  singlet
     18      -74.476734520134  0.000  singlet
     19      -74.340361005456  6.000  quintet
     20      -74.171945832626  2.000  triplet
     21      -74.076450977009  2.000  triplet
     22      -74.074183916022  0.000  singlet
     23      -73.934364135070  2.000  triplet
     24      -73.732772066425  0.000  singlet
  ---------------------------------------------
  Timing for initial guess  =      0.019 s

  Projecting out root 1
  Projecting out root 3
  Projecting out root 6
  Projecting out root 7
  Projecting out root 9
  Projecting out root 11
  Projecting out root 15
  Projecting out root 19
  Projecting out root 20
  Projecting out root 21
  Projecting out root 23
  ==> Diagonalizing Hamiltonian <==

  ----------------------------------------
    Iter.      Avg. Energy       Delta_E
  ----------------------------------------
      1      -76.027917101904  -7.603e+01
      2      -76.029879592719  -1.962e-03
      3      -76.029930492220  -5.090e-05
      4      -76.029933748682  -3.256e-06
      5      -76.029933999298  -2.506e-07
  ----------------------------------------
  The Davidson-Liu algorithm converged in 6 iterations.

  ==> Root No. 0 <==

    220 2 20      0.99554909

    Total Energy:       -76.029933999298336

  ==> Computing RDMs for Root No. 0 <==

    Timing for 1-RDM: 0.000 s
    Timing for 2-RDM: 0.001 s

  ==> NATURAL ORBITALS <==

        1B1     1.999763      1A1     1.999631      2A1     1.992837  
        1B2     1.990955      2B2     0.009052      3A1     0.007761  



 CAS took 0.057879 seconds.
 Get J and K 0.00007300 s.

 FormFockIntermediates took 0.02044800 s.

 FormOrbitalGradient took 0.00053900 s.

 FormDiagHessian took 0.00007500 s.

 Update function takes 0.02109200 s
    0   0.005493308801   76.029933999298   -76.029933999298    0.272504 s      
 Get J and K 0.00035600 s.

 Transform Integrals takes 0.11319700 s.

  Performing a CAS with FCI

  ==> FCI Summary <==

    Number of electrons: 10
    Charge: 0
    Multiplicity: 1
    Davidson subspace max dim: 8
    Davidson subspace min dim: 2
    M_s: 0

  ==> String Lists <==

  Number of alpha electrons     = 4
  Number of beta electrons      = 4
  Number of alpha strings       = 15
  Number of beta strings        = 15
  Number of alpha strings (N-3) = 6
  Number of beta strings (N-3)  = 6
  Timing for strings        =      0.000 s
  Timing for NN strings     =      0.000 s
  Timing for VO strings     =      0.001 s
  Timing for OO strings     =      0.000 s
  Timing for Knowles-Handy  =      0.000 s
  Timing for VVOO strings   =      0.001 s
  Timing for VOVO strings   =      0.000 s
  Timing for 1-hole strings =      0.000 s
  Timing for 2-hole strings =      0.001 s
  Timing for 3-hole strings =      0.001 s
  Total timing              =      0.002 s

  ==> FCI Solver <==

    Number of determinants                          65
    Symmetry                                         0
    Multiplicity                                     1
    Number of roots                                  1
    Target root                                      0
    Trial vectors per root                          10

 Get J and K 0.00004700 s.
  Allocating memory for the Hamiltonian algorithm. Size: 2 x 6 x 6.   Memory: 0.000001 GB
  Initial guess space is incomplete.
  Adding 1 determinant(s).

  ==> FCI Initial Guess <==

  ---------------------------------------------
    Root            Energy     <S^2>   Spin
  ---------------------------------------------
      0      -76.052805200716  0.000  singlet
      1      -75.512506514168  2.000  triplet
      2      -75.394966647833  0.000  singlet
      3      -75.381989070290  2.000  triplet
      4      -75.056020705336  0.000  singlet
      5      -74.971946143819  6.000  quintet
      6      -74.962439433264  0.000  singlet
      7      -74.844998635742  2.000  triplet
      8      -74.832527811816  0.000  singlet
      9      -74.763329834869  0.000  singlet
     10      -74.699978788302  2.000  triplet
     11      -74.663317372673  2.000  triplet
     12      -74.642304003930  0.000  singlet
     13      -74.619251212000  0.000  singlet
     14      -74.531819819272  0.000  singlet
     15      -74.528303970487  2.000  triplet
     16      -74.484344963174  0.000  singlet
     17      -74.370630772595  0.000  singlet
     18      -74.218342698928  2.000  triplet
     19      -74.168204101304  0.000  singlet
     20      -74.020845398680  0.000  singlet
  ---------------------------------------------
  Timing for initial guess  =      0.012 s

  Projecting out root 1
  Projecting out root 3
  Projecting out root 5
  Projecting out root 7
  Projecting out root 10
  Projecting out root 11
  Projecting out root 15
  Projecting out root 18
  ==> Diagonalizing Hamiltonian <==

  ----------------------------------------
    Iter.      Avg. Energy       Delta_E
  ----------------------------------------
      1      -76.052805200716  -7.605e+01
      2      -76.068511897946  -1.571e-02
      3      -76.068943166660  -4.313e-04
      4      -76.068953037167  -9.871e-06
      5      -76.068953249452  -2.123e-07
  ----------------------------------------
  The Davidson-Liu algorithm converged in 6 iterations.

  ==> Root No. 0 <==

    220 2 20     -0.98623753

    Total Energy:       -76.068953249451909

  ==> Computing RDMs for Root No. 0 <==

    Timing for 1-RDM: 0.000 s
    Timing for 2-RDM: 0.002 s

  ==> NATURAL ORBITALS <==

        1B1     1.999279      1A1     1.998938      2A1     1.974696  
        1B2     1.972652      2B2     0.027471      3A1     0.026964  



 CAS took 0.050080 seconds.
 Get J and K 0.00007600 s.

 FormFockIntermediates took 0.02106300 s.

 FormOrbitalGradient took 0.00044300 s.

 FormDiagHessian took 0.00006600 s.

 Update function takes 0.02159600 s
    1   0.007472755997   0.039019250154   -76.068953249452    0.185553 s      
 Get J and K 0.00031600 s.

 Transform Integrals takes 0.11301500 s.

  Performing a CAS with FCI

  ==> FCI Summary <==

    Number of electrons: 10
    Charge: 0
    Multiplicity: 1
    Davidson subspace max dim: 8
    Davidson subspace min dim: 2
    M_s: 0

  ==> String Lists <==

  Number of alpha electrons     = 4
  Number of beta electrons      = 4
  Number of alpha strings       = 15
  Number of beta strings        = 15
  Number of alpha strings (N-3) = 6
  Number of beta strings (N-3)  = 6
  Timing for strings        =      0.000 s
  Timing for NN strings     =      0.000 s
  Timing for VO strings     =      0.001 s
  Timing for OO strings     =      0.000 s
  Timing for Knowles-Handy  =      0.000 s
  Timing for VVOO strings   =      0.001 s
  Timing for VOVO strings   =      0.000 s
  Timing for 1-hole strings =      0.000 s
  Timing for 2-hole strings =      0.001 s
  Timing for 3-hole strings =      0.001 s
  Total timing              =      0.002 s

  ==> FCI Solver <==

    Number of determinants                          65
    Symmetry                                         0
    Multiplicity                                     1
    Number of roots                                  1
    Target root                                      0
    Trial vectors per root                          10

 Get J and K 0.00003400 s.
  Allocating memory for the Hamiltonian algorithm. Size: 2 x 6 x 6.   Memory: 0.000001 GB
  Initial guess space is incomplete.
  Adding 1 determinant(s).

  ==> FCI Initial Guess <==

  ---------------------------------------------
    Root            Energy     <S^2>   Spin
  ---------------------------------------------
      0      -76.055756754724  0.000  singlet
      1      -75.435069558865  2.000  triplet
      2      -75.306592937590  2.000  triplet
      3      -75.303717762457  0.000  singlet
      4      -74.944341441485  0.000  singlet
      5      -74.835228073869  6.000  quintet
      6      -74.814885730402  0.000  singlet
      7      -74.748276530962  2.000  triplet
      8      -74.685225731092  0.000  singlet
      9      -74.614902429991  0.000  singlet
     10      -74.563560804863  2.000  triplet
     11      -74.505182775120  0.000  singlet
     12      -74.496764941830  2.000  triplet
     13      -74.475662475166  0.000  singlet
     14      -74.385030000427  0.000  singlet
     15      -74.360046222081  2.000  triplet
     16      -74.311525469105  0.000  singlet
     17      -74.197160971296  0.000  singlet
     18      -74.024301368939  2.000  triplet
     19      -73.961459708026  0.000  singlet
     20      -73.815464299329  0.000  singlet
  ---------------------------------------------
  Timing for initial guess  =      0.012 s

  Projecting out root 1
  Projecting out root 2
  Projecting out root 5
  Projecting out root 7
  Projecting out root 10
  Projecting out root 12
  Projecting out root 15
  Projecting out root 18
  ==> Diagonalizing Hamiltonian <==

  ----------------------------------------
    Iter.      Avg. Energy       Delta_E
  ----------------------------------------
      1      -76.055756754724  -7.606e+01
      2      -76.072630011923  -1.687e-02
      3      -76.073029666734  -3.997e-04
      4      -76.073037163283  -7.497e-06
      5      -76.073037354291  -1.910e-07
  ----------------------------------------
  The Davidson-Liu algorithm converged in 6 iterations.

  ==> Root No. 0 <==

    220 2 20     -0.98633792

    Total Energy:       -76.073037354290960

  ==> Computing RDMs for Root No. 0 <==

    Timing for 1-RDM: 0.000 s
    Timing for 2-RDM: 0.001 s

  ==> NATURAL ORBITALS <==

        1B1     1.999314      1A1     1.998857      2A1     1.975072  
        1B2     1.973008      2B2     0.027321      3A1     0.026429  



 CAS took 0.050089 seconds.
 Get J and K 0.00007600 s.

 FormFockIntermediates took 0.02090300 s.

 FormOrbitalGradient took 0.00045200 s.

 FormDiagHessian took 0.00006800 s.

 Update function takes 0.02144900 s
    2   0.002457493896   0.004084104839   -76.073037354291    0.185227 s      
 Get J and K 0.00034600 s.

 Transform Integrals takes 0.11449300 s.

  Performing a CAS with FCI

  ==> FCI Summary <==

    Number of electrons: 10
    Charge: 0
    Multiplicity: 1
    Davidson subspace max dim: 8
    Davidson subspace min dim: 2
    M_s: 0

  ==> String Lists <==

  Number of alpha electrons     = 4
  Number of beta electrons      = 4
  Number of alpha strings       = 15
  Number of beta strings        = 15
  Number of alpha strings (N-3) = 6
  Number of beta strings (N-3)  = 6
  Timing for strings        =      0.000 s
  Timing for NN strings     =      0.000 s
  Timing for VO strings     =      0.001 s
  Timing for OO strings     =      0.000 s
  Timing for Knowles-Handy  =      0.000 s
  Timing for VVOO strings   =      0.001 s
  Timing for VOVO strings   =      0.000 s
  Timing for 1-hole strings =      0.000 s
  Timing for 2-hole strings =      0.001 s
  Timing for 3-hole strings =      0.001 s
  Total timing              =      0.002 s

  ==> FCI Solver <==

    Number of determinants                          65
    Symmetry                                         0
    Multiplicity                                     1
    Number of roots                                  1
    Target root                                      0
    Trial vectors per root                          10

 Get J and K 0.00003400 s.
  Allocating memory for the Hamiltonian algorithm. Size: 2 x 6 x 6.   Memory: 0.000001 GB
  Initial guess space is incomplete.
  Adding 1 determinant(s).

  ==> FCI Initial Guess <==

  ---------------------------------------------
    Root            Energy     <S^2>   Spin
  ---------------------------------------------
      0      -76.056247452646  0.000  singlet
      1      -75.402654279999  2.000  triplet
      2      -75.277260265798  2.000  triplet
      3      -75.266730550717  0.000  singlet
      4      -74.904695454115  0.000  singlet
      5      -74.777340668162  6.000  quintet
      6      -74.754205501796  0.000  singlet
      7      -74.710063869571  2.000  triplet
      8      -74.623626343989  0.000  singlet
      9      -74.555365110135  0.000  singlet
     10      -74.502715778545  2.000  triplet
     11      -74.453945720923  0.000  singlet
     12      -74.428143048914  2.000  triplet
     13      -74.412484665843  0.000  singlet
     14      -74.318958990616  0.000  singlet
     15      -74.291375039443  2.000  triplet
     16      -74.238302332305  0.000  singlet
     17      -74.125911178948  0.000  singlet
     18      -73.937518358204  2.000  triplet
     19      -73.882377755984  0.000  singlet
     20      -73.724105934991  0.000  singlet
  ---------------------------------------------
  Timing for initial guess  =      0.011 s

  Projecting out root 1
  Projecting out root 2
  Projecting out root 5
  Projecting out root 7
  Projecting out root 10
  Projecting out root 12
  Projecting out root 15
  Projecting out root 18
  ==> Diagonalizing Hamiltonian <==

  ----------------------------------------
    Iter.      Avg. Energy       Delta_E
  ----------------------------------------
      1      -76.056247452646  -7.606e+01
      2      -76.073260088112  -1.701e-02
      3      -76.073643086596  -3.830e-04
      4      -76.073649891472  -6.805e-06
      5      -76.073650091242  -1.998e-07
  ----------------------------------------
  The Davidson-Liu algorithm converged in 6 iterations.

  ==> Root No. 0 <==

    220 2 20      0.98658846

    Total Energy:       -76.073650091241603

  ==> Computing RDMs for Root No. 0 <==

    Timing for 1-RDM: 0.000 s
    Timing for 2-RDM: 0.001 s

  ==> NATURAL ORBITALS <==

        1B1     1.999333      1A1     1.998828      2A1     1.975585  
        1B2     1.973503      2B2     0.026931      3A1     0.025821  



 CAS took 0.048088 seconds.
 Get J and K 0.00007900 s.

 FormFockIntermediates took 0.02094300 s.

 FormOrbitalGradient took 0.00048900 s.

 FormDiagHessian took 0.00006800 s.

 Update function takes 0.02152400 s
    3   0.000955401494   0.000612736951   -76.073650091242    0.184810 s  DIIS
 Get J and K 0.00035400 s.

 Transform Integrals takes 0.11308400 s.

  Performing a CAS with FCI

  ==> FCI Summary <==

    Number of electrons: 10
    Charge: 0
    Multiplicity: 1
    Davidson subspace max dim: 8
    Davidson subspace min dim: 2
    M_s: 0

  ==> String Lists <==

  Number of alpha electrons     = 4
  Number of beta electrons      = 4
  Number of alpha strings       = 15
  Number of beta strings        = 15
  Number of alpha strings (N-3) = 6
  Number of beta strings (N-3)  = 6
  Timing for strings        =      0.000 s
  Timing for NN strings     =      0.000 s
  Timing for VO strings     =      0.001 s
  Timing for OO strings     =      0.000 s
  Timing for Knowles-Handy  =      0.000 s
  Timing for VVOO strings   =      0.001 s
  Timing for VOVO strings   =      0.000 s
  Timing for 1-hole strings =      0.000 s
  Timing for 2-hole strings =      0.001 s
  Timing for 3-hole strings =      0.001 s
  Total timing              =      0.002 s

  ==> FCI Solver <==

    Number of determinants                          65
    Symmetry                                         0
    Multiplicity                                     1
    Number of roots                                  1
    Target root                                      0
    Trial vectors per root                          10

 Get J and K 0.00003300 s.
  Allocating memory for the Hamiltonian algorithm. Size: 2 x 6 x 6.   Memory: 0.000001 GB
  Initial guess space is incomplete.
  Adding 1 determinant(s).

  ==> FCI Initial Guess <==

  ---------------------------------------------
    Root            Energy     <S^2>   Spin
  ---------------------------------------------
      0      -76.056390850607  0.000  singlet
      1      -75.389254913199  2.000  triplet
      2      -75.265762245988  2.000  triplet
      3      -75.251380952539  0.000  singlet
      4      -74.889251719825  0.000  singlet
      5      -74.753896494793  6.000  quintet
      6      -74.729850500374  0.000  singlet
      7      -74.692192915983  2.000  triplet
      8      -74.598839346671  0.000  singlet
      9      -74.531308322296  0.000  singlet
     10      -74.476442221762  2.000  triplet
     11      -74.431043693734  0.000  singlet
     12      -74.400468081877  2.000  triplet
     13      -74.386728158615  0.000  singlet
     14      -74.290241460772  0.000  singlet
     15      -74.263666146589  2.000  triplet
     16      -74.208129543869  0.000  singlet
     17      -74.096679872622  0.000  singlet
     18      -73.902146937404  2.000  triplet
     19      -73.851723308674  0.000  singlet
     20      -73.686845759479  0.000  singlet
  ---------------------------------------------
  Timing for initial guess  =      0.011 s

  Projecting out root 1
  Projecting out root 2
  Projecting out root 5
  Projecting out root 7
  Projecting out root 10
  Projecting out root 12
  Projecting out root 15
  Projecting out root 18
  ==> Diagonalizing Hamiltonian <==

  ----------------------------------------
    Iter.      Avg. Energy       Delta_E
  ----------------------------------------
      1      -76.056390850607  -7.606e+01
      2      -76.073394341236  -1.700e-02
      3      -76.073769978118  -3.756e-04
      4      -76.073776563775  -6.586e-06
      5      -76.073776756767  -1.930e-07
  ----------------------------------------
  The Davidson-Liu algorithm converged in 6 iterations.

  ==> Root No. 0 <==

    220 2 20     -0.98671084

    Total Energy:       -76.073776756767245

  ==> Computing RDMs for Root No. 0 <==

    Timing for 1-RDM: 0.000 s
    Timing for 2-RDM: 0.001 s

  ==> NATURAL ORBITALS <==

        1B1     1.999339      1A1     1.998803      2A1     1.975838  
        1B2     1.973735      2B2     0.026769      3A1     0.025515  



 CAS took 0.047956 seconds.
 Get J and K 0.00007500 s.

 FormFockIntermediates took 0.02091400 s.

 FormOrbitalGradient took 0.00045400 s.

 FormDiagHessian took 0.00006500 s.

 Update function takes 0.02147000 s
    4   0.000524844876   0.000126665526   -76.073776756767    0.183233 s  DIIS
 Get J and K 0.00035600 s.

 Transform Integrals takes 0.11059400 s.

  Performing a CAS with FCI

  ==> FCI Summary <==

    Number of electrons: 10
    Charge: 0
    Multiplicity: 1
    Davidson subspace max dim: 8
    Davidson subspace min dim: 2
    M_s: 0

  ==> String Lists <==

  Number of alpha electrons     = 4
  Number of beta electrons      = 4
  Number of alpha strings       = 15
  Number of beta strings        = 15
  Number of alpha strings (N-3) = 6
  Number of beta strings (N-3)  = 6
  Timing for strings        =      0.000 s
  Timing for NN strings     =      0.000 s
  Timing for VO strings     =      0.001 s
  Timing for OO strings     =      0.000 s
  Timing for Knowles-Handy  =      0.000 s
  Timing for VVOO strings   =      0.001 s
  Timing for VOVO strings   =      0.000 s
  Timing for 1-hole strings =      0.000 s
  Timing for 2-hole strings =      0.001 s
  Timing for 3-hole strings =      0.001 s
  Total timing              =      0.002 s

  ==> FCI Solver <==

    Number of determinants                          65
    Symmetry                                         0
    Multiplicity                                     1
    Number of roots                                  1
    Target root                                      0
    Trial vectors per root                          10

 Get J and K 0.00003300 s.
  Allocating memory for the Hamiltonian algorithm. Size: 2 x 6 x 6.   Memory: 0.000001 GB
  Initial guess space is incomplete.
  Adding 1 determinant(s).

  ==> FCI Initial Guess <==

  ---------------------------------------------
    Root            Energy     <S^2>   Spin
  ---------------------------------------------
      0      -76.056457132851  0.000  singlet
      1      -75.382897304080  2.000  triplet
      2      -75.261028307163  2.000  triplet
      3      -75.245843632378  0.000  singlet
      4      -74.886086804045  0.000  singlet
      5      -74.743132106415  6.000  quintet
      6      -74.714049786523  0.000  singlet
      7      -74.686606025742  2.000  triplet
      8      -74.596403723134  0.000  singlet
      9      -74.521362964658  0.000  singlet
     10      -74.469513886088  2.000  triplet
     11      -74.423911509171  0.000  singlet
     12      -74.389032645221  2.000  triplet
     13      -74.386732753508  0.000  singlet
     14      -74.282546562637  0.000  singlet
     15      -74.278856684862  2.000  triplet
     16      -74.194599926259  0.000  singlet
     17      -74.088584067326  0.000  singlet
     18      -73.875784248646  2.000  triplet
     19      -73.849195361519  0.000  singlet
     20      -73.605889499677  0.000  singlet
  ---------------------------------------------
  Timing for initial guess  =      0.011 s

  Projecting out root 1
  Projecting out root 2
  Projecting out root 5
  Projecting out root 7
  Projecting out root 10
  Projecting out root 12
  Projecting out root 15
  Projecting out root 18
  ==> Diagonalizing Hamiltonian <==

  ----------------------------------------
    Iter.      Avg. Energy       Delta_E
  ----------------------------------------
      1      -76.056457132851  -7.606e+01
      2      -76.073434771747  -1.698e-02
      3      -76.073806665223  -3.719e-04
      4      -76.073813091077  -6.426e-06
      5      -76.073813275525  -1.844e-07
  ----------------------------------------
  The Davidson-Liu algorithm converged in 6 iterations.

  ==> Root No. 0 <==

    220 2 20      0.98676544

    Total Energy:       -76.073813275525140

  ==> Computing RDMs for Root No. 0 <==

    Timing for 1-RDM: 0.000 s
    Timing for 2-RDM: 0.001 s

  ==> NATURAL ORBITALS <==

        1B1     1.999340      1A1     1.998787      2A1     1.975955  
        1B2     1.973831      2B2     0.026718      3A1     0.025369  



 CAS took 0.049016 seconds.
 Get J and K 0.00007400 s.

 FormFockIntermediates took 0.02032000 s.

 FormOrbitalGradient took 0.00045900 s.

 FormDiagHessian took 0.00006500 s.

 Update function takes 0.02086800 s
    5   0.000365316040   0.000036518758   -76.073813275525    0.181199 s  DIIS
 Get J and K 0.00033500 s.

 Transform Integrals takes 0.11092300 s.

  Performing a CAS with FCI

  ==> FCI Summary <==

    Number of electrons: 10
    Charge: 0
    Multiplicity: 1
    Davidson subspace max dim: 8
    Davidson subspace min dim: 2
    M_s: 0

  ==> String Lists <==

  Number of alpha electrons     = 4
  Number of beta electrons      = 4
  Number of alpha strings       = 15
  Number of beta strings        = 15
  Number of alpha strings (N-3) = 6
  Number of beta strings (N-3)  = 6
  Timing for strings        =      0.000 s
  Timing for NN strings     =      0.000 s
  Timing for VO strings     =      0.001 s
  Timing for OO strings     =      0.000 s
  Timing for Knowles-Handy  =      0.000 s
  Timing for VVOO strings   =      0.001 s
  Timing for VOVO strings   =      0.000 s
  Timing for 1-hole strings =      0.000 s
  Timing for 2-hole strings =      0.001 s
  Timing for 3-hole strings =      0.001 s
  Total timing              =      0.002 s

  ==> FCI Solver <==

    Number of determinants                          65
    Symmetry                                         0
    Multiplicity                                     1
    Number of roots                                  1
    Target root                                      0
    Trial vectors per root                          10

 Get J and K 0.00003300 s.
  Allocating memory for the Hamiltonian algorithm. Size: 2 x 6 x 6.   Memory: 0.000001 GB
  Initial guess space is incomplete.
  Adding 1 determinant(s).

  ==> FCI Initial Guess <==

  ---------------------------------------------
    Root            Energy     <S^2>   Spin
  ---------------------------------------------
      0      -76.056523523999  0.000  singlet
      1      -75.378179416526  2.000  triplet
      2      -75.257350154950  2.000  triplet
      3      -75.239898183241  0.000  singlet
      4      -74.880342220209  0.000  singlet
      5      -74.734985601168  6.000  quintet
      6      -74.706808427836  0.000  singlet
      7      -74.675980826213  2.000  triplet
      8      -74.587962254177  0.000  singlet
      9      -74.512847309209  0.000  singlet
     10      -74.458846163734  2.000  triplet
     11      -74.414213880522  0.000  singlet
     12      -74.379315021412  2.000  triplet
     13      -74.377572961702  0.000  singlet
     14      -74.271438215941  0.000  singlet
     15      -74.269066667020  2.000  triplet
     16      -74.183158195762  0.000  singlet
     17      -74.078722687415  0.000  singlet
     18      -73.862603043864  2.000  triplet
     19      -73.839129743759  0.000  singlet
     20      -73.591064055648  0.000  singlet
  ---------------------------------------------
  Timing for initial guess  =      0.012 s

  Projecting out root 1
  Projecting out root 2
  Projecting out root 5
  Projecting out root 7
  Projecting out root 10
  Projecting out root 12
  Projecting out root 15
  Projecting out root 18
  ==> Diagonalizing Hamiltonian <==

  ----------------------------------------
    Iter.      Avg. Energy       Delta_E
  ----------------------------------------
      1      -76.056523523999  -7.606e+01
      2      -76.073457777267  -1.693e-02
      3      -76.073828291372  -3.705e-04
      4      -76.073834742028  -6.451e-06
      5      -76.073834933603  -1.916e-07
  ----------------------------------------
  The Davidson-Liu algorithm converged in 6 iterations.

  ==> Root No. 0 <==

    220 2 20      0.98680304

    Total Energy:       -76.073834933602839

  ==> Computing RDMs for Root No. 0 <==

    Timing for 1-RDM: 0.000 s
    Timing for 2-RDM: 0.001 s

  ==> NATURAL ORBITALS <==

        1B1     1.999340      1A1     1.998768      2A1     1.976037  
        1B2     1.973896      2B2     0.026701      3A1     0.025258  



 CAS took 0.049700 seconds.
 Get J and K 0.00008100 s.

 FormFockIntermediates took 0.02131900 s.

 FormOrbitalGradient took 0.00045100 s.

 FormDiagHessian took 0.00006600 s.

 Update function takes 0.02185900 s
    6   0.000275853889   0.000021658078   -76.073834933603    0.183216 s  DIIS
 Get J and K 0.00035100 s.

 Transform Integrals takes 0.11192000 s.

  Performing a CAS with FCI

  ==> FCI Summary <==

    Number of electrons: 10
    Charge: 0
    Multiplicity: 1
    Davidson subspace max dim: 8
    Davidson subspace min dim: 2
    M_s: 0

  ==> String Lists <==

  Number of alpha electrons     = 4
  Number of beta electrons      = 4
  Number of alpha strings       = 15
  Number of beta strings        = 15
  Number of alpha strings (N-3) = 6
  Number of beta strings (N-3)  = 6
  Timing for strings        =      0.000 s
  Timing for NN strings     =      0.000 s
  Timing for VO strings     =      0.001 s
  Timing for OO strings     =      0.000 s
  Timing for Knowles-Handy  =      0.000 s
  Timing for VVOO strings   =      0.001 s
  Timing for VOVO strings   =      0.000 s
  Timing for 1-hole strings =      0.000 s
  Timing for 2-hole strings =      0.001 s
  Timing for 3-hole strings =      0.001 s
  Total timing              =      0.002 s

  ==> FCI Solver <==

    Number of determinants                          65
    Symmetry                                         0
    Multiplicity                                     1
    Number of roots                                  1
    Target root                                      0
    Trial vectors per root                          10

 Get J and K 0.00003400 s.
  Allocating memory for the Hamiltonian algorithm. Size: 2 x 6 x 6.   Memory: 0.000001 GB
  Initial guess space is incomplete.
  Adding 1 determinant(s).

  ==> FCI Initial Guess <==

  ---------------------------------------------
    Root            Energy     <S^2>   Spin
  ---------------------------------------------
      0      -76.056537161560  0.000  singlet
      1      -75.376370693117  2.000  triplet
      2      -75.256297492963  2.000  triplet
      3      -75.237378356931  0.000  singlet
      4      -74.878495853680  0.000  singlet
      5      -74.731883352184  6.000  quintet
      6      -74.705615533386  0.000  singlet
      7      -74.673200314030  2.000  triplet
      8      -74.584406754500  0.000  singlet
      9      -74.511397798511  0.000  singlet
     10      -74.455225523294  2.000  triplet
     11      -74.412417203462  0.000  singlet
     12      -74.375810852489  2.000  triplet
     13      -74.374399928164  0.000  singlet
     14      -74.268431095941  0.000  singlet
     15      -74.265631223849  2.000  triplet
     16      -74.178214903097  0.000  singlet
     17      -74.076476693324  0.000  singlet
     18      -73.858460298202  2.000  triplet
     19      -73.835750528831  0.000  singlet
     20      -73.585939758313  0.000  singlet
  ---------------------------------------------
  Timing for initial guess  =      0.011 s

  Projecting out root 1
  Projecting out root 2
  Projecting out root 5
  Projecting out root 7
  Projecting out root 10
  Projecting out root 12
  Projecting out root 15
  Projecting out root 18
  ==> Diagonalizing Hamiltonian <==

  ----------------------------------------
    Iter.      Avg. Energy       Delta_E
  ----------------------------------------
      1      -76.056537161560  -7.606e+01
      2      -76.073463818635  -1.693e-02
      3      -76.073835849885  -3.720e-04
      4      -76.073842386011  -6.536e-06
      5      -76.073842590838  -2.048e-07
  ----------------------------------------
  The Davidson-Liu algorithm converged in 6 iterations.

  ==> Root No. 0 <==

    220 2 20     -0.98680928

    Total Energy:       -76.073842590838197

  ==> Computing RDMs for Root No. 0 <==

    Timing for 1-RDM: 0.000 s
    Timing for 2-RDM: 0.001 s

  ==> NATURAL ORBITALS <==

        1B1     1.999340      1A1     1.998763      2A1     1.976054  
        1B2     1.973903      2B2     0.026706      3A1     0.025234  



 CAS took 0.049349 seconds.
 Get J and K 0.00007800 s.

 FormFockIntermediates took 0.02044500 s.

 FormOrbitalGradient took 0.00045200 s.

 FormDiagHessian took 0.00006500 s.

 Update function takes 0.02098500 s
    7   0.000196861968   0.000007657235   -76.073842590838    0.182983 s  DIIS
 Get J and K 0.00040100 s.

 Transform Integrals takes 0.11229300 s.

  Performing a CAS with FCI

  ==> FCI Summary <==

    Number of electrons: 10
    Charge: 0
    Multiplicity: 1
    Davidson subspace max dim: 8
    Davidson subspace min dim: 2
    M_s: 0

  ==> String Lists <==

  Number of alpha electrons     = 4
  Number of beta electrons      = 4
  Number of alpha strings       = 15
  Number of beta strings        = 15
  Number of alpha strings (N-3) = 6
  Number of beta strings (N-3)  = 6
  Timing for strings        =      0.000 s
  Timing for NN strings     =      0.000 s
  Timing for VO strings     =      0.001 s
  Timing for OO strings     =      0.000 s
  Timing for Knowles-Handy  =      0.000 s
  Timing for VVOO strings   =      0.001 s
  Timing for VOVO strings   =      0.000 s
  Timing for 1-hole strings =      0.000 s
  Timing for 2-hole strings =      0.001 s
  Timing for 3-hole strings =      0.001 s
  Total timing              =      0.002 s

  ==> FCI Solver <==

    Number of determinants                          65
    Symmetry                                         0
    Multiplicity                                     1
    Number of roots                                  1
    Target root                                      0
    Trial vectors per root                          10

 Get J and K 0.00003300 s.
  Allocating memory for the Hamiltonian algorithm. Size: 2 x 6 x 6.   Memory: 0.000001 GB
  Initial guess space is incomplete.
  Adding 1 determinant(s).

  ==> FCI Initial Guess <==

  ---------------------------------------------
    Root            Energy     <S^2>   Spin
  ---------------------------------------------
      0      -76.056542334962  0.000  singlet
      1      -75.375221823326  2.000  triplet
      2      -75.255447737479  2.000  triplet
      3      -75.232527725034  0.000  singlet
      4      -74.872595139360  0.000  singlet
      5      -74.729275330952  6.000  quintet
      6      -74.711856527057  0.000  singlet
      7      -74.662733387291  2.000  triplet
      8      -74.570234018568  0.000  singlet
      9      -74.510211876813  0.000  singlet
     10      -74.445407939236  2.000  triplet
     11      -74.406634220914  0.000  singlet
     12      -74.371936539720  2.000  triplet
     13      -74.357842237234  0.000  singlet
     14      -74.260329150482  0.000  singlet
     15      -74.235371959838  2.000  triplet
     16      -74.171905225002  0.000  singlet
     17      -74.072373734732  0.000  singlet
     18      -73.869314302205  2.000  triplet
     19      -73.821909717695  0.000  singlet
     20      -73.651673523010  0.000  singlet
  ---------------------------------------------
  Timing for initial guess  =      0.011 s

  Projecting out root 1
  Projecting out root 2
  Projecting out root 5
  Projecting out root 7
  Projecting out root 10
  Projecting out root 12
  Projecting out root 15
  Projecting out root 18
  ==> Diagonalizing Hamiltonian <==

  ----------------------------------------
    Iter.      Avg. Energy       Delta_E
  ----------------------------------------
      1      -76.056542334962  -7.606e+01
      2      -76.073468510023  -1.693e-02
      3      -76.073846055197  -3.775e-04
      4      -76.073852957955  -6.903e-06
      5      -76.073853220486  -2.625e-07
  ----------------------------------------
  The Davidson-Liu algorithm converged in 6 iterations.

  ==> Root No. 0 <==

    220 2 20      0.98680427

    Total Energy:       -76.073853220486313

  ==> Computing RDMs for Root No. 0 <==

    Timing for 1-RDM: 0.000 s
    Timing for 2-RDM: 0.001 s

  ==> NATURAL ORBITALS <==

        1B1     1.999339      1A1     1.998762      2A1     1.976044  
        1B2     1.973891      2B2     0.026725      3A1     0.025239  



 CAS took 0.049207 seconds.
 Get J and K 0.00007600 s.

 FormFockIntermediates took 0.02037700 s.

 FormOrbitalGradient took 0.00047200 s.

 FormDiagHessian took 0.00006500 s.

 Update function takes 0.02094000 s
    8   0.000135131153   0.000010629648   -76.073853220486    0.183249 s  DIIS
 Get J and K 0.00034900 s.

 Transform Integrals takes 0.11229700 s.

  Performing a CAS with FCI

  ==> FCI Summary <==

    Number of electrons: 10
    Charge: 0
    Multiplicity: 1
    Davidson subspace max dim: 8
    Davidson subspace min dim: 2
    M_s: 0

  ==> String Lists <==

  Number of alpha electrons     = 4
  Number of beta electrons      = 4
  Number of alpha strings       = 15
  Number of beta strings        = 15
  Number of alpha strings (N-3) = 6
  Number of beta strings (N-3)  = 6
  Timing for strings        =      0.000 s
  Timing for NN strings     =      0.000 s
  Timing for VO strings     =      0.001 s
  Timing for OO strings     =      0.000 s
  Timing for Knowles-Handy  =      0.000 s
  Timing for VVOO strings   =      0.001 s
  Timing for VOVO strings   =      0.000 s
  Timing for 1-hole strings =      0.000 s
  Timing for 2-hole strings =      0.001 s
  Timing for 3-hole strings =      0.001 s
  Total timing              =      0.002 s

  ==> FCI Solver <==

    Number of determinants                          65
    Symmetry                                         0
    Multiplicity                                     1
    Number of roots                                  1
    Target root                                      0
    Trial vectors per root                          10

 Get J and K 0.00003300 s.
  Allocating memory for the Hamiltonian algorithm. Size: 2 x 6 x 6.   Memory: 0.000001 GB
  Initial guess space is incomplete.
  Adding 1 determinant(s).

  ==> FCI Initial Guess <==

  ---------------------------------------------
    Root            Energy     <S^2>   Spin
  ---------------------------------------------
      0      -76.056443039166  0.000  singlet
      1      -75.370828401354  2.000  triplet
      2      -75.250903885604  2.000  triplet
      3      -75.222949851109  0.000  singlet
      4      -74.862674158006  0.000  singlet
      5      -74.717007994225  6.000  quintet
      6      -74.710038184848  0.000  singlet
      7      -74.635248392054  2.000  triplet
      8      -74.554090179558  0.000  singlet
      9      -74.504013180726  0.000  singlet
     10      -74.429259585044  2.000  triplet
     11      -74.394579375404  0.000  singlet
     12      -74.359146081346  2.000  triplet
     13      -74.341583887378  0.000  singlet
     14      -74.248601905163  0.000  singlet
     15      -74.222567761470  2.000  triplet
     16      -74.152735762822  0.000  singlet
     17      -74.067875114711  0.000  singlet
     18      -73.856437013132  2.000  triplet
     19      -73.809103381642  0.000  singlet
     20      -73.638347617153  0.000  singlet
  ---------------------------------------------
  Timing for initial guess  =      0.011 s

  Projecting out root 1
  Projecting out root 2
  Projecting out root 5
  Projecting out root 7
  Projecting out root 10
  Projecting out root 12
  Projecting out root 15
  Projecting out root 18
  ==> Diagonalizing Hamiltonian <==

  ----------------------------------------
    Iter.      Avg. Energy       Delta_E
  ----------------------------------------
      1      -76.056443039167  -7.606e+01
      2      -76.073462996453  -1.702e-02
      3      -76.073855992608  -3.930e-04
      4      -76.073864085451  -8.093e-06
      5      -76.073864693599  -6.081e-07
  ----------------------------------------
  The Davidson-Liu algorithm converged in 6 iterations.

  ==> Root No. 0 <==

    220 2 20     -0.98681650

    Total Energy:       -76.073864693598978

  ==> Computing RDMs for Root No. 0 <==

    Timing for 1-RDM: 0.000 s
    Timing for 2-RDM: 0.001 s

  ==> NATURAL ORBITALS <==

        1B1     1.999342      1A1     1.998794      2A1     1.976054  
        1B2     1.973911      2B2     0.026667      3A1     0.025232  



 CAS took 0.048495 seconds.
 Get J and K 0.00007300 s.

 FormFockIntermediates took 0.02105600 s.

 FormOrbitalGradient took 0.00047000 s.

 FormDiagHessian took 0.00006400 s.

 Update function takes 0.02161600 s
    9   0.000047134088   0.000011473113   -76.073864693599    0.183154 s  DIIS
 Get J and K 0.00041600 s.

 Transform Integrals takes 0.11235100 s.

  Performing a CAS with FCI

  ==> FCI Summary <==

    Number of electrons: 10
    Charge: 0
    Multiplicity: 1
    Davidson subspace max dim: 8
    Davidson subspace min dim: 2
    M_s: 0

  ==> String Lists <==

  Number of alpha electrons     = 4
  Number of beta electrons      = 4
  Number of alpha strings       = 15
  Number of beta strings        = 15
  Number of alpha strings (N-3) = 6
  Number of beta strings (N-3)  = 6
  Timing for strings        =      0.000 s
  Timing for NN strings     =      0.000 s
  Timing for VO strings     =      0.001 s
  Timing for OO strings     =      0.000 s
  Timing for Knowles-Handy  =      0.000 s
  Timing for VVOO strings   =      0.001 s
  Timing for VOVO strings   =      0.000 s
  Timing for 1-hole strings =      0.000 s
  Timing for 2-hole strings =      0.001 s
  Timing for 3-hole strings =      0.001 s
  Total timing              =      0.002 s

  ==> FCI Solver <==

    Number of determinants                          65
    Symmetry                                         0
    Multiplicity                                     1
    Number of roots                                  1
    Target root                                      0
    Trial vectors per root                          10

 Get J and K 0.00003300 s.
  Allocating memory for the Hamiltonian algorithm. Size: 2 x 6 x 6.   Memory: 0.000001 GB
  Initial guess space is incomplete.
  Adding 1 determinant(s).

  ==> FCI Initial Guess <==

  ---------------------------------------------
    Root            Energy     <S^2>   Spin
  ---------------------------------------------
      0      -76.056418648956  0.000  singlet
      1      -75.370490438826  2.000  triplet
      2      -75.250462798371  2.000  triplet
      3      -75.222262562096  0.000  singlet
      4      -74.861957791662  0.000  singlet
      5      -74.715944498909  6.000  quintet
      6      -74.709733637431  0.000  singlet
      7      -74.633339484200  2.000  triplet
      8      -74.552724075304  0.000  singlet
      9      -74.503452522293  0.000  singlet
     10      -74.428045909252  2.000  triplet
     11      -74.393619087032  0.000  singlet
     12      -74.358100183045  2.000  triplet
     13      -74.340170548816  0.000  singlet
     14      -74.247691310158  0.000  singlet
     15      -74.221444941485  2.000  triplet
     16      -74.151170157084  0.000  singlet
     17      -74.067350065778  0.000  singlet
     18      -73.855118321559  2.000  triplet
     19      -73.808134573584  0.000  singlet
     20      -73.637128405719  0.000  singlet
  ---------------------------------------------
  Timing for initial guess  =      0.011 s

  Projecting out root 1
  Projecting out root 2
  Projecting out root 5
  Projecting out root 7
  Projecting out root 10
  Projecting out root 12
  Projecting out root 15
  Projecting out root 18
  ==> Diagonalizing Hamiltonian <==

  ----------------------------------------
    Iter.      Avg. Energy       Delta_E
  ----------------------------------------
      1      -76.056418648956  -7.606e+01
      2      -76.073461373311  -1.704e-02
      3      -76.073856011359  -3.946e-04
      4      -76.073864224239  -8.213e-06
      5      -76.073864858826  -6.346e-07
  ----------------------------------------
  The Davidson-Liu algorithm converged in 6 iterations.

  ==> Root No. 0 <==

    220 2 20      0.98681962

    Total Energy:       -76.073864858826141

  ==> Computing RDMs for Root No. 0 <==

    Timing for 1-RDM: 0.000 s
    Timing for 2-RDM: 0.001 s

  ==> NATURAL ORBITALS <==

        1B1     1.999342      1A1     1.998798      2A1     1.976059  
        1B2     1.973915      2B2     0.026655      3A1     0.025232  



 CAS took 0.049065 seconds.
 Get J and K 0.00007300 s.

 FormFockIntermediates took 0.02061800 s.

 FormOrbitalGradient took 0.00046300 s.

 FormDiagHessian took 0.00006400 s.

 Update function takes 0.02117000 s

 @E_CASSCF: = -76.073864858826 


 Norm of orbital_gradient is 0.00002425

 Energy difference: 0.000000165227
 Overall retranformation of integrals takes 0.0000 s.

  Your calculation took 2.21615800 seconds
	FORTE CASSCF Energy...............................................PASSED

*** Psi4 exiting successfully. Buy a developer a beer!
