
    -----------------------------------------------------------------------
          Psi4: An Open-Source Ab Initio Electronic Structure Package
                               Psi4 1.10a1.dev48 

                         Git: Rev {master} 1813c0c dirty


    D. G. A. Smith, L. A. Burns, A. C. Simmonett, R. M. Parrish,
    M. C. Schieber, R. Galvelis, P. Kraus, H. Kruse, R. Di Remigio,
    A. Alenaizan, A. M. James, S. Lehtola, J. P. Misiewicz, M. Scheurer,
    R. A. Shaw, J. B. Schriber, Y. Xie, Z. L. Glick, D. A. Sirianni,
    J. S. O'Brien, J. M. Waldrop, A. Kumar, E. G. Hohenstein,
    B. P. Pritchard, B. R. Brooks, H. F. Schaefer III, A. Yu. Sokolov,
    K. Patkowski, A. E. DePrince III, U. Bozkaya, R. A. King,
    F. A. Evangelista, J. M. Turney, T. D. Crawford, C. D. Sherrill,
    J. Chem. Phys. 152(18) 184108 (2020). https://doi.org/10.1063/5.0006002

                            Additional Code Authors
    E. T. Seidl, C. L. Janssen, E. F. Valeev, M. L. Leininger,
    J. F. Gonthier, R. M. Richard, H. R. McAlexander, M. Saitow, X. Wang,
    P. Verma, M. H. Lechner, A. Jiang, S. Behnle, A. G. Heide,
    M. F. Herbst, and D. L. Poole

             Previous Authors, Complete List of Code Contributors,
                       and Citations for Specific Modules
    https://github.com/psi4/psi4/blob/master/codemeta.json
    https://github.com/psi4/psi4/graphs/contributors
    http://psicode.org/psi4manual/master/introduction.html#citing-psifour

    -----------------------------------------------------------------------


    Psi4 started on: Thursday, 29 August 2024 09:55AM

    Process ID: 964
    Host:       Brian-Zs-MBA.local
    PSIDATADIR: /Users/brianz98/local/psi4/objdir-Release/stage/share/psi4
    Memory:     500.0 MiB
    Threads:    1
    
  ==> Input File <==

--------------------------------------------------------------------------
import forte

e_scf = -39.72595399459846
en_ref0 = -39.805891312415
en_ref1 = -28.91728496366

molecule CH4{
0 1
    C            0.000000693335    -0.000000363394    -0.000000000009
    H            0.366524074786    -1.036732855743    -0.000000000330
    H            0.366542113094     0.518360906411     0.897833209426
    H            0.366542112780     0.518360905680    -0.897833208819
    H           -1.099616556084     0.000015370523    -0.000000000164
no_reorient
units angstrom
symmetry c1
}

set {
  scf_type pk
  basis sto-3g
  e_convergence 10
}

set forte {
  active_space_solver aci
  sigma 0.005
  nroot 2
  aci_nfrozen_core 1
  aci_roots_per_core 1
  sci_preiterations 2
  charge 0
  aci_add_aimed_degenerate false
  aci_screen_alg core
  sci_core_ex true
  active_ref_type hf
  dl_maxiter 500
}

Escf, scf_wfn = energy('scf', return_wfn=True)
compare_values(e_scf, variable("CURRENT ENERGY"), 9, "SCF Energy")
energy('forte', ref_wfn = scf_wfn)
compare_values(en_ref1, variable("ACI ENERGY"), 9, "Core EX Energy")
--------------------------------------------------------------------------

Scratch directory: /tmp/
   => Libint2 <=

    Primary   basis highest AM E, G, H:  6, 6, 3
    Auxiliary basis highest AM E, G, H:  7, 7, 4
    Onebody   basis highest AM E, G, H:  -, -, -
    Solid Harmonics ordering:            Gaussian

*** tstart() called on Brian-Zs-MBA.local
*** at Thu Aug 29 09:55:47 2024

   => Loading Basis Set <=

    Name: STO-3G
    Role: ORBITAL
    Keyword: BASIS
    atoms 1   entry C          line    61 file /Users/brianz98/local/psi4/objdir-Release/stage/share/psi4/basis/sto-3g.gbs 
    atoms 2-5 entry H          line    19 file /Users/brianz98/local/psi4/objdir-Release/stage/share/psi4/basis/sto-3g.gbs 


         ---------------------------------------------------------
                                   SCF
               by Justin Turney, Rob Parrish, Andy Simmonett
                          and Daniel G. A. Smith
                              RHF Reference
                        1 Threads,    500 MiB Core
         ---------------------------------------------------------

  ==> Geometry <==

    Molecular point group: c1
    Full point group: Cs

    Geometry (in Angstrom), charge = 0, multiplicity = 1:

       Center              X                  Y                   Z               Mass       
    ------------   -----------------  -----------------  -----------------  -----------------
         C            0.000000693335    -0.000000363394    -0.000000000009    12.000000000000
         H            0.366524074786    -1.036732855743    -0.000000000330     1.007825032230
         H            0.366542113094     0.518360906411     0.897833209426     1.007825032230
         H            0.366542112780     0.518360905680    -0.897833208819     1.007825032230
         H           -1.099616556084     0.000015370523    -0.000000000164     1.007825032230

  Running in c1 symmetry.

  Rotational constants: A =      5.18753  B =      5.18753  C =      5.18752 [cm^-1]
  Rotational constants: A = 155518.35458  B = 155518.22455  C = 155517.89657 [MHz]
  Nuclear repulsion =   13.317896666418385

  Charge       = 0
  Multiplicity = 1
  Electrons    = 10
  Nalpha       = 5
  Nbeta        = 5

  ==> Algorithm <==

  SCF Algorithm Type is PK.
  DIIS enabled.
  MOM disabled.
  Fractional occupation disabled.
  Guess Type is SAD.
  Energy threshold   = 1.00e-10
  Density threshold  = 1.00e-06
  Integral threshold = 1.00e-12

  ==> Primary Basis <==

  Basis Set: STO-3G
    Blend: STO-3G
    Number of shells: 7
    Number of basis functions: 9
    Number of Cartesian functions: 9
    Spherical Harmonics?: true
    Max angular momentum: 1

  ==> Integral Setup <==

  Using in-core PK algorithm.
   Calculation information:
      Number of atoms:                   5
      Number of AO shells:               7
      Number of primitives:             21
      Number of atomic orbitals:         9
      Number of basis functions:         9

      Integral cutoff                 1.00e-12
      Number of threads:                 1

  Performing in-core PK
  Using 2070 doubles for integral storage.
  We computed 406 shell quartets total.
  Whereas there are 406 unique shell quartets.

  ==> DiskJK: Disk-Based J/K Matrices <==

    J tasked:                  Yes
    K tasked:                  Yes
    wK tasked:                  No
    Memory [MiB]:              375
    Schwarz Cutoff:          1E-12

    OpenMP threads:              1

  Minimum eigenvalue in the overlap matrix is 2.2634863294E-01.
  Reciprocal condition number of the overlap matrix is 9.8528669545E-02.
    Using symmetric orthogonalization.

  ==> Pre-Iterations <==

  SCF Guess: Superposition of Atomic Densities via on-the-fly atomic UHF (no occupation information).

   -------------------------
    Irrep   Nso     Nmo    
   -------------------------
     A          9       9 
   -------------------------
    Total       9       9
   -------------------------

  ==> Iterations <==

                        Total Energy        Delta E     RMS |[F,P]|

   @RHF iter SAD:   -37.49692136810263   -3.74969e+01   0.00000e+00 
   @RHF iter   1:   -39.40241192121615   -1.90549e+00   7.73548e-02 DIIS/ADIIS
   @RHF iter   2:   -39.71457833643550   -3.12166e-01   1.51048e-02 DIIS/ADIIS
   @RHF iter   3:   -39.72594133063986   -1.13630e-02   5.09016e-04 DIIS/ADIIS
   @RHF iter   4:   -39.72595385815614   -1.25275e-05   4.60638e-05 DIIS
   @RHF iter   5:   -39.72595399459513   -1.36439e-07   2.48844e-07 DIIS
   @RHF iter   6:   -39.72595399459856   -3.43192e-12   3.08505e-09 DIIS
  Energy and wave function converged.


  ==> Post-Iterations <==

    Orbital Energies [Eh]
    ---------------------

    Doubly Occupied:                                                      

       1A    -11.031181     2A     -0.903575     3A     -0.513986  
       4A     -0.513985     5A     -0.513984  

    Virtual:                                                              

       6A      0.704575     7A      0.704577     8A      0.704579  
       9A      0.736171  

    Final Occupation by Irrep:
              A 
    DOCC [     5 ]
    NA   [     5 ]
    NB   [     5 ]

  @RHF Final Energy:   -39.72595399459856

   => Energetics <=

    Nuclear Repulsion Energy =             13.3178966664183847
    One-Electron Energy =                 -79.1342775943685126
    Two-Electron Energy =                  26.0904269333515586
    Total Energy =                        -39.7259539945985622

Computation Completed


Properties will be evaluated at   0.000000,   0.000000,   0.000000 [a0]

Properties computed using the SCF density matrix


 Multipole Moments:

 ------------------------------------------------------------------------------------
     Multipole            Electronic (a.u.)      Nuclear  (a.u.)        Total (a.u.)
 ------------------------------------------------------------------------------------

 L = 1.  Multiply by 2.5417464519 to convert [e a0] to [Debye]
 Dipole X            :          0.0000071           -0.0000077           -0.0000006
 Dipole Y            :         -0.0000037            0.0000041            0.0000003
 Dipole Z            :         -0.0000000            0.0000000           -0.0000000
 Magnitude           :                                                    0.0000007

 ------------------------------------------------------------------------------------

*** tstop() called on Brian-Zs-MBA.local at Thu Aug 29 09:55:47 2024
Module time:
	user time   =       0.11 seconds =       0.00 minutes
	system time =       0.01 seconds =       0.00 minutes
	total time  =          0 seconds =       0.00 minutes
Total time:
	user time   =       0.11 seconds =       0.00 minutes
	system time =       0.01 seconds =       0.00 minutes
	total time  =          0 seconds =       0.00 minutes
    SCF Energy............................................................................PASSED

Scratch directory: /tmp/

  Forte
  ----------------------------------------------------------------------------
  A suite of quantum chemistry methods for strongly correlated electrons

    git branch: adpative-rsc - git commit: 9cf22643

  Developed by:
    Francesco A. Evangelista, Chenyang Li, Kevin P. Hannon,
    Jeffrey B. Schriber, Tianyuan Zhang, Chenxi Cai,
    Nan He, Nicholas Stair, Shuhe Wang, Renke Huang
  ----------------------------------------------------------------------------


  Preparing forte objects from a Psi4 Wavefunction object

  ==> MO Space Information <==

  -------------------------------
                        A   Sum
  -------------------------------
    FROZEN_DOCC         0     0
    RESTRICTED_DOCC     0     0
    GAS1                9     9
    GAS2                0     0
    GAS3                0     0
    GAS4                0     0
    GAS5                0     0
    GAS6                0     0
    RESTRICTED_UOCC     0     0
    FROZEN_UOCC         0     0
    Total               9     9
  -------------------------------   => Loading Basis Set <=

    Name: STO-3G
    Role: ORBITAL
    Keyword: BASIS
    atoms 1   entry C          line    61 file /Users/brianz98/local/psi4/objdir-Release/stage/share/psi4/basis/sto-3g.gbs 
    atoms 2-5 entry H          line    19 file /Users/brianz98/local/psi4/objdir-Release/stage/share/psi4/basis/sto-3g.gbs 


  Checking orbital orthonormality against current geometry ... Done (OK)

   => Loading Basis Set <=

    Name: STO-3G
    Role: ORBITAL
    Keyword: MINAO_BASIS
    atoms 1   entry C          line    61 file /Users/brianz98/local/psi4/objdir-Release/stage/share/psi4/basis/sto-3g.gbs 
    atoms 2-5 entry H          line    19 file /Users/brianz98/local/psi4/objdir-Release/stage/share/psi4/basis/sto-3g.gbs 


  State Singlet (Ms = 0) A GAS min: 0 0 0 0 0 0 ; GAS max: 18 0 0 0 0 0 ; weights:
      1.000000000000
      0.000000000000
  Forte will use psi4 integrals

  ==> Primary Basis Set Summary <==

  Basis Set: STO-3G
    Blend: STO-3G
    Number of shells: 7
    Number of basis functions: 9
    Number of Cartesian functions: 9
    Spherical Harmonics?: true
    Max angular momentum: 1


  JK created using conventional PK integrals
  Using in-core PK algorithm.
   Calculation information:
      Number of atoms:                   5
      Number of AO shells:               7
      Number of primitives:             21
      Number of atomic orbitals:         9
      Number of basis functions:         9

      Integral cutoff                 1.00e-12
      Number of threads:                 1

  Performing in-core PK
  Using 2070 doubles for integral storage.
  We computed 406 shell quartets total.
  Whereas there are 406 unique shell quartets.

  ==> DiskJK: Disk-Based J/K Matrices <==

    J tasked:                  Yes
    K tasked:                  Yes
    wK tasked:                  No
    Memory [MiB]:              400
    Schwarz Cutoff:          1E-12

    OpenMP threads:              1



  ==> Integral Transformation <==

  Number of molecular orbitals:                          9
  Number of correlated molecular orbitals:               9
  Number of frozen occupied orbitals:                    0
  Number of frozen unoccupied orbitals:                  0
  Two-electron integral type:                 Conventional


  Computing Conventional Integrals	Presorting SO-basis two-electron integrals.
	Sorting File: SO Ints (nn|nn) nbuckets = 1
	Constructing frozen core operators
	Starting first half-transformation.
	h = 0; memfree         = 65535838
	h = 0; rows_per_bucket = 45
	h = 0; rows_left       = 0
	h = 0; nbuckets        = 1
	Sorting half-transformed integrals.
	First half integral transformation complete.
	Starting second half-transformation.
	h = 0; memfree         = 65535838
	h = 0; rows_per_bucket = 45
	h = 0; rows_left       = 0
	h = 0; nbuckets        = 1
	Two-electron integral transformation complete.

  Integral transformation done. 0.00459558 s
  Reading the two-electron integrals from disk
  Size of two-electron integrals:   0.000147 GB
  Timing for conventional integral transformation:            0.012 s.
  Timing for freezing core and virtual orbitals:              0.000 s.
  Timing for computing conventional integrals:                0.012 s.

          -----------------------------------------------------------
                  Multi-Configurational Self Consistent Field
                Two-Step Approximate Second-Order AO Algorithm
            written by Chenyang Li, Kevin P. Hannon, and Shuhe Wang
          -----------------------------------------------------------


  ==> MCSCF Calculation Information <==

    --------------------------------------------------------
    Print level                                      Default
    Integral type                               CONVENTIONAL
    CI solver type                                       ACI
    Final orbital type                             CANONICAL
    Derivative type                                     NONE
    Optimize orbitals                                   TRUE
    Include internal rotations                         FALSE
    Debug printing                                     FALSE
    Energy convergence                             1.000e-08
    Gradient convergence                           1.000e-07
    Max value for rotation                         2.000e-01
    Max number of macro iter.                            100
    Max number of micro iter. for orbitals                 6
    Max number of micro iter. for CI                      12
    DIIS start                                            15
    Min DIIS vectors                                       3
    Max DIIS vectors                                       8
    Frequency of DIIS extrapolation                        1
    --------------------------------------------------------

  ==> Independent Orbital Rotations <==

    ORBITAL SPACES                         A
    ----------------------------------------
             ACTIVE / RESTRICTED_DOCC      0
    RESTRICTED_UOCC /          ACTIVE      0
    RESTRICTED_UOCC / RESTRICTED_DOCC      0
    ----------------------------------------

--------------------------------------------------------------------------------
               Selected Configuration Interaction Excited States
  written by Jeffrey B. Schriber, Tianyuan Zhang, and Francesco A. Evangelista
--------------------------------------------------------------------------------

  ==> Calculation Information <==

  -----------------------------------------------------------------
    Multiplicity                             1    
    Symmetry                                 0    
    Number of roots                          2    
    Ms                                       0
    Excited Algorithm                        ROOT_ORTHOGONALIZE
  -----------------------------------------------------------------
  Using 1 thread(s)
  Computing wavefunction for root 0

        ---------------------------------------------------------------
                      Adaptive Configuration Interaction
          written by Jeffrey B. Schriber and Francesco A. Evangelista
        ---------------------------------------------------------------

  ==> Reference Information <==

  There are 0 frozen orbitals.
  There are 9 active orbitals.


  ==> ACI Solver <==

    --------------------------------------------------------
    Ms                                                     0
    Diagonalization algorithm                         SPARSE
    Excited Algorithm                        ROOT_ORTHOGONALIZE
    Project out spin contaminants                       True
    Enforce spin completeness of basis                  True
    Enforce complete aimed selection                   False
    Multiroot averaging                              Average
    Sigma (Eh)                                     5.000e-03
    Gamma (Eh^(-1))                                1.000e+00
    Convergence threshold                          1.000e-09
    Multiplicity                                           1
    Symmetry                                               0
    Number of roots                                        1
    Root used for properties                               0
    Roots used for averaging                               2
    Root averaging offset                                  0
    --------------------------------------------------------
  Number of active orbitals: 9
  Number of active alpha electrons: 5
  Number of active beta electrons: 5
  |222220000>


  ---------------------------------- Cycle 0 -----------------------------------

  ==> Diagonalizing the Hamiltonian in the P space <==

  Initial P space dimension: 1
  Spin-complete dimension of the P space: 1 determinants

  Davidson-Liu solver algorithm using SigmaVectorSparseList sigma algorithm

  Performing full diagonalization of the H matrix
  Found 1 roots with 2S+1 = 1 *
  Time spent diagonalizing H:   0.000726 s

    P-space  CI Energy Root   0        = -39.725953994599 Eh =   0.0000 eV, S^2 = 0.000000


  ==> Finding the Q space <==

  Using SR screening algorithm
  Time spent forming F space:             0.000220
  Time spent merging thread F spaces:             0.000054
  Size of F space: 536
  Time spent building sorting list: 0.000080
  Dimension of the PQ space:                  64
  Dimension of the PQ space (spin-complete) : 71
  Time spent building the model space: 0.001141

  ==> Diagonalizing the Hamiltonian in the P + Q space <==

  Number of reference roots: 1

  Davidson-Liu solver algorithm using SigmaVectorSparseList sigma algorithm

  Performing full diagonalization of the H matrix
  Found 36 roots with 2S+1 = 1 *
  Found 27 roots with 2S+1 = 3
  Found 8 roots with 2S+1 = 5
  Total time spent diagonalizing H:   0.002431 s

    PQ-space CI Energy Root   0        = -39.799474172788 Eh =   0.0000 eV, S^2 = 0.000000
    PQ-space CI Energy + EPT2 Root   0 = -39.804402913992 Eh =   0.0000 eV


  ==> Pruning the Q space <==

  Cycle 0 took: 0.004697 s


  ---------------------------------- Cycle 1 -----------------------------------

  ==> Diagonalizing the Hamiltonian in the P space <==

  Initial P space dimension: 30
  Spin-complete dimension of the P space: 44 determinants

  Davidson-Liu solver algorithm using SigmaVectorSparseList sigma algorithm

  Performing full diagonalization of the H matrix
  Found 20 roots with 2S+1 = 1 *
  Found 18 roots with 2S+1 = 3
  Found 6 roots with 2S+1 = 5
  Time spent diagonalizing H:   0.001259 s

    P-space  CI Energy Root   0        = -39.791809797399 Eh =   0.0000 eV, S^2 = 0.000000


  ==> Finding the Q space <==

  Using SR screening algorithm
  Time spent forming F space:             0.001387
  Time spent merging thread F spaces:             0.000531
  Size of F space: 6566
  Time spent building sorting list: 0.000964
  Dimension of the PQ space:                  74
  Dimension of the PQ space (spin-complete) : 83
  Time spent building the model space: 0.005288

  ==> Diagonalizing the Hamiltonian in the P + Q space <==

  Number of reference roots: 1

  Davidson-Liu solver algorithm using SigmaVectorSparseList sigma algorithm

  Performing full diagonalization of the H matrix
  Found 39 roots with 2S+1 = 1 *
  Found 34 roots with 2S+1 = 3
  Found 10 roots with 2S+1 = 5
  Total time spent diagonalizing H:   0.002624 s

    PQ-space CI Energy Root   0        = -39.801059897783 Eh =   0.0000 eV, S^2 = 0.000000
    PQ-space CI Energy + EPT2 Root   0 = -39.805961784015 Eh =   0.0000 eV


  ==> Pruning the Q space <==

  Cycle 1 took: 0.009681 s


  ---------------------------------- Cycle 2 -----------------------------------

  ==> Diagonalizing the Hamiltonian in the P space <==

  Initial P space dimension: 33
  Spin-complete dimension of the P space: 47 determinants

  Davidson-Liu solver algorithm using SigmaVectorSparseList sigma algorithm

  Performing full diagonalization of the H matrix
  Found 23 roots with 2S+1 = 1 *
  Found 18 roots with 2S+1 = 3
  Found 6 roots with 2S+1 = 5
  Time spent diagonalizing H:   0.001421 s

    P-space  CI Energy Root   0        = -39.794253187455 Eh =   0.0000 eV, S^2 = 0.000000


  ==> Finding the Q space <==

  Using SR screening algorithm
  Time spent forming F space:             0.001401
  Time spent merging thread F spaces:             0.000479
  Size of F space: 6867
  Time spent building sorting list: 0.000996
  Dimension of the PQ space:                  74
  Dimension of the PQ space (spin-complete) : 83
  Time spent building the model space: 0.005378

  ==> Diagonalizing the Hamiltonian in the P + Q space <==

  Number of reference roots: 1

  Davidson-Liu solver algorithm using SigmaVectorSparseList sigma algorithm

  Performing full diagonalization of the H matrix
  Found 39 roots with 2S+1 = 1 *
  Found 34 roots with 2S+1 = 3
  Found 10 roots with 2S+1 = 5
  Total time spent diagonalizing H:   0.002712 s

    PQ-space CI Energy Root   0        = -39.801059897783 Eh =   0.0000 eV, S^2 = 0.000000
    PQ-space CI Energy + EPT2 Root   0 = -39.806033398462 Eh =   0.0000 eV

  ***** Calculation Converged *****

  ==> ACI Natural Orbitals <==

        1A      2.000000      2A      1.986425      3A      1.980840  
        4A      1.978109      5A      1.976209      6A      0.022514  
        7A      0.020207      8A      0.018033      9A      0.017664  
  Saving root 0, ref_root is 0
  Number of old roots: 1
  Computing wavefunction for root 1

        ---------------------------------------------------------------
                      Adaptive Configuration Interaction
          written by Jeffrey B. Schriber and Francesco A. Evangelista
        ---------------------------------------------------------------

  ==> Reference Information <==

  There are 0 frozen orbitals.
  There are 9 active orbitals.


  ==> ACI Solver <==

    --------------------------------------------------------
    Ms                                                     0
    Diagonalization algorithm                         SPARSE
    Excited Algorithm                        ROOT_ORTHOGONALIZE
    Project out spin contaminants                       True
    Enforce spin completeness of basis                  True
    Enforce complete aimed selection                   False
    Multiroot averaging                              Average
    Sigma (Eh)                                     5.000e-03
    Gamma (Eh^(-1))                                1.000e+00
    Convergence threshold                          1.000e-09
    Multiplicity                                           1
    Symmetry                                               0
    Number of roots                                        1
    Root used for properties                               1
    Roots used for averaging                               2
    Root averaging offset                                  0
    --------------------------------------------------------
  Number of active orbitals: 9
  Number of active alpha electrons: 5
  Number of active beta electrons: 5
  |222220000>
  |222220000>
  Freezing alpha orbital 0
  Exciting electron from 0 to 5
  |-2222+000>
  |+2222-000>


  ---------------------------------- Cycle 0 -----------------------------------

  ==> Diagonalizing the Hamiltonian in the P space <==

  Initial P space dimension: 2
  Spin-complete dimension of the P space: 2 determinants

  Davidson-Liu solver algorithm using SigmaVectorSparseList sigma algorithm

  Performing full diagonalization of the H matrix
  Found 1 roots with 2S+1 = 1 *
  Found 1 roots with 2S+1 = 3
  Time spent diagonalizing H:   0.000116 s

    P-space  CI Energy Root   0        = -28.678809467275 Eh =   0.0000 eV, S^2 = 0.000000


  ==> Finding the Q space <==

  Using CORE screening algorithm
  Using 1 threads.
  Size of F space: 804
  Time spent building sorting list: 0.000142
  Dimension of the PQ space:                  156
  Dimension of the PQ space (spin-complete) : 242
  Time spent building the model space: 0.001305

  ==> Diagonalizing the Hamiltonian in the P + Q space <==

  Number of reference roots: 1

  Davidson-Liu solver algorithm using SigmaVectorSparseList sigma algorithm

  Spin-adaptation of the initial guess based on minimum spin-complete subset
  Initial guess determinants do not form a spin-complete set. 8 determinant(s) missing

  Guess determinants after screening: 34

  ==> Initial Guess <==

  Initial guess determinants:         34

  Classification of the initial guess solutions

  Number   2S+1   Selected
  ------------------------
    13       1       *
    17       3        
     4       5        
  ------------------------

    Spin    Root           Energy        <S^2>    Status
  -------------------------------------------------------
   triplet    0      -28.847637313727  +2.000000  removed
   singlet    0      -28.818778079822  -0.000000  added
  -------------------------------------------------------

  ==> Davidson-Liu Solver <==

    --------------------------------------------------------
    Print level                                      Default
    Energy convergence threshold                   1.000e-10
    Residual convergence threshold                 1.000e-06
    Schmidt orthogonality threshold                1.000e-12
    Schmidt discard threshold                      1.000e-07
    Size of the space                                    242
    Number of roots                                        1
    Maximum number of iterations                         500
    Collapse subspace size                                 2
    Maximum subspace size                                 10
    --------------------------------------------------------

  Davidson-Liu solver: adding 1 guess vectors
  Iteration     Average Energy            max(∆E)            max(Residual)  Vectors
  ---------------------------------------------------------------------------------
       0      -42.136674746240       42.136674746240        0.469020171517      1
       1      -42.216589312583        0.079914566343        0.093959251358      2
       2      -42.221066587321        0.004477274738        0.036066780331      3
       3      -42.221750580655        0.000683993334        0.010422617890      4
       4      -42.221799893549        0.000049312894        0.001974823981      5
       5      -42.221804065591        0.000004172042        0.001127682005      6
       6      -42.221804773618        0.000000708027        0.000287299875      7
       7      -42.221804827679        0.000000054061        0.000090706421      8
       8      -42.221804832386        0.000000004707        0.000015457495      9
       9      -42.221804832547        0.000000000161        0.000004043388     10
      10      -42.221804832556        0.000000000009        0.000001148400      3
      11      -42.221804832557        0.000000000001        0.000000334720      4
  ---------------------------------------------------------------------------------
  Davidson-Liu procedure took  0.011862 s
  Total time spent diagonalizing H:   0.015749 s

    PQ-space CI Energy Root   0        = -28.903908166139 Eh =   0.0000 eV, S^2 = 0.000000
    PQ-space CI Energy + EPT2 Root   0 = -28.908891215066 Eh =   0.0000 eV


  ==> Pruning the Q space <==

  Cycle 0 took: 0.017574 s


  ---------------------------------- Cycle 1 -----------------------------------

  ==> Diagonalizing the Hamiltonian in the P space <==

  Initial P space dimension: 94
  Spin-complete dimension of the P space: 154 determinants

  Davidson-Liu solver algorithm using SigmaVectorSparseList sigma algorithm

  Performing full diagonalization of the H matrix
  Found 51 roots with 2S+1 = 1 *
  Found 74 roots with 2S+1 = 3
  Found 26 roots with 2S+1 = 5
  Found 3 roots with 2S+1 = 7
  Time spent diagonalizing H:   0.007374 s

    P-space  CI Energy Root   0        = -28.897730623038 Eh =   0.0000 eV, S^2 = 0.000000


  ==> Finding the Q space <==

  Using CORE screening algorithm
  Using 1 threads.
  Size of F space: 7643
  Time spent building sorting list: 0.001396
  Dimension of the PQ space:                  307
  Dimension of the PQ space (spin-complete) : 502
  Time spent building the model space: 0.015937

  ==> Diagonalizing the Hamiltonian in the P + Q space <==

  Number of reference roots: 1

  Davidson-Liu solver algorithm using SigmaVectorSparseList sigma algorithm

  Spin-adaptation of the initial guess based on minimum spin-complete subset
  Initial guess determinants do not form a spin-complete set. 8 determinant(s) missing

  Guess determinants after screening: 34

  ==> Initial Guess <==

  Initial guess determinants:         34

  Classification of the initial guess solutions

  Number   2S+1   Selected
  ------------------------
    13       1       *
    17       3        
     4       5        
  ------------------------

    Spin    Root           Energy        <S^2>    Status
  -------------------------------------------------------
   triplet    0      -28.847770621236  +2.000000  removed
   singlet    0      -28.818883170556  -0.000000  added
  -------------------------------------------------------

  ==> Davidson-Liu Solver <==

    --------------------------------------------------------
    Print level                                      Default
    Energy convergence threshold                   1.000e-10
    Residual convergence threshold                 1.000e-06
    Schmidt orthogonality threshold                1.000e-12
    Schmidt discard threshold                      1.000e-07
    Size of the space                                    502
    Number of roots                                        1
    Maximum number of iterations                         500
    Collapse subspace size                                 2
    Maximum subspace size                                 10
    --------------------------------------------------------

  Davidson-Liu solver: adding 1 guess vectors
  Iteration     Average Energy            max(∆E)            max(Residual)  Vectors
  ---------------------------------------------------------------------------------
       0      -42.136779836975       42.136779836975        0.493097165515      1
       1      -42.227059069558        0.090279232583        0.127030934450      2
       2      -42.233588773199        0.006529703641        0.045806906747      3
       3      -42.234263973366        0.000675200167        0.017343104800      4
       4      -42.234366455584        0.000102482218        0.003742717966      5
       5      -42.234377434109        0.000010978526        0.001873329808      6
       6      -42.234379005792        0.000001571682        0.000582411326      7
       7      -42.234379190417        0.000000184626        0.000180022772      8
       8      -42.234379206304        0.000000015887        0.000060785701      9
       9      -42.234379208120        0.000000001815        0.000016557537     10
      10      -42.234379208261        0.000000000141        0.000005531874      3
      11      -42.234379208281        0.000000000020        0.000002037385      4
      12      -42.234379208283        0.000000000002        0.000000826029      5
  ---------------------------------------------------------------------------------
  Davidson-Liu procedure took  0.019799 s
  Total time spent diagonalizing H:   0.027135 s

    PQ-space CI Energy Root   0        = -28.916482541865 Eh =   0.0000 eV, S^2 = 0.000000
    PQ-space CI Energy + EPT2 Root   0 = -28.921464916250 Eh =   0.0000 eV


  ==> Pruning the Q space <==

  Cycle 1 took: 0.051461 s


  ---------------------------------- Cycle 2 -----------------------------------

  ==> Diagonalizing the Hamiltonian in the P space <==

  Initial P space dimension: 154
  Spin-complete dimension of the P space: 256 determinants
  Added 0 determinants from root 0

  Davidson-Liu solver algorithm using SigmaVectorSparseList sigma algorithm

  Spin-adaptation of the initial guess based on minimum spin-complete subset
  Initial guess determinants do not form a spin-complete set. 8 determinant(s) missing

  Guess determinants after screening: 34

  ==> Initial Guess <==

  Initial guess determinants:         34

  Classification of the initial guess solutions

  Number   2S+1   Selected
  ------------------------
    13       1       *
    17       3        
     4       5        
  ------------------------

    Spin    Root           Energy        <S^2>    Status
  -------------------------------------------------------
   triplet    0      -28.847770621236  +2.000000  removed
   singlet    0      -28.818883170556  -0.000000  added
  -------------------------------------------------------

  ==> Davidson-Liu Solver <==

    --------------------------------------------------------
    Print level                                      Default
    Energy convergence threshold                   1.000e-10
    Residual convergence threshold                 1.000e-06
    Schmidt orthogonality threshold                1.000e-12
    Schmidt discard threshold                      1.000e-07
    Size of the space                                    256
    Number of roots                                        1
    Maximum number of iterations                         500
    Collapse subspace size                                 2
    Maximum subspace size                                 10
    --------------------------------------------------------

  Davidson-Liu solver: adding 1 guess vectors
  Iteration     Average Energy            max(∆E)            max(Residual)  Vectors
  ---------------------------------------------------------------------------------
       0      -42.136779836975       42.136779836975        0.475289025591      1
       1      -42.220227186964        0.083447349989        0.107149672172      2
       2      -42.225527596591        0.005300409627        0.039545859940      3
       3      -42.226260306741        0.000732710150        0.012918625042      4
       4      -42.226330741194        0.000070434453        0.002356681709      5
       5      -42.226336082414        0.000005341220        0.001271373346      6
       6      -42.226336999366        0.000000916953        0.000312878060      7
       7      -42.226337071405        0.000000072038        0.000109142843      8
       8      -42.226337077664        0.000000006259        0.000020169986      9
       9      -42.226337077963        0.000000000299        0.000006488937     10
      10      -42.226337077982        0.000000000020        0.000001782666      3
      11      -42.226337077985        0.000000000003        0.000000569694      4
  ---------------------------------------------------------------------------------
  Davidson-Liu procedure took  0.009324 s
  Time spent diagonalizing H:   0.013563 s

    P-space  CI Energy Root   0        = -28.908440411567 Eh =   0.0000 eV, S^2 = 0.000000


  ==> Finding the Q space <==

  Using CORE screening algorithm
  Using 1 threads.
  Size of F space: 8543
  Time spent building sorting list: 0.001593
  Dimension of the PQ space:                  362
  Dimension of the PQ space (spin-complete) : 544
  Added 0 determinants from root 0
  Time spent building the model space: 0.023909

  ==> Diagonalizing the Hamiltonian in the P + Q space <==

  Number of reference roots: 1

  Davidson-Liu solver algorithm using SigmaVectorSparseList sigma algorithm

  Spin-adaptation of the initial guess based on minimum spin-complete subset
  Initial guess determinants do not form a spin-complete set. 14 determinant(s) missing

  Guess determinants after screening: 34

  ==> Initial Guess <==

  Initial guess determinants:         34

  Classification of the initial guess solutions

  Number   2S+1   Selected
  ------------------------
    13       1       *
    17       3        
     4       5        
  ------------------------

    Spin    Root           Energy        <S^2>    Status
  -------------------------------------------------------
   triplet    0      -28.847022386291  +2.000000  removed
   singlet    0      -28.818159154100  -0.000000  added
  -------------------------------------------------------

  ==> Davidson-Liu Solver <==

    --------------------------------------------------------
    Print level                                      Default
    Energy convergence threshold                   1.000e-10
    Residual convergence threshold                 1.000e-06
    Schmidt orthogonality threshold                1.000e-12
    Schmidt discard threshold                      1.000e-07
    Size of the space                                    544
    Number of roots                                        1
    Maximum number of iterations                         500
    Collapse subspace size                                 2
    Maximum subspace size                                 10
    --------------------------------------------------------

  Davidson-Liu solver: adding 1 guess vectors
  Iteration     Average Energy            max(∆E)            max(Residual)  Vectors
  ---------------------------------------------------------------------------------
       0      -42.136055820518       42.136055820518        0.494826483655      1
       1      -42.227843577329        0.091787756811        0.129215108555      2
       2      -42.234544293643        0.006700716314        0.045555238653      3
       3      -42.235201303205        0.000657009562        0.017236240410      4
       4      -42.235305272420        0.000103969215        0.003877481158      5
       5      -42.235318985358        0.000013712939        0.002368291823      6
       6      -42.235321984352        0.000002998994        0.000938288597      7
       7      -42.235322632289        0.000000647936        0.000479337713      8
       8      -42.235322748337        0.000000116049        0.000182741526      9
       9      -42.235322763920        0.000000015583        0.000049295759     10
      10      -42.235322765062        0.000000001141        0.000016675165      3
      11      -42.235322765251        0.000000000189        0.000007523820      4
      12      -42.235322765274        0.000000000024        0.000002848135      5
      13      -42.235322765277        0.000000000003        0.000001136884      6
      14      -42.235322765278        0.000000000001        0.000000475387      7
  ---------------------------------------------------------------------------------
  Davidson-Liu procedure took  0.022703 s
  Total time spent diagonalizing H:   0.030502 s

    PQ-space CI Energy Root   0        = -28.917426098860 Eh =   0.0000 eV, S^2 = 0.000000
    PQ-space CI Energy + EPT2 Root   0 = -28.922388186512 Eh =   0.0000 eV


  ==> Pruning the Q space <==

  Cycle 2 took: 0.069103 s


  ---------------------------------- Cycle 3 -----------------------------------

  ==> Diagonalizing the Hamiltonian in the P space <==

  Initial P space dimension: 166
  Spin-complete dimension of the P space: 288 determinants
  Added 0 determinants from root 0

  Davidson-Liu solver algorithm using SigmaVectorSparseList sigma algorithm

  Spin-adaptation of the initial guess based on minimum spin-complete subset
  Initial guess determinants do not form a spin-complete set. 14 determinant(s) missing

  Guess determinants after screening: 34

  ==> Initial Guess <==

  Initial guess determinants:         34

  Classification of the initial guess solutions

  Number   2S+1   Selected
  ------------------------
    13       1       *
    17       3        
     4       5        
  ------------------------

    Spin    Root           Energy        <S^2>    Status
  -------------------------------------------------------
   triplet    0      -28.847022386291  +2.000000  removed
   singlet    0      -28.818159154100  -0.000000  added
  -------------------------------------------------------

  ==> Davidson-Liu Solver <==

    --------------------------------------------------------
    Print level                                      Default
    Energy convergence threshold                   1.000e-10
    Residual convergence threshold                 1.000e-06
    Schmidt orthogonality threshold                1.000e-12
    Schmidt discard threshold                      1.000e-07
    Size of the space                                    288
    Number of roots                                        1
    Maximum number of iterations                         500
    Collapse subspace size                                 2
    Maximum subspace size                                 10
    --------------------------------------------------------

  Davidson-Liu solver: adding 1 guess vectors
  Iteration     Average Energy            max(∆E)            max(Residual)  Vectors
  ---------------------------------------------------------------------------------
       0      -42.136055820518       42.136055820518        0.479109864312      1
       1      -42.221658865772        0.085603045254        0.108335807277      2
       2      -42.227013064312        0.005354198540        0.039837262043      3
       3      -42.227719648279        0.000706583967        0.013027525417      4
       4      -42.227789037035        0.000069388756        0.002541266010      5
       5      -42.227796058712        0.000007021677        0.001718625822      6
       6      -42.227798000233        0.000001941521        0.000657024209      7
       7      -42.227798373602        0.000000373369        0.000303563295      8
       8      -42.227798427071        0.000000053469        0.000079869560      9
       9      -42.227798431629        0.000000004558        0.000024177596     10
      10      -42.227798431905        0.000000000276        0.000006889153      3
      11      -42.227798431943        0.000000000038        0.000002479504      4
      12      -42.227798431946        0.000000000003        0.000000693852      5
  ---------------------------------------------------------------------------------
  Davidson-Liu procedure took  0.010721 s
  Time spent diagonalizing H:   0.015130 s

    P-space  CI Energy Root   0        = -28.909901765527 Eh =   0.0000 eV, S^2 = 0.000000


  ==> Finding the Q space <==

  Using CORE screening algorithm
  Using 1 threads.
  Size of F space: 8895
  Time spent building sorting list: 0.001561
  Dimension of the PQ space:                  377
  Dimension of the PQ space (spin-complete) : 538
  Added 0 determinants from root 0
  Time spent building the model space: 0.023235

  ==> Diagonalizing the Hamiltonian in the P + Q space <==

  Number of reference roots: 1

  Davidson-Liu solver algorithm using SigmaVectorSparseList sigma algorithm

  Spin-adaptation of the initial guess based on minimum spin-complete subset
  Initial guess determinants do not form a spin-complete set. 14 determinant(s) missing

  Guess determinants after screening: 34

  ==> Initial Guess <==

  Initial guess determinants:         34

  Classification of the initial guess solutions

  Number   2S+1   Selected
  ------------------------
    13       1       *
    17       3        
     4       5        
  ------------------------

    Spin    Root           Energy        <S^2>    Status
  -------------------------------------------------------
   triplet    0      -28.847022386291  +2.000000  removed
   singlet    0      -28.818159154100  -0.000000  added
  -------------------------------------------------------

  ==> Davidson-Liu Solver <==

    --------------------------------------------------------
    Print level                                      Default
    Energy convergence threshold                   1.000e-10
    Residual convergence threshold                 1.000e-06
    Schmidt orthogonality threshold                1.000e-12
    Schmidt discard threshold                      1.000e-07
    Size of the space                                    538
    Number of roots                                        1
    Maximum number of iterations                         500
    Collapse subspace size                                 2
    Maximum subspace size                                 10
    --------------------------------------------------------

  Davidson-Liu solver: adding 1 guess vectors
  Iteration     Average Energy            max(∆E)            max(Residual)  Vectors
  ---------------------------------------------------------------------------------
       0      -42.136055820518       42.136055820518        0.494826483655      1
       1      -42.227843576074        0.091787755556        0.127922314979      2
       2      -42.234408276276        0.006564700202        0.045196743170      3
       3      -42.235059763978        0.000651487702        0.017040028942      4
       4      -42.235163340031        0.000103576053        0.003937810467      5
       5      -42.235177630255        0.000014290224        0.002447262718      6
       6      -42.235180809862        0.000003179606        0.000963549514      7
       7      -42.235181493953        0.000000684091        0.000483408348      8
       8      -42.235181612195        0.000000118242        0.000184403208      9
       9      -42.235181628502        0.000000016307        0.000052741877     10
      10      -42.235181629795        0.000000001293        0.000018943205      3
      11      -42.235181630042        0.000000000247        0.000007748648      4
      12      -42.235181630072        0.000000000029        0.000002895511      5
      13      -42.235181630075        0.000000000003        0.000001226211      6
      14      -42.235181630076        0.000000000001        0.000000489525      7
  ---------------------------------------------------------------------------------
  Davidson-Liu procedure took  0.021820 s
  Total time spent diagonalizing H:   0.029318 s

    PQ-space CI Energy Root   0        = -28.917284963658 Eh =   0.0000 eV, S^2 = 0.000000
    PQ-space CI Energy + EPT2 Root   0 = -28.922257434907 Eh =   0.0000 eV


  ==> Pruning the Q space <==

  Cycle 3 took: 0.068791 s


  ---------------------------------- Cycle 4 -----------------------------------

  ==> Diagonalizing the Hamiltonian in the P space <==

  Initial P space dimension: 165
  Spin-complete dimension of the P space: 288 determinants
  Added 0 determinants from root 0

  Davidson-Liu solver algorithm using SigmaVectorSparseList sigma algorithm

  Spin-adaptation of the initial guess based on minimum spin-complete subset
  Initial guess determinants do not form a spin-complete set. 14 determinant(s) missing

  Guess determinants after screening: 34

  ==> Initial Guess <==

  Initial guess determinants:         34

  Classification of the initial guess solutions

  Number   2S+1   Selected
  ------------------------
    13       1       *
    17       3        
     4       5        
  ------------------------

    Spin    Root           Energy        <S^2>    Status
  -------------------------------------------------------
   triplet    0      -28.847022386291  +2.000000  removed
   singlet    0      -28.818159154100  -0.000000  added
  -------------------------------------------------------

  ==> Davidson-Liu Solver <==

    --------------------------------------------------------
    Print level                                      Default
    Energy convergence threshold                   1.000e-10
    Residual convergence threshold                 1.000e-06
    Schmidt orthogonality threshold                1.000e-12
    Schmidt discard threshold                      1.000e-07
    Size of the space                                    288
    Number of roots                                        1
    Maximum number of iterations                         500
    Collapse subspace size                                 2
    Maximum subspace size                                 10
    --------------------------------------------------------

  Davidson-Liu solver: adding 1 guess vectors
  Iteration     Average Energy            max(∆E)            max(Residual)  Vectors
  ---------------------------------------------------------------------------------
       0      -42.136055820518       42.136055820518        0.479109864312      1
       1      -42.221658865772        0.085603045254        0.108335807277      2
       2      -42.227013064312        0.005354198540        0.039837262043      3
       3      -42.227719648279        0.000706583967        0.013027525417      4
       4      -42.227789037035        0.000069388756        0.002541266010      5
       5      -42.227796058712        0.000007021677        0.001718625822      6
       6      -42.227798000233        0.000001941522        0.000657024209      7
       7      -42.227798373602        0.000000373369        0.000303563295      8
       8      -42.227798427071        0.000000053469        0.000079869560      9
       9      -42.227798431629        0.000000004558        0.000024177596     10
      10      -42.227798431905        0.000000000276        0.000006889153      3
      11      -42.227798431943        0.000000000038        0.000002479504      4
      12      -42.227798431946        0.000000000003        0.000000693852      5
  ---------------------------------------------------------------------------------
  Davidson-Liu procedure took  0.010419 s
  Time spent diagonalizing H:   0.014889 s

    P-space  CI Energy Root   0        = -28.909901765527 Eh =   0.0000 eV, S^2 = 0.000000


  ==> Finding the Q space <==

  Using CORE screening algorithm
  Using 1 threads.
  Size of F space: 8895
  Time spent building sorting list: 0.001551
  Dimension of the PQ space:                  377
  Dimension of the PQ space (spin-complete) : 538
  Added 0 determinants from root 0
  Time spent building the model space: 0.024973

  ==> Diagonalizing the Hamiltonian in the P + Q space <==

  Number of reference roots: 1

  Davidson-Liu solver algorithm using SigmaVectorSparseList sigma algorithm

  Spin-adaptation of the initial guess based on minimum spin-complete subset
  Initial guess determinants do not form a spin-complete set. 14 determinant(s) missing

  Guess determinants after screening: 34

  ==> Initial Guess <==

  Initial guess determinants:         34

  Classification of the initial guess solutions

  Number   2S+1   Selected
  ------------------------
    13       1       *
    17       3        
     4       5        
  ------------------------

    Spin    Root           Energy        <S^2>    Status
  -------------------------------------------------------
   triplet    0      -28.847022386291  +2.000000  removed
   singlet    0      -28.818159154100  -0.000000  added
  -------------------------------------------------------

  ==> Davidson-Liu Solver <==

    --------------------------------------------------------
    Print level                                      Default
    Energy convergence threshold                   1.000e-10
    Residual convergence threshold                 1.000e-06
    Schmidt orthogonality threshold                1.000e-12
    Schmidt discard threshold                      1.000e-07
    Size of the space                                    538
    Number of roots                                        1
    Maximum number of iterations                         500
    Collapse subspace size                                 2
    Maximum subspace size                                 10
    --------------------------------------------------------

  Davidson-Liu solver: adding 1 guess vectors
  Iteration     Average Energy            max(∆E)            max(Residual)  Vectors
  ---------------------------------------------------------------------------------
       0      -42.136055820518       42.136055820518        0.494826483655      1
       1      -42.227843576074        0.091787755556        0.127922314979      2
       2      -42.234408276276        0.006564700202        0.045196743170      3
       3      -42.235059763978        0.000651487702        0.017040028942      4
       4      -42.235163340031        0.000103576053        0.003937810467      5
       5      -42.235177630255        0.000014290224        0.002447262718      6
       6      -42.235180809862        0.000003179606        0.000963549514      7
       7      -42.235181493953        0.000000684091        0.000483408348      8
       8      -42.235181612195        0.000000118242        0.000184403208      9
       9      -42.235181628502        0.000000016307        0.000052741877     10
      10      -42.235181629795        0.000000001293        0.000018943205      3
      11      -42.235181630042        0.000000000247        0.000007748648      4
      12      -42.235181630072        0.000000000029        0.000002895511      5
      13      -42.235181630075        0.000000000003        0.000001226211      6
      14      -42.235181630076        0.000000000001        0.000000489525      7
  ---------------------------------------------------------------------------------
  Davidson-Liu procedure took  0.025379 s
  Total time spent diagonalizing H:   0.033887 s

    PQ-space CI Energy Root   0        = -28.917284963658 Eh =   0.0000 eV, S^2 = 0.000000
    PQ-space CI Energy + EPT2 Root   0 = -28.922257434907 Eh =   0.0000 eV

  ***** Calculation Converged *****

  ==> ACI Natural Orbitals <==

        1A      1.989438      2A      1.982848      3A      1.973827  
        4A      1.971694      5A      1.000052      6A      0.996330  
        7A      0.034181      8A      0.029796      9A      0.021834  
  Saving root 1, ref_root is 0
  Number of old roots: 2

  ==> Excited state solver summary <==

  Iterations required:                         4
  Dimension of optimized determinant space:    538

  * Selected-CI Energy Root   0        = -39.801059897783 Eh =   0.0000 eV
  * Selected-CI Energy Root   0 + EPT2 = -39.806033398462 Eh =   0.0000 eV
  * Selected-CI Energy Root   1        = -28.917284963658 Eh = 296.1626 eV
  * Selected-CI Energy Root   1 + EPT2 = -28.922257434907 Eh = 296.1626 eV

  Saving information for root: 1

  ==> Energy Summary <==

    Multi.(2ms)  Irrep.  No.               Energy      <S^2>
    --------------------------------------------------------
       1  (  0)     A     0      -39.801059897783   0.000000
       1  (  0)     A     1      -28.917284963658   0.000000
    --------------------------------------------------------
  1-RDM  took 0.002681 s (determinant)
  1-RDM  took 0.002364 s (determinant)

  ==> Dipole Moments [e a0] (Nuclear + Electronic) for Singlet (Ms = 0) A <==

       State           DM_X           DM_Y           DM_Z           |DM|
    --------------------------------------------------------------------
          0A     0.57365657    -0.10136415    -0.00007263     0.58254318
          1A    -0.17605852    -0.00412937     0.00001425     0.17610694
    --------------------------------------------------------------------
     Nuclear    -0.00000774     0.00000406     0.00000000     0.00000874
    --------------------------------------------------------------------
  1-RDM  took 0.002348 s (determinant)
  1-RDM  took 0.002449 s (determinant)

  ==> Quadrupole Moments [e a0^2] (Nuclear + Electronic) for Singlet (Ms = 0) A <==

       State          QM_XX          QM_XY          QM_XZ          QM_YY          QM_YZ          QM_ZZ
    --------------------------------------------------------------------------------------------------
          0A    -7.33569607    -0.10887909    -0.00008539    -5.25427238    -0.00012134    -5.58191097
          1A    -7.67588445    -0.07631438    -0.00004516    -6.77420537    -0.00005215    -6.95491022
    --------------------------------------------------------------------------------------------------
     Nuclear     5.75728039    -0.00000803     0.00000000     5.75731026     0.00000000     5.75730265
    --------------------------------------------------------------------------------------------------
  1-RDM  took 0.002442 s (determinant)
  2-RDMS took 0.006935 s (determinant)

--------------------------------------------------------------------------------
               Selected Configuration Interaction Excited States
  written by Jeffrey B. Schriber, Tianyuan Zhang, and Francesco A. Evangelista
--------------------------------------------------------------------------------

  ==> Calculation Information <==

  -----------------------------------------------------------------
    Multiplicity                             1    
    Symmetry                                 0    
    Number of roots                          2    
    Ms                                       0
    Excited Algorithm                        ROOT_ORTHOGONALIZE
  -----------------------------------------------------------------
  Using 1 thread(s)
  Computing wavefunction for root 0

        ---------------------------------------------------------------
                      Adaptive Configuration Interaction
          written by Jeffrey B. Schriber and Francesco A. Evangelista
        ---------------------------------------------------------------

  ==> Reference Information <==

  There are 0 frozen orbitals.
  There are 9 active orbitals.


  ==> ACI Solver <==

    --------------------------------------------------------
    Ms                                                     0
    Diagonalization algorithm                         SPARSE
    Excited Algorithm                        ROOT_ORTHOGONALIZE
    Project out spin contaminants                       True
    Enforce spin completeness of basis                  True
    Enforce complete aimed selection                   False
    Multiroot averaging                              Average
    Sigma (Eh)                                     5.000e-03
    Gamma (Eh^(-1))                                1.000e+00
    Convergence threshold                          1.000e-09
    Multiplicity                                           1
    Symmetry                                               0
    Number of roots                                        1
    Root used for properties                               0
    Roots used for averaging                               2
    Root averaging offset                                  0
    --------------------------------------------------------
  Number of active orbitals: 9
  Number of active alpha electrons: 5
  Number of active beta electrons: 5
  |222220000>


  ---------------------------------- Cycle 0 -----------------------------------

  ==> Diagonalizing the Hamiltonian in the P space <==

  Initial P space dimension: 1
  Spin-complete dimension of the P space: 1 determinants

  Davidson-Liu solver algorithm using SigmaVectorSparseList sigma algorithm

  Performing full diagonalization of the H matrix
  Found 1 roots with 2S+1 = 1 *
  Time spent diagonalizing H:   0.000064 s

    P-space  CI Energy Root   0        = -39.725953994599 Eh =   0.0000 eV, S^2 = 0.000000


  ==> Finding the Q space <==

  Using SR screening algorithm
  Time spent forming F space:             0.000046
  Time spent merging thread F spaces:             0.000031
  Size of F space: 536
  Time spent building sorting list: 0.000075
  Dimension of the PQ space:                  64
  Dimension of the PQ space (spin-complete) : 71
  Time spent building the model space: 0.000304

  ==> Diagonalizing the Hamiltonian in the P + Q space <==

  Number of reference roots: 1

  Davidson-Liu solver algorithm using SigmaVectorSparseList sigma algorithm

  Performing full diagonalization of the H matrix
  Found 36 roots with 2S+1 = 1 *
  Found 27 roots with 2S+1 = 3
  Found 8 roots with 2S+1 = 5
  Total time spent diagonalizing H:   0.002456 s

    PQ-space CI Energy Root   0        = -39.799474172788 Eh =   0.0000 eV, S^2 = 0.000000
    PQ-space CI Energy + EPT2 Root   0 = -39.804402913992 Eh =   0.0000 eV


  ==> Pruning the Q space <==

  Cycle 0 took: 0.003018 s


  ---------------------------------- Cycle 1 -----------------------------------

  ==> Diagonalizing the Hamiltonian in the P space <==

  Initial P space dimension: 30
  Spin-complete dimension of the P space: 44 determinants

  Davidson-Liu solver algorithm using SigmaVectorSparseList sigma algorithm

  Performing full diagonalization of the H matrix
  Found 20 roots with 2S+1 = 1 *
  Found 18 roots with 2S+1 = 3
  Found 6 roots with 2S+1 = 5
  Time spent diagonalizing H:   0.001275 s

    P-space  CI Energy Root   0        = -39.791809797399 Eh =   0.0000 eV, S^2 = 0.000000


  ==> Finding the Q space <==

  Using SR screening algorithm
  Time spent forming F space:             0.001339
  Time spent merging thread F spaces:             0.000450
  Size of F space: 6566
  Time spent building sorting list: 0.000967
  Dimension of the PQ space:                  74
  Dimension of the PQ space (spin-complete) : 83
  Time spent building the model space: 0.004947

  ==> Diagonalizing the Hamiltonian in the P + Q space <==

  Number of reference roots: 1

  Davidson-Liu solver algorithm using SigmaVectorSparseList sigma algorithm

  Performing full diagonalization of the H matrix
  Found 39 roots with 2S+1 = 1 *
  Found 34 roots with 2S+1 = 3
  Found 10 roots with 2S+1 = 5
  Total time spent diagonalizing H:   0.002534 s

    PQ-space CI Energy Root   0        = -39.801059897783 Eh =   0.0000 eV, S^2 = 0.000000
    PQ-space CI Energy + EPT2 Root   0 = -39.805961784015 Eh =   0.0000 eV


  ==> Pruning the Q space <==

  Cycle 1 took: 0.009056 s


  ---------------------------------- Cycle 2 -----------------------------------

  ==> Diagonalizing the Hamiltonian in the P space <==

  Initial P space dimension: 33
  Spin-complete dimension of the P space: 47 determinants

  Davidson-Liu solver algorithm using SigmaVectorSparseList sigma algorithm

  Performing full diagonalization of the H matrix
  Found 23 roots with 2S+1 = 1 *
  Found 18 roots with 2S+1 = 3
  Found 6 roots with 2S+1 = 5
  Time spent diagonalizing H:   0.001317 s

    P-space  CI Energy Root   0        = -39.794253187455 Eh =   0.0000 eV, S^2 = 0.000000


  ==> Finding the Q space <==

  Using SR screening algorithm
  Time spent forming F space:             0.001357
  Time spent merging thread F spaces:             0.000502
  Size of F space: 6867
  Time spent building sorting list: 0.000997
  Dimension of the PQ space:                  74
  Dimension of the PQ space (spin-complete) : 83
  Time spent building the model space: 0.005412

  ==> Diagonalizing the Hamiltonian in the P + Q space <==

  Number of reference roots: 1

  Davidson-Liu solver algorithm using SigmaVectorSparseList sigma algorithm

  Performing full diagonalization of the H matrix
  Found 39 roots with 2S+1 = 1 *
  Found 34 roots with 2S+1 = 3
  Found 10 roots with 2S+1 = 5
  Total time spent diagonalizing H:   0.002693 s

    PQ-space CI Energy Root   0        = -39.801059897783 Eh =   0.0000 eV, S^2 = 0.000000
    PQ-space CI Energy + EPT2 Root   0 = -39.806033398462 Eh =   0.0000 eV

  ***** Calculation Converged *****

  ==> ACI Natural Orbitals <==

        1A      2.000000      2A      1.986425      3A      1.980840  
        4A      1.978109      5A      1.976209      6A      0.022514  
        7A      0.020207      8A      0.018033      9A      0.017664  
  Saving root 0, ref_root is 0
  Number of old roots: 1
  Computing wavefunction for root 1

        ---------------------------------------------------------------
                      Adaptive Configuration Interaction
          written by Jeffrey B. Schriber and Francesco A. Evangelista
        ---------------------------------------------------------------

  ==> Reference Information <==

  There are 0 frozen orbitals.
  There are 9 active orbitals.


  ==> ACI Solver <==

    --------------------------------------------------------
    Ms                                                     0
    Diagonalization algorithm                         SPARSE
    Excited Algorithm                        ROOT_ORTHOGONALIZE
    Project out spin contaminants                       True
    Enforce spin completeness of basis                  True
    Enforce complete aimed selection                   False
    Multiroot averaging                              Average
    Sigma (Eh)                                     5.000e-03
    Gamma (Eh^(-1))                                1.000e+00
    Convergence threshold                          1.000e-09
    Multiplicity                                           1
    Symmetry                                               0
    Number of roots                                        1
    Root used for properties                               1
    Roots used for averaging                               2
    Root averaging offset                                  0
    --------------------------------------------------------
  Number of active orbitals: 9
  Number of active alpha electrons: 5
  Number of active beta electrons: 5
  |222220000>
  |222220000>
  Freezing alpha orbital 0
  Exciting electron from 0 to 5
  |-2222+000>
  |+2222-000>


  ---------------------------------- Cycle 0 -----------------------------------

  ==> Diagonalizing the Hamiltonian in the P space <==

  Initial P space dimension: 2
  Spin-complete dimension of the P space: 2 determinants

  Davidson-Liu solver algorithm using SigmaVectorSparseList sigma algorithm

  Performing full diagonalization of the H matrix
  Found 1 roots with 2S+1 = 1 *
  Found 1 roots with 2S+1 = 3
  Time spent diagonalizing H:   0.000095 s

    P-space  CI Energy Root   0        = -28.678809467275 Eh =   0.0000 eV, S^2 = 0.000000


  ==> Finding the Q space <==

  Using CORE screening algorithm
  Using 1 threads.
  Size of F space: 804
  Time spent building sorting list: 0.000191
  Dimension of the PQ space:                  156
  Dimension of the PQ space (spin-complete) : 242
  Time spent building the model space: 0.000734

  ==> Diagonalizing the Hamiltonian in the P + Q space <==

  Number of reference roots: 1

  Davidson-Liu solver algorithm using SigmaVectorSparseList sigma algorithm

  Spin-adaptation of the initial guess based on minimum spin-complete subset
  Initial guess determinants do not form a spin-complete set. 8 determinant(s) missing

  Guess determinants after screening: 34

  ==> Initial Guess <==

  Initial guess determinants:         34

  Classification of the initial guess solutions

  Number   2S+1   Selected
  ------------------------
    13       1       *
    17       3        
     4       5        
  ------------------------

    Spin    Root           Energy        <S^2>    Status
  -------------------------------------------------------
   triplet    0      -28.847637313727  +2.000000  removed
   singlet    0      -28.818778079822  -0.000000  added
  -------------------------------------------------------

  ==> Davidson-Liu Solver <==

    --------------------------------------------------------
    Print level                                      Default
    Energy convergence threshold                   1.000e-10
    Residual convergence threshold                 1.000e-06
    Schmidt orthogonality threshold                1.000e-12
    Schmidt discard threshold                      1.000e-07
    Size of the space                                    242
    Number of roots                                        1
    Maximum number of iterations                         500
    Collapse subspace size                                 2
    Maximum subspace size                                 10
    --------------------------------------------------------

  Davidson-Liu solver: adding 1 guess vectors
  Iteration     Average Energy            max(∆E)            max(Residual)  Vectors
  ---------------------------------------------------------------------------------
       0      -42.136674746240       42.136674746240        0.469020171517      1
       1      -42.216589312583        0.079914566343        0.093959251358      2
       2      -42.221066587321        0.004477274738        0.036066780331      3
       3      -42.221750580655        0.000683993334        0.010422617890      4
       4      -42.221799893549        0.000049312894        0.001974823981      5
       5      -42.221804065591        0.000004172042        0.001127682005      6
       6      -42.221804773618        0.000000708027        0.000287299875      7
       7      -42.221804827679        0.000000054061        0.000090706421      8
       8      -42.221804832386        0.000000004707        0.000015457495      9
       9      -42.221804832547        0.000000000161        0.000004043388     10
      10      -42.221804832556        0.000000000009        0.000001148400      3
      11      -42.221804832557        0.000000000001        0.000000334720      4
  ---------------------------------------------------------------------------------
  Davidson-Liu procedure took  0.009264 s
  Total time spent diagonalizing H:   0.013268 s

    PQ-space CI Energy Root   0        = -28.903908166139 Eh =   0.0000 eV, S^2 = 0.000000
    PQ-space CI Energy + EPT2 Root   0 = -28.908891215066 Eh =   0.0000 eV


  ==> Pruning the Q space <==

  Cycle 0 took: 0.014517 s


  ---------------------------------- Cycle 1 -----------------------------------

  ==> Diagonalizing the Hamiltonian in the P space <==

  Initial P space dimension: 94
  Spin-complete dimension of the P space: 154 determinants

  Davidson-Liu solver algorithm using SigmaVectorSparseList sigma algorithm

  Performing full diagonalization of the H matrix
  Found 51 roots with 2S+1 = 1 *
  Found 74 roots with 2S+1 = 3
  Found 26 roots with 2S+1 = 5
  Found 3 roots with 2S+1 = 7
  Time spent diagonalizing H:   0.007587 s

    P-space  CI Energy Root   0        = -28.897730623038 Eh =   0.0000 eV, S^2 = 0.000000


  ==> Finding the Q space <==

  Using CORE screening algorithm
  Using 1 threads.
  Size of F space: 7643
  Time spent building sorting list: 0.001552
  Dimension of the PQ space:                  307
  Dimension of the PQ space (spin-complete) : 502
  Time spent building the model space: 0.015550

  ==> Diagonalizing the Hamiltonian in the P + Q space <==

  Number of reference roots: 1

  Davidson-Liu solver algorithm using SigmaVectorSparseList sigma algorithm

  Spin-adaptation of the initial guess based on minimum spin-complete subset
  Initial guess determinants do not form a spin-complete set. 8 determinant(s) missing

  Guess determinants after screening: 34

  ==> Initial Guess <==

  Initial guess determinants:         34

  Classification of the initial guess solutions

  Number   2S+1   Selected
  ------------------------
    13       1       *
    17       3        
     4       5        
  ------------------------

    Spin    Root           Energy        <S^2>    Status
  -------------------------------------------------------
   triplet    0      -28.847770621236  +2.000000  removed
   singlet    0      -28.818883170556  -0.000000  added
  -------------------------------------------------------

  ==> Davidson-Liu Solver <==

    --------------------------------------------------------
    Print level                                      Default
    Energy convergence threshold                   1.000e-10
    Residual convergence threshold                 1.000e-06
    Schmidt orthogonality threshold                1.000e-12
    Schmidt discard threshold                      1.000e-07
    Size of the space                                    502
    Number of roots                                        1
    Maximum number of iterations                         500
    Collapse subspace size                                 2
    Maximum subspace size                                 10
    --------------------------------------------------------

  Davidson-Liu solver: adding 1 guess vectors
  Iteration     Average Energy            max(∆E)            max(Residual)  Vectors
  ---------------------------------------------------------------------------------
       0      -42.136779836975       42.136779836975        0.493097165515      1
       1      -42.227059069558        0.090279232583        0.127030934450      2
       2      -42.233588773199        0.006529703641        0.045806906747      3
       3      -42.234263973366        0.000675200167        0.017343104800      4
       4      -42.234366455584        0.000102482218        0.003742717966      5
       5      -42.234377434109        0.000010978526        0.001873329808      6
       6      -42.234379005792        0.000001571682        0.000582411326      7
       7      -42.234379190417        0.000000184626        0.000180022772      8
       8      -42.234379206304        0.000000015887        0.000060785701      9
       9      -42.234379208120        0.000000001815        0.000016557537     10
      10      -42.234379208261        0.000000000141        0.000005531874      3
      11      -42.234379208281        0.000000000020        0.000002037385      4
      12      -42.234379208283        0.000000000002        0.000000826029      5
  ---------------------------------------------------------------------------------
  Davidson-Liu procedure took  0.019125 s
  Total time spent diagonalizing H:   0.026697 s

    PQ-space CI Energy Root   0        = -28.916482541865 Eh =   0.0000 eV, S^2 = 0.000000
    PQ-space CI Energy + EPT2 Root   0 = -28.921464916250 Eh =   0.0000 eV


  ==> Pruning the Q space <==

  Cycle 1 took: 0.050816 s


  ---------------------------------- Cycle 2 -----------------------------------

  ==> Diagonalizing the Hamiltonian in the P space <==

  Initial P space dimension: 154
  Spin-complete dimension of the P space: 256 determinants
  Added 0 determinants from root 0

  Davidson-Liu solver algorithm using SigmaVectorSparseList sigma algorithm

  Spin-adaptation of the initial guess based on minimum spin-complete subset
  Initial guess determinants do not form a spin-complete set. 8 determinant(s) missing

  Guess determinants after screening: 34

  ==> Initial Guess <==

  Initial guess determinants:         34

  Classification of the initial guess solutions

  Number   2S+1   Selected
  ------------------------
    13       1       *
    17       3        
     4       5        
  ------------------------

    Spin    Root           Energy        <S^2>    Status
  -------------------------------------------------------
   triplet    0      -28.847770621236  +2.000000  removed
   singlet    0      -28.818883170556  -0.000000  added
  -------------------------------------------------------

  ==> Davidson-Liu Solver <==

    --------------------------------------------------------
    Print level                                      Default
    Energy convergence threshold                   1.000e-10
    Residual convergence threshold                 1.000e-06
    Schmidt orthogonality threshold                1.000e-12
    Schmidt discard threshold                      1.000e-07
    Size of the space                                    256
    Number of roots                                        1
    Maximum number of iterations                         500
    Collapse subspace size                                 2
    Maximum subspace size                                 10
    --------------------------------------------------------

  Davidson-Liu solver: adding 1 guess vectors
  Iteration     Average Energy            max(∆E)            max(Residual)  Vectors
  ---------------------------------------------------------------------------------
       0      -42.136779836975       42.136779836975        0.475289025591      1
       1      -42.220227186964        0.083447349989        0.107149672172      2
       2      -42.225527596591        0.005300409627        0.039545859940      3
       3      -42.226260306741        0.000732710150        0.012918625042      4
       4      -42.226330741194        0.000070434453        0.002356681709      5
       5      -42.226336082414        0.000005341220        0.001271373346      6
       6      -42.226336999366        0.000000916953        0.000312878060      7
       7      -42.226337071405        0.000000072038        0.000109142843      8
       8      -42.226337077664        0.000000006259        0.000020169986      9
       9      -42.226337077963        0.000000000299        0.000006488937     10
      10      -42.226337077982        0.000000000020        0.000001782666      3
      11      -42.226337077985        0.000000000003        0.000000569694      4
  ---------------------------------------------------------------------------------
  Davidson-Liu procedure took  0.009543 s
  Time spent diagonalizing H:   0.013573 s

    P-space  CI Energy Root   0        = -28.908440411567 Eh =   0.0000 eV, S^2 = 0.000000


  ==> Finding the Q space <==

  Using CORE screening algorithm
  Using 1 threads.
  Size of F space: 8543
  Time spent building sorting list: 0.001566
  Dimension of the PQ space:                  362
  Dimension of the PQ space (spin-complete) : 544
  Added 0 determinants from root 0
  Time spent building the model space: 0.022222

  ==> Diagonalizing the Hamiltonian in the P + Q space <==

  Number of reference roots: 1

  Davidson-Liu solver algorithm using SigmaVectorSparseList sigma algorithm

  Spin-adaptation of the initial guess based on minimum spin-complete subset
  Initial guess determinants do not form a spin-complete set. 14 determinant(s) missing

  Guess determinants after screening: 34

  ==> Initial Guess <==

  Initial guess determinants:         34

  Classification of the initial guess solutions

  Number   2S+1   Selected
  ------------------------
    13       1       *
    17       3        
     4       5        
  ------------------------

[...]
    Schmidt orthogonality threshold                1.000e-12
    Schmidt discard threshold                      1.000e-07
    Size of the space                                    544
    Number of roots                                        1
    Maximum number of iterations                         500
    Collapse subspace size                                 2
    Maximum subspace size                                 10
    --------------------------------------------------------

  Davidson-Liu solver: adding 1 guess vectors
  Iteration     Average Energy            max(∆E)            max(Residual)  Vectors
  ---------------------------------------------------------------------------------
       0      -42.136055820518       42.136055820518        0.494826483655      1
       1      -42.227843577329        0.091787756811        0.129215108555      2
       2      -42.234544293643        0.006700716314        0.045555238653      3
       3      -42.235201303205        0.000657009562        0.017236240410      4
       4      -42.235305272420        0.000103969215        0.003877481158      5
       5      -42.235318985358        0.000013712939        0.002368291823      6
       6      -42.235321984352        0.000002998994        0.000938288597      7
       7      -42.235322632289        0.000000647936        0.000479337713      8
       8      -42.235322748337        0.000000116049        0.000182741526      9
       9      -42.235322763920        0.000000015583        0.000049295759     10
      10      -42.235322765062        0.000000001141        0.000016675165      3
      11      -42.235322765251        0.000000000189        0.000007523820      4
      12      -42.235322765274        0.000000000024        0.000002848135      5
      13      -42.235322765277        0.000000000003        0.000001136884      6
      14      -42.235322765278        0.000000000001        0.000000475387      7
  ---------------------------------------------------------------------------------
  Davidson-Liu procedure took  0.022773 s
  Total time spent diagonalizing H:   0.030331 s

    PQ-space CI Energy Root   0        = -28.917426098860 Eh =   0.0000 eV, S^2 = 0.000000
    PQ-space CI Energy + EPT2 Root   0 = -28.922388186512 Eh =   0.0000 eV


  ==> Pruning the Q space <==

  Cycle 2 took: 0.067213 s


  ---------------------------------- Cycle 3 -----------------------------------

  ==> Diagonalizing the Hamiltonian in the P space <==

  Initial P space dimension: 166
  Spin-complete dimension of the P space: 288 determinants
  Added 0 determinants from root 0

  Davidson-Liu solver algorithm using SigmaVectorSparseList sigma algorithm

  Spin-adaptation of the initial guess based on minimum spin-complete subset
  Initial guess determinants do not form a spin-complete set. 14 determinant(s) missing

  Guess determinants after screening: 34

  ==> Initial Guess <==

  Initial guess determinants:         34

  Classification of the initial guess solutions

  Number   2S+1   Selected
  ------------------------
    13       1       *
    17       3        
     4       5        
  ------------------------

    Spin    Root           Energy        <S^2>    Status
  -------------------------------------------------------
   triplet    0      -28.847022386291  +2.000000  removed
   singlet    0      -28.818159154100  -0.000000  added
  -------------------------------------------------------

  ==> Davidson-Liu Solver <==

    --------------------------------------------------------
    Print level                                      Default
    Energy convergence threshold                   1.000e-10
    Residual convergence threshold                 1.000e-06
    Schmidt orthogonality threshold                1.000e-12
    Schmidt discard threshold                      1.000e-07
    Size of the space                                    288
    Number of roots                                        1
    Maximum number of iterations                         500
    Collapse subspace size                                 2
    Maximum subspace size                                 10
    --------------------------------------------------------

  Davidson-Liu solver: adding 1 guess vectors
  Iteration     Average Energy            max(∆E)            max(Residual)  Vectors
  ---------------------------------------------------------------------------------
       0      -42.136055820518       42.136055820518        0.479109864312      1
       1      -42.221658865772        0.085603045254        0.108335807277      2
       2      -42.227013064312        0.005354198540        0.039837262042      3
       3      -42.227719648279        0.000706583967        0.013027525417      4
       4      -42.227789037035        0.000069388756        0.002541266010      5
       5      -42.227796058712        0.000007021677        0.001718625822      6
       6      -42.227798000233        0.000001941522        0.000657024209      7
       7      -42.227798373602        0.000000373369        0.000303563295      8
       8      -42.227798427071        0.000000053469        0.000079869560      9
       9      -42.227798431629        0.000000004558        0.000024177596     10
      10      -42.227798431905        0.000000000276        0.000006889153      3
      11      -42.227798431943        0.000000000038        0.000002479504      4
      12      -42.227798431946        0.000000000003        0.000000693852      5
  ---------------------------------------------------------------------------------
  Davidson-Liu procedure took  0.010842 s
  Time spent diagonalizing H:   0.015148 s

    P-space  CI Energy Root   0        = -28.909901765527 Eh =   0.0000 eV, S^2 = 0.000000


  ==> Finding the Q space <==

  Using CORE screening algorithm
  Using 1 threads.
  Size of F space: 8895
  Time spent building sorting list: 0.001611
  Dimension of the PQ space:                  377
  Dimension of the PQ space (spin-complete) : 538
  Added 0 determinants from root 0
  Time spent building the model space: 0.023064

  ==> Diagonalizing the Hamiltonian in the P + Q space <==

  Number of reference roots: 1

  Davidson-Liu solver algorithm using SigmaVectorSparseList sigma algorithm

  Spin-adaptation of the initial guess based on minimum spin-complete subset
  Initial guess determinants do not form a spin-complete set. 14 determinant(s) missing

  Guess determinants after screening: 34

  ==> Initial Guess <==

  Initial guess determinants:         34

  Classification of the initial guess solutions

  Number   2S+1   Selected
  ------------------------
    13       1       *
    17       3        
     4       5        
  ------------------------

    Spin    Root           Energy        <S^2>    Status
  -------------------------------------------------------
   triplet    0      -28.847022386291  +2.000000  removed
   singlet    0      -28.818159154100  -0.000000  added
  -------------------------------------------------------

  ==> Davidson-Liu Solver <==

    --------------------------------------------------------
    Print level                                      Default
    Energy convergence threshold                   1.000e-10
    Residual convergence threshold                 1.000e-06
    Schmidt orthogonality threshold                1.000e-12
    Schmidt discard threshold                      1.000e-07
    Size of the space                                    538
    Number of roots                                        1
    Maximum number of iterations                         500
    Collapse subspace size                                 2
    Maximum subspace size                                 10
    --------------------------------------------------------

  Davidson-Liu solver: adding 1 guess vectors
  Iteration     Average Energy            max(∆E)            max(Residual)  Vectors
  ---------------------------------------------------------------------------------
       0      -42.136055820518       42.136055820518        0.494826483655      1
       1      -42.227843576074        0.091787755556        0.127922314979      2
       2      -42.234408276276        0.006564700202        0.045196743170      3
       3      -42.235059763978        0.000651487702        0.017040028942      4
       4      -42.235163340031        0.000103576053        0.003937810467      5
       5      -42.235177630255        0.000014290224        0.002447262718      6
       6      -42.235180809862        0.000003179606        0.000963549514      7
       7      -42.235181493953        0.000000684091        0.000483408348      8
       8      -42.235181612195        0.000000118242        0.000184403208      9
       9      -42.235181628502        0.000000016307        0.000052741877     10
      10      -42.235181629795        0.000000001293        0.000018943205      3
      11      -42.235181630042        0.000000000247        0.000007748648      4
      12      -42.235181630072        0.000000000029        0.000002895511      5
      13      -42.235181630075        0.000000000003        0.000001226211      6
      14      -42.235181630076        0.000000000001        0.000000489525      7
  ---------------------------------------------------------------------------------
  Davidson-Liu procedure took  0.022396 s
  Total time spent diagonalizing H:   0.029924 s

    PQ-space CI Energy Root   0        = -28.917284963658 Eh =   0.0000 eV, S^2 = 0.000000
    PQ-space CI Energy + EPT2 Root   0 = -28.922257434907 Eh =   0.0000 eV


  ==> Pruning the Q space <==

  Cycle 3 took: 0.069217 s


  ---------------------------------- Cycle 4 -----------------------------------

  ==> Diagonalizing the Hamiltonian in the P space <==

  Initial P space dimension: 165
  Spin-complete dimension of the P space: 288 determinants
  Added 0 determinants from root 0

  Davidson-Liu solver algorithm using SigmaVectorSparseList sigma algorithm

  Spin-adaptation of the initial guess based on minimum spin-complete subset
  Initial guess determinants do not form a spin-complete set. 14 determinant(s) missing

  Guess determinants after screening: 34

  ==> Initial Guess <==

  Initial guess determinants:         34

  Classification of the initial guess solutions

  Number   2S+1   Selected
  ------------------------
    13       1       *
    17       3        
     4       5        
  ------------------------

    Spin    Root           Energy        <S^2>    Status
  -------------------------------------------------------
   triplet    0      -28.847022386291  +2.000000  removed
   singlet    0      -28.818159154100  -0.000000  added
  -------------------------------------------------------

  ==> Davidson-Liu Solver <==

    --------------------------------------------------------
    Print level                                      Default
    Energy convergence threshold                   1.000e-10
    Residual convergence threshold                 1.000e-06
    Schmidt orthogonality threshold                1.000e-12
    Schmidt discard threshold                      1.000e-07
    Size of the space                                    288
    Number of roots                                        1
    Maximum number of iterations                         500
    Collapse subspace size                                 2
    Maximum subspace size                                 10
    --------------------------------------------------------

  Davidson-Liu solver: adding 1 guess vectors
  Iteration     Average Energy            max(∆E)            max(Residual)  Vectors
  ---------------------------------------------------------------------------------
       0      -42.136055820518       42.136055820518        0.479109864312      1
       1      -42.221658865772        0.085603045254        0.108335807277      2
       2      -42.227013064312        0.005354198540        0.039837262043      3
       3      -42.227719648279        0.000706583967        0.013027525417      4
       4      -42.227789037035        0.000069388756        0.002541266010      5
       5      -42.227796058712        0.000007021677        0.001718625822      6
       6      -42.227798000233        0.000001941522        0.000657024209      7
       7      -42.227798373602        0.000000373369        0.000303563295      8
       8      -42.227798427071        0.000000053469        0.000079869560      9
       9      -42.227798431629        0.000000004558        0.000024177596     10
      10      -42.227798431905        0.000000000276        0.000006889153      3
      11      -42.227798431943        0.000000000038        0.000002479504      4
      12      -42.227798431946        0.000000000003        0.000000693852      5
  ---------------------------------------------------------------------------------
  Davidson-Liu procedure took  0.010376 s
  Time spent diagonalizing H:   0.014698 s

    P-space  CI Energy Root   0        = -28.909901765527 Eh =   0.0000 eV, S^2 = 0.000000


  ==> Finding the Q space <==

  Using CORE screening algorithm
  Using 1 threads.
  Size of F space: 8895
  Time spent building sorting list: 0.001630
  Dimension of the PQ space:                  377
  Dimension of the PQ space (spin-complete) : 538
  Added 0 determinants from root 0
  Time spent building the model space: 0.022994

  ==> Diagonalizing the Hamiltonian in the P + Q space <==

  Number of reference roots: 1

  Davidson-Liu solver algorithm using SigmaVectorSparseList sigma algorithm

  Spin-adaptation of the initial guess based on minimum spin-complete subset
  Initial guess determinants do not form a spin-complete set. 14 determinant(s) missing

  Guess determinants after screening: 34

  ==> Initial Guess <==

  Initial guess determinants:         34

  Classification of the initial guess solutions

  Number   2S+1   Selected
  ------------------------
    13       1       *
    17       3        
     4       5        
  ------------------------

    Spin    Root           Energy        <S^2>    Status
  -------------------------------------------------------
   triplet    0      -28.847022386291  +2.000000  removed
   singlet    0      -28.818159154100  -0.000000  added
  -------------------------------------------------------

  ==> Davidson-Liu Solver <==

    --------------------------------------------------------
    Print level                                      Default
    Energy convergence threshold                   1.000e-10
    Residual convergence threshold                 1.000e-06
    Schmidt orthogonality threshold                1.000e-12
    Schmidt discard threshold                      1.000e-07
    Size of the space                                    538
    Number of roots                                        1
    Maximum number of iterations                         500
    Collapse subspace size                                 2
    Maximum subspace size                                 10
    --------------------------------------------------------

  Davidson-Liu solver: adding 1 guess vectors
  Iteration     Average Energy            max(∆E)            max(Residual)  Vectors
  ---------------------------------------------------------------------------------
       0      -42.136055820518       42.136055820518        0.494826483655      1
       1      -42.227843576074        0.091787755556        0.127922314979      2
       2      -42.234408276276        0.006564700202        0.045196743170      3
       3      -42.235059763978        0.000651487702        0.017040028942      4
       4      -42.235163340031        0.000103576053        0.003937810467      5
       5      -42.235177630255        0.000014290224        0.002447262718      6
       6      -42.235180809862        0.000003179606        0.000963549514      7
       7      -42.235181493953        0.000000684091        0.000483408348      8
       8      -42.235181612195        0.000000118242        0.000184403208      9
       9      -42.235181628502        0.000000016307        0.000052741877     10
      10      -42.235181629795        0.000000001293        0.000018943205      3
      11      -42.235181630042        0.000000000247        0.000007748648      4
      12      -42.235181630072        0.000000000029        0.000002895511      5
      13      -42.235181630075        0.000000000003        0.000001226211      6
      14      -42.235181630076        0.000000000001        0.000000489525      7
  ---------------------------------------------------------------------------------
  Davidson-Liu procedure took  0.021782 s
  Total time spent diagonalizing H:   0.029290 s

    PQ-space CI Energy Root   0        = -28.917284963658 Eh =   0.0000 eV, S^2 = 0.000000
    PQ-space CI Energy + EPT2 Root   0 = -28.922257434907 Eh =   0.0000 eV

  ***** Calculation Converged *****

  ==> ACI Natural Orbitals <==

        1A      1.989438      2A      1.982848      3A      1.973827  
        4A      1.971694      5A      1.000052      6A      0.996330  
        7A      0.034181      8A      0.029796      9A      0.021834  
  Saving root 1, ref_root is 0
  Number of old roots: 2

  ==> Excited state solver summary <==

  Iterations required:                         4
  Dimension of optimized determinant space:    538

  * Selected-CI Energy Root   0        = -39.801059897783 Eh =   0.0000 eV
  * Selected-CI Energy Root   0 + EPT2 = -39.806033398462 Eh =   0.0000 eV
  * Selected-CI Energy Root   1        = -28.917284963658 Eh = 296.1626 eV
  * Selected-CI Energy Root   1 + EPT2 = -28.922257434907 Eh = 296.1626 eV

  Saving information for root: 1

  ==> Energy Summary <==

    Multi.(2ms)  Irrep.  No.               Energy      <S^2>
    --------------------------------------------------------
       1  (  0)     A     0      -39.801059897783   0.000000
       1  (  0)     A     1      -28.917284963658   0.000000
    --------------------------------------------------------
  1-RDM  took 0.002330 s (determinant)
  1-RDM  took 0.002338 s (determinant)

  ==> Dipole Moments [e a0] (Nuclear + Electronic) for Singlet (Ms = 0) A <==

       State           DM_X           DM_Y           DM_Z           |DM|
    --------------------------------------------------------------------
          0A     0.57365657    -0.10136415    -0.00007263     0.58254318
          1A     0.13581898     0.13461980    -0.00001240     0.19123097
    --------------------------------------------------------------------
     Nuclear    -0.00000774     0.00000406     0.00000000     0.00000874
    --------------------------------------------------------------------
  1-RDM  took 0.002335 s (determinant)
  1-RDM  took 0.002358 s (determinant)

  ==> Quadrupole Moments [e a0^2] (Nuclear + Electronic) for Singlet (Ms = 0) A <==

       State          QM_XX          QM_XY          QM_XZ          QM_YY          QM_YZ          QM_ZZ
    --------------------------------------------------------------------------------------------------
          0A    -7.33569607    -0.10887909    -0.00008539    -5.25427238    -0.00012134    -5.58191097
          1A    -7.60303040     0.02874363    -0.00004746    -6.27298091    -0.00008235    -6.28963449
    --------------------------------------------------------------------------------------------------
     Nuclear     5.75728039    -0.00000803     0.00000000     5.75731026     0.00000000     5.75730265
    --------------------------------------------------------------------------------------------------

  Time to prepare integrals:        0.047 seconds
  Time to run job          :        0.644 seconds
  Total                    :        0.692 seconds
    Core EX Energy........................................................................PASSED

    Psi4 stopped on: Thursday, 29 August 2024 09:55AM
    Psi4 wall time for execution: 0:00:01.67

*** Psi4 exiting successfully. Buy a developer a beer!
