
    -----------------------------------------------------------------------
          Psi4: An Open-Source Ab Initio Electronic Structure Package
                               Psi4 1.2a1.dev187 

                         Git: Rev {master} 9d1564e 


    R. M. Parrish, L. A. Burns, D. G. A. Smith, A. C. Simmonett,
    A. E. DePrince III, E. G. Hohenstein, U. Bozkaya, A. Yu. Sokolov,
    R. Di Remigio, R. M. Richard, J. F. Gonthier, A. M. James,
    H. R. McAlexander, A. Kumar, M. Saitow, X. Wang, B. P. Pritchard,
    P. Verma, H. F. Schaefer III, K. Patkowski, R. A. King, E. F. Valeev,
    F. A. Evangelista, J. M. Turney, T. D. Crawford, and C. D. Sherrill,
    J. Chem. Theory Comput. in press (2017).
    (doi: 10.1021/acs.jctc.7b00174)

    -----------------------------------------------------------------------


    Psi4 started on: Sunday, 04 June 2017 08:28PM

    Process ID:  54237
    PSIDATADIR: /Users/jeffschriber/src/psi4_debug_install/share/psi4
    Memory:     500.0 MiB
    Threads:    1
    
  ==> Input File <==

--------------------------------------------------------------------------
#! Generated using commit GITCOMMIT

import forte

refscf = -7.862246310410
reffci = -7.716243788616362

molecule {
0 1
Li
H 1 R

R = 3.0
units bohr 
}

set {
  basis sto-3g 
  reference rhf
  scf_type pk
  e_convergence 12
}

set forte {
  job_type aci
  active [4,0,1,1]
  sigma 0.0
  restricted_docc [0,0,0,0]
  root_sym 2
  multiplicity 3
  aci_initial_space cis
  ms 0
}


energy('scf')
#compare_values(refscf, get_variable("CURRENT ENERGY"),11, "SCF energy") #TEST

energy('forte')
compare_values(reffci, get_variable("CURRENT ENERGY"),11, "ACI energy") #TEST
--------------------------------------------------------------------------
/Users/jeffschriber/src/forte/forte.so loaded.

*** tstart() called on Jeffs-MBP-2.attlocal.net
*** at Sun Jun  4 20:28:36 2017

   => Loading Basis Set <=

    Name: STO-3G
    Role: ORBITAL
    Keyword: BASIS
    atoms 1 entry LI         line    31 file /Users/jeffschriber/src/psi4_debug_install/share/psi4/basis/sto-3g.gbs 
    atoms 2 entry H          line    19 file /Users/jeffschriber/src/psi4_debug_install/share/psi4/basis/sto-3g.gbs 


         ---------------------------------------------------------
                                   SCF
            by Justin Turney, Rob Parrish, Andy Simmonett
                             and Daniel Smith
                              RHF Reference
                        1 Threads,    500 MiB Core
         ---------------------------------------------------------

  ==> Geometry <==

    Molecular point group: c2v
    Full point group: C_inf_v

    Geometry (in Bohr), charge = 0, multiplicity = 1:

       Center              X                  Y                   Z               Mass       
    ------------   -----------------  -----------------  -----------------  -----------------
          LI          0.000000000000     0.000000000000    -0.376811978126     7.016004548000
           H          0.000000000000     0.000000000000     2.623188021874     1.007825032070

  Running in c2v symmetry.

  Rotational constants: A = ************  B =      7.59029  C =      7.59029 [cm^-1]
  Rotational constants: A = ************  B = 227551.19343  C = 227551.19343 [MHz]
  Nuclear repulsion =    1.000000000000000

  Charge       = 0
  Multiplicity = 1
  Electrons    = 4
  Nalpha       = 2
  Nbeta        = 2

  ==> Algorithm <==

  SCF Algorithm Type is PK.
  DIIS enabled.
  MOM disabled.
  Fractional occupation disabled.
  Guess Type is SAD.
  Energy threshold   = 1.00e-12
  Density threshold  = 1.00e-06
  Integral threshold = 0.00e+00

  ==> Primary Basis <==

  Basis Set: STO-3G
    Blend: STO-3G
    Number of shells: 4
    Number of basis function: 6
    Number of Cartesian functions: 6
    Spherical Harmonics?: true
    Max angular momentum: 1

  ==> Pre-Iterations <==

   -------------------------------------------------------
    Irrep   Nso     Nmo     Nalpha   Nbeta   Ndocc  Nsocc
   -------------------------------------------------------
     A1         4       4       0       0       0       0
     A2         0       0       0       0       0       0
     B1         1       1       0       0       0       0
     B2         1       1       0       0       0       0
   -------------------------------------------------------
    Total       6       6       2       2       2       0
   -------------------------------------------------------

  ==> Integral Setup <==

  Using in-core PK algorithm.
   Calculation information:
      Number of atoms:                   2
      Number of AO shells:               4
      Number of primitives:             12
      Number of atomic orbitals:         6
      Number of basis functions:         6

      Integral cutoff                 1.00e-12
      Number of threads:                 1

  Performing in-core PK
  Using 462 doubles for integral storage.
  We computed 55 shell quartets total.
  Whereas there are 55 unique shell quartets.
  ==> DiskJK: Disk-Based J/K Matrices <==

    J tasked:                  Yes
    K tasked:                  Yes
    wK tasked:                  No
    Memory (MB):               375
    Schwarz Cutoff:          1E-12

    OpenMP threads:              1
  Minimum eigenvalue in the overlap matrix is 3.4333995519E-01.
  Using Symmetric Orthogonalization.

  SCF Guess: Superposition of Atomic Densities via on-the-fly atomic UHF.

  ==> Iterations <==

                        Total Energy        Delta E     RMS |[F,P]|

   @RHF iter   0:    -7.56997128599612   -7.56997e+00   3.80123e-02 
   @RHF iter   1:    -7.85309237258734   -2.83121e-01   1.73897e-02 
   @RHF iter   2:    -7.86113969188756   -8.04732e-03   3.90557e-03 DIIS
   @RHF iter   3:    -7.86204748587299   -9.07794e-04   1.43897e-03 DIIS
   @RHF iter   4:    -7.86224601577358   -1.98530e-04   7.00658e-05 DIIS
   @RHF iter   5:    -7.86224630648549   -2.90712e-07   9.33696e-06 DIIS
   @RHF iter   6:    -7.86224631040252   -3.91703e-09   3.05003e-07 DIIS
   @RHF iter   7:    -7.86224631041033   -7.80176e-12   8.38836e-09 DIIS
   @RHF iter   8:    -7.86224631041033   -1.77636e-15   4.80993e-10 DIIS

  ==> Post-Iterations <==

    Orbital Energies (a.u.)
    -----------------------

    Doubly Occupied:                                                      

       1A1    -2.348477     2A1    -0.286330  

    Virtual:                                                              

       3A1     0.078326     1B2     0.163933     1B1     0.163933  
       4A1     0.551172  

    Final Occupation by Irrep:
             A1    A2    B1    B2 
    DOCC [     2,    0,    0,    0 ]

  Energy converged.

  @RHF Final Energy:    -7.86224631041033

   => Energetics <=

    Nuclear Repulsion Energy =              1.0000000000000000
    One-Electron Energy =                 -12.4548780544299866
    Two-Electron Energy =                   3.5926317440196587
    Total Energy =                         -7.8622463104103275



Properties will be evaluated at   0.000000,   0.000000,   0.000000 Bohr

Properties computed using the SCF density matrix

  Nuclear Dipole Moment: (a.u.)
     X:     0.0000      Y:     0.0000      Z:     1.4928

  Electronic Dipole Moment: (a.u.)
     X:     0.0000      Y:     0.0000      Z:    -3.4031

  Dipole Moment: (a.u.)
     X:     0.0000      Y:     0.0000      Z:    -1.9104     Total:     1.9104

  Dipole Moment: (Debye)
     X:     0.0000      Y:     0.0000      Z:    -4.8557     Total:     4.8557


*** tstop() called on Jeffs-MBP-2.attlocal.net at Sun Jun  4 20:28:36 2017
Module time:
	user time   =       0.25 seconds =       0.00 minutes
	system time =       0.02 seconds =       0.00 minutes
	total time  =          0 seconds =       0.00 minutes
Total time:
	user time   =       0.25 seconds =       0.00 minutes
	system time =       0.02 seconds =       0.00 minutes
	total time  =          0 seconds =       0.00 minutes

*** tstart() called on Jeffs-MBP-2.attlocal.net
*** at Sun Jun  4 20:28:36 2017

   => Loading Basis Set <=

    Name: STO-3G
    Role: ORBITAL
    Keyword: BASIS
    atoms 1 entry LI         line    31 file /Users/jeffschriber/src/psi4_debug_install/share/psi4/basis/sto-3g.gbs 
    atoms 2 entry H          line    19 file /Users/jeffschriber/src/psi4_debug_install/share/psi4/basis/sto-3g.gbs 


         ---------------------------------------------------------
                                   SCF
            by Justin Turney, Rob Parrish, Andy Simmonett
                             and Daniel Smith
                              RHF Reference
                        1 Threads,    500 MiB Core
         ---------------------------------------------------------

  ==> Geometry <==

    Molecular point group: c2v
    Full point group: C_inf_v

    Geometry (in Bohr), charge = 0, multiplicity = 1:

       Center              X                  Y                   Z               Mass       
    ------------   -----------------  -----------------  -----------------  -----------------
          LI          0.000000000000     0.000000000000    -0.376811978126     7.016004548000
           H          0.000000000000     0.000000000000     2.623188021874     1.007825032070

  Running in c2v symmetry.

  Rotational constants: A = ************  B =      7.59029  C =      7.59029 [cm^-1]
  Rotational constants: A = ************  B = 227551.19343  C = 227551.19343 [MHz]
  Nuclear repulsion =    1.000000000000000

  Charge       = 0
  Multiplicity = 1
  Electrons    = 4
  Nalpha       = 2
  Nbeta        = 2

  ==> Algorithm <==

  SCF Algorithm Type is PK.
  DIIS enabled.
  MOM disabled.
  Fractional occupation disabled.
  Guess Type is SAD.
  Energy threshold   = 1.00e-12
  Density threshold  = 1.00e-08
  Integral threshold = 0.00e+00

  ==> Primary Basis <==

  Basis Set: STO-3G
    Blend: STO-3G
    Number of shells: 4
    Number of basis function: 6
    Number of Cartesian functions: 6
    Spherical Harmonics?: true
    Max angular momentum: 1

  ==> Pre-Iterations <==

   -------------------------------------------------------
    Irrep   Nso     Nmo     Nalpha   Nbeta   Ndocc  Nsocc
   -------------------------------------------------------
     A1         4       4       0       0       0       0
     A2         0       0       0       0       0       0
     B1         1       1       0       0       0       0
     B2         1       1       0       0       0       0
   -------------------------------------------------------
    Total       6       6       2       2       2       0
   -------------------------------------------------------

  ==> Integral Setup <==

  Using in-core PK algorithm.
   Calculation information:
      Number of atoms:                   2
      Number of AO shells:               4
      Number of primitives:             12
      Number of atomic orbitals:         6
      Number of basis functions:         6

      Integral cutoff                 1.00e-12
      Number of threads:                 1

  Performing in-core PK
  Using 462 doubles for integral storage.
  We computed 55 shell quartets total.
  Whereas there are 55 unique shell quartets.
  ==> DiskJK: Disk-Based J/K Matrices <==

    J tasked:                  Yes
    K tasked:                  Yes
    wK tasked:                  No
    Memory (MB):               375
    Schwarz Cutoff:          1E-12

    OpenMP threads:              1
  Minimum eigenvalue in the overlap matrix is 3.4333995519E-01.
  Using Symmetric Orthogonalization.

  SCF Guess: Superposition of Atomic Densities via on-the-fly atomic UHF.

  ==> Iterations <==

                        Total Energy        Delta E     RMS |[F,P]|

   @RHF iter   0:    -7.56997128599612   -7.56997e+00   3.80123e-02 
   @RHF iter   1:    -7.85309237258734   -2.83121e-01   1.73897e-02 
   @RHF iter   2:    -7.86113969188756   -8.04732e-03   3.90557e-03 DIIS
   @RHF iter   3:    -7.86204748587298   -9.07794e-04   1.43897e-03 DIIS
   @RHF iter   4:    -7.86224601577358   -1.98530e-04   7.00658e-05 DIIS
   @RHF iter   5:    -7.86224630648549   -2.90712e-07   9.33696e-06 DIIS
   @RHF iter   6:    -7.86224631040252   -3.91703e-09   3.05003e-07 DIIS
   @RHF iter   7:    -7.86224631041033   -7.80709e-12   8.38836e-09 DIIS
   @RHF iter   8:    -7.86224631041033   -3.55271e-15   4.80993e-10 DIIS

  ==> Post-Iterations <==

    Orbital Energies (a.u.)
    -----------------------

    Doubly Occupied:                                                      

       1A1    -2.348477     2A1    -0.286330  

    Virtual:                                                              

       3A1     0.078326     1B2     0.163933     1B1     0.163933  
       4A1     0.551172  

    Final Occupation by Irrep:
             A1    A2    B1    B2 
    DOCC [     2,    0,    0,    0 ]

  Energy converged.

  @RHF Final Energy:    -7.86224631041033

   => Energetics <=

    Nuclear Repulsion Energy =              1.0000000000000000
    One-Electron Energy =                 -12.4548780544299920
    Two-Electron Energy =                   3.5926317440196591
    Total Energy =                         -7.8622463104103328



Properties will be evaluated at   0.000000,   0.000000,   0.000000 Bohr

Properties computed using the SCF density matrix

  Nuclear Dipole Moment: (a.u.)
     X:     0.0000      Y:     0.0000      Z:     1.4928

  Electronic Dipole Moment: (a.u.)
     X:     0.0000      Y:     0.0000      Z:    -3.4031

  Dipole Moment: (a.u.)
     X:     0.0000      Y:     0.0000      Z:    -1.9104     Total:     1.9104

  Dipole Moment: (Debye)
     X:     0.0000      Y:     0.0000      Z:    -4.8557     Total:     4.8557


*** tstop() called on Jeffs-MBP-2.attlocal.net at Sun Jun  4 20:28:36 2017
Module time:
	user time   =       0.25 seconds =       0.00 minutes
	system time =       0.01 seconds =       0.00 minutes
	total time  =          0 seconds =       0.00 minutes
Total time:
	user time   =       0.52 seconds =       0.01 minutes
	system time =       0.03 seconds =       0.00 minutes
	total time  =          0 seconds =       0.00 minutes
   => Loading Basis Set <=

    Name: STO-3G
    Role: ORBITAL
    Keyword: MINAO_BASIS
    atoms 1 entry LI         line    31 file /Users/jeffschriber/src/psi4_debug_install/share/psi4/basis/sto-3g.gbs 
    atoms 2 entry H          line    19 file /Users/jeffschriber/src/psi4_debug_install/share/psi4/basis/sto-3g.gbs 


Reading options from the FORTE block
Calling plugin forte.so.




  ==> MO Space Information <==

  Read options for space RESTRICTED_DOCC
  Read options for space ACTIVE
  -------------------------------------------------
                       A1    A2    B1    B2   Sum
  -------------------------------------------------
    FROZEN_DOCC         0     0     0     0     0
    RESTRICTED_DOCC     0     0     0     0     0
    ACTIVE              4     0     1     1     6
    RESTRICTED_UOCC     0     0     0     0     0
    FROZEN_UOCC         0     0     0     0     0
    Total               4     0     1     1     6
  -------------------------------------------------

  ==> Integral Transformation <==

  Number of molecular orbitals:                6
  Number of correlated molecular orbitals:     6
  Number of frozen occupied orbitals:          0
  Number of frozen unoccupied orbitals:        0

    Molecular point group: c2v
    Full point group: C_inf_v

    Geometry (in Bohr), charge = 0, multiplicity = 1:

       Center              X                  Y                   Z               Mass       
    ------------   -----------------  -----------------  -----------------  -----------------
          LI          0.000000000000     0.000000000000    -0.376811978126     7.016004548000
           H          0.000000000000     0.000000000000     2.623188021874     1.007825032070

  -AO BASIS SET INFORMATION:
    Name                   = STO-3G
    Blend                  = STO-3G
    Total number of shells = 4
    Number of primitives   = 12
    Number of AO           = 6
    Number of SO           = 6
    Maximum AM             = 1
    Spherical Harmonics    = TRUE

  -Contraction Scheme:
    Atom   Type   All Primitives // Shells:
   ------ ------ --------------------------
       1    LI     6s 3p // 2s 1p 
       2     H     3s // 1s 

  ==> AO Basis Functions <==

    [ STO-3G ]
    spherical
    ****
   LI   1
    S   3 1.00
                        16.11957500           0.15432897
                         2.93620070           0.53532814
                         0.79465050           0.44463454
    S   3 1.00
                         0.63628970          -0.09996723
                         0.14786010           0.39951283
                         0.04808870           0.70011547
    P   3 1.00
                         0.63628970           0.15591627
                         0.14786010           0.60768372
                         0.04808870           0.39195739
    ****
    H   2
    S   3 1.00
                         3.42525091           0.15432897
                         0.62391373           0.53532814
                         0.16885540           0.44463454
    ****


  Overall Conventional Integrals timings

	Presorting SO-basis two-electron integrals.
	Sorting File: SO Ints (nn|nn) nbuckets = 1
	Transforming the one-electron integrals and constructing Fock matrices
	Starting first half-transformation.
	Sorting half-transformed integrals.
	First half integral transformation complete.
	Starting second half-transformation.
	Two-electron integral transformation complete.

  Integral transformation done. 0.00546300 s
  Reading the two-electron integrals from disk
  Size of two-electron integrals:   0.000029 GB
  Conventional integrals take 0.02599000 s

        ---------------------------------------------------------------
                      Adaptive Configuration Interaction
          written by Jeffrey B. Schriber and Francesco A. Evangelista
        ---------------------------------------------------------------

  ==> Reference Information <==

  There are 0 frozen orbitals.
  There are 6 active orbitals.

  |2-00+0>
  REFERENCE ENERGY:         -7.659279126384
  ==> Calculation Information <==

  -----------------------------------------------------------------
    Multiplicity                             3    
    Ms                                       0    
    Symmetry                                 2    
    Number of roots                          1    
    Root used for properties                 0    
    Sigma                                    0.00e+00
    Gamma                                    1.00e+00
    Convergence threshold                    1.00e-09
    Determinant selection criterion          Second-order Energy
    Selection criterion                      Aimed selection
    Excited Algorithm                        ROOT_ORTHOGONALIZE
    Project out spin contaminants            True
    Enforce spin completeness of basis       True
    Enforce complete aimed selection         True
  -----------------------------------------------------------------
 Using 1 threads
  Computing wavefunction for root 0
  Using streamlined Q-space builder.

  ==> Cycle 0 <==

  Initial P space dimension: 8
  Spin-complete dimension of the P space: 20 determinants
  Time spent building a_list   0.000071 s
  Time spent building b_list   0.000056 s
  Time spent building aa_list  0.000041 s
  Time spent building bb_list  0.000034 s
 Memory for AB_ann: 0.001 MB
  Time spent building ab_list  0.000095 s
  Time spent diagonalizing H:   0.000342 s

    P-space  CI Energy Root   0        = -7.716024733759 Eh =   0.0000 eV

  Dimension of the SD space: 36 determinants
  Time spent building the model space (default): 0.002173 s

  Dimension of the P + Q space: 56 determinants
  Time spent screening the model space: 0.000067 s
  Spin-complete dimension of the PQ space: 56
  Time spent building a_list   0.000146 s
  Time spent building b_list   0.000145 s
  Time spent building aa_list  0.000083 s
  Time spent building bb_list  0.000080 s
 Memory for AB_ann: 0.001 MB
  Time spent building ab_list  0.000218 s
  Total time spent diagonalizing H:   0.001743 s

    PQ-space CI Energy Root   0        = -7.716243788616 Eh =   0.0000 eV
    PQ-space CI Energy + EPT2 Root   0 = -7.716243788616 Eh =   0.0000 eV


  Most important contributions to root   0:
    0  -0.683787 0.467564272           0 |2-00+0>
    1   0.683787 0.467564272           8 |2+00-0>
    2   0.159216 0.025349640          13 |200-+0>
    3  -0.159216 0.025349640          11 |200+-0>
    4   0.083676 0.007001599           6 |20-0+0>
    5  -0.083676 0.007001599          19 |20+0-0>
    6   0.005651 0.000031935           5 |--0++0>
    7  -0.005651 0.000031935          15 |++0--0>
    8   0.003279 0.000010752          18 |+-+0-0>
    9  -0.003279 0.000010752          12 |-+-0+0>

  Spin state for root 0: S^2 = 0.000142, S = 0.000, singlet
  Cycle 0 took: 0.006370 s

  ==> Cycle 1 <==

  Initial P space dimension: 56
  Spin-complete dimension of the P space: 56 determinants
  Time spent building a_list   0.000144 s
  Time spent building b_list   0.000141 s
  Time spent building aa_list  0.000074 s
  Time spent building bb_list  0.000072 s
 Memory for AB_ann: 0.001 MB
  Time spent building ab_list  0.000198 s
  Time spent diagonalizing H:   0.001776 s

    P-space  CI Energy Root   0        = -7.716243788616 Eh =   0.0000 eV

  Dimension of the SD space: 0 determinants
  Time spent building the model space (default): 0.006574 s

  Dimension of the P + Q space: 56 determinants
  Time spent screening the model space: 0.000005 s
  Spin-complete dimension of the PQ space: 56
  Time spent building a_list   0.000149 s
  Time spent building b_list   0.000144 s
  Time spent building aa_list  0.000085 s
  Time spent building bb_list  0.000078 s
 Memory for AB_ann: 0.001 MB
  Time spent building ab_list  0.000220 s
  Total time spent diagonalizing H:   0.001745 s

    PQ-space CI Energy Root   0        = -7.716243788616 Eh =   0.0000 eV
    PQ-space CI Energy + EPT2 Root   0 = -7.716243788616 Eh =   0.0000 eV

  ***** Calculation Converged *****
  Not performing spin projection.
  Saving root 0, ref_root is 0
  Number of old roots: 1

  ==> ACI Summary <==

  Iterations required:                         1
  Dimension of optimized determinant space:    56

  ACI(0.000) Correlation energy: 0.056964662233 Eh
  * Adaptive-CI Energy Root   0        = -7.716243788616 Eh =   0.0000 eV
  * Adaptive-CI Energy Root   0 + EPT2 = -7.716243788616 Eh =   0.0000 eV

  ==> Wavefunction Information <==

  Most important contributions to root   0:
    0   0.683787 0.467564272          23 |2+00-0>
    1  -0.683787 0.467564272          55 |2-00+0>
    2  -0.159216 0.025349640          53 |200+-0>
    3   0.159216 0.025349640          54 |200-+0>
    4  -0.083676 0.007001599          29 |20+0-0>
    5   0.083676 0.007001599          52 |20-0+0>
    6  -0.005651 0.000031935          51 |++0--0>
    7   0.005651 0.000031935          31 |--0++0>
    8  -0.003279 0.000010752          50 |-+-0+0>
    9   0.003279 0.000010752          13 |+-+0-0>

  Spin state for root 0: S^2 = 0.000142, S = 0.000, singlet
  Time spent building a_ann_list   0.000113 s
  Time spent building b_ann_list   0.000107 s
  Time spent building aa_ann_list  0.000083 s
  Time spent building bb_ann_list  0.000077 s
 Memory for AB_ann: 0.001 MB
  Time spent building ab_ann_list  0.000191 s
  1-RDM  took 0.000034 s (determinant)

  ==> NATURAL ORBITALS <==

        1A1     1.999869      2A1     1.000002      1B1     1.000000  
        3A1     0.000108      1B2     0.000013      4A1     0.000008  



  Adaptive-CI (bitset) ran in : 0.020011 s

  Saving information for root: 0

  Your calculation took 0.04981000 seconds
	ACI energy........................................................PASSED

*** Psi4 exiting successfully. Buy a developer a beer!
