
    -----------------------------------------------------------------------
          Psi4: An Open-Source Ab Initio Electronic Structure Package
                               Psi4 undefined 

                         Git: Rev {master} c27a5c4 dirty


    R. M. Parrish, L. A. Burns, D. G. A. Smith, A. C. Simmonett,
    A. E. DePrince III, E. G. Hohenstein, U. Bozkaya, A. Yu. Sokolov,
    R. Di Remigio, R. M. Richard, J. F. Gonthier, A. M. James,
    H. R. McAlexander, A. Kumar, M. Saitow, X. Wang, B. P. Pritchard,
    P. Verma, H. F. Schaefer III, K. Patkowski, R. A. King, E. F. Valeev,
    F. A. Evangelista, J. M. Turney, T. D. Crawford, and C. D. Sherrill,
    J. Chem. Theory Comput. 13(7) pp 3185--3197 (2017).
    (doi: 10.1021/acs.jctc.7b00174)


                         Additional Contributions by
    P. Kraus, H. Kruse, M. H. Lechner, M. C. Schieber, and R. A. Shaw

    -----------------------------------------------------------------------


    Psi4 started on: Thursday, 10 January 2019 05:18PM

    Process ID: 6930
    Host:       tianyuans-air.wireless.emory.edu
    PSIDATADIR: /Users/tianyuanzhang/Documents/Source/psi4_2018/psi4-bin-clang-debug/share/psi4
    Memory:     500.0 MiB
    Threads:    1
    
  ==> Input File <==

--------------------------------------------------------------------------
#! This tests the Adaptive Path-Integral FCI procedure with initiator approximation
#! Generated using commit GITCOMMIT

import forte

refscf = -14.6097447380899617 #TEST
refpci = -14.646162384728 #TEST
refpostdiag = -14.646164788374 #TEST

molecule li2{
   Li
   Li 1 2.0000
}

set {
  basis sto-3g
  scf_type pk
  e_convergence 12
}

set forte {
  active_space_solver pci
  pci_nroot 1
  charge 0
  pci_tau 1.0
  pci_spawning_threshold 0.0001
  pci_ENERGY_ESTIMATE_FREQ 100
  pci_FAST_EVAR true
  pci_USE_INTER_NORM true
  pci_ENERGY_ESTIMATE_THRESHOLD 1e-5
  pci_INITIATOR_APPROX true
  pci_INITIATOR_APPROX_FACTOR 1.0
  pci_GENERATOR POWER
  MP2_NOS true
  pci_maxbeta 100000.00
  pci_POST_DIAGONALIZE true
  pci_e_convergence 12
}

energy('scf')
compare_values(refscf, variable("CURRENT ENERGY"), 11, "SCF energy") #TEST

energy('forte')
compare_values(refpci, variable("PCI ENERGY"), 10, "PCI energy") #TEST
compare_values(refpostdiag, variable("PCI POST DIAG ENERGY"), 10, "POST DIAG energy") #TEST
--------------------------------------------------------------------------

*** tstart() called on tianyuans-air.wireless.emory.edu
*** at Thu Jan 10 17:18:31 2019

   => Loading Basis Set <=

    Name: STO-3G
    Role: ORBITAL
    Keyword: BASIS
    atoms 1-2 entry LI         line    31 file /Users/tianyuanzhang/Documents/Source/psi4_2018/psi4-bin-clang-debug/share/psi4/basis/sto-3g.gbs 


         ---------------------------------------------------------
                                   SCF
            by Justin Turney, Rob Parrish, Andy Simmonett
                             and Daniel Smith
                              RHF Reference
                        1 Threads,    500 MiB Core
         ---------------------------------------------------------

  ==> Geometry <==

    Molecular point group: d2h
    Full point group: D_inf_h

    Geometry (in Angstrom), charge = 0, multiplicity = 1:

       Center              X                  Y                   Z               Mass       
    ------------   -----------------  -----------------  -----------------  -----------------
         LI           0.000000000000     0.000000000000    -1.000000000000     7.016003436600
         LI           0.000000000000     0.000000000000     1.000000000000     7.016003436600

  Running in d2h symmetry.

  Rotational constants: A = ************  B =      1.20137  C =      1.20137 [cm^-1]
  Rotational constants: A = ************  B =  36016.16030  C =  36016.16030 [MHz]
  Nuclear repulsion =    2.381297448014999

  Charge       = 0
  Multiplicity = 1
  Electrons    = 6
  Nalpha       = 3
  Nbeta        = 3

  ==> Algorithm <==

  SCF Algorithm Type is PK.
  DIIS enabled.
  MOM disabled.
  Fractional occupation disabled.
  Guess Type is SAD.
  Energy threshold   = 1.00e-12
  Density threshold  = 1.00e-06
  Integral threshold = 0.00e+00

  ==> Primary Basis <==

  Basis Set: STO-3G
    Blend: STO-3G
    Number of shells: 6
    Number of basis function: 10
    Number of Cartesian functions: 10
    Spherical Harmonics?: true
    Max angular momentum: 1

  ==> Pre-Iterations <==

   -------------------------------------------------------
    Irrep   Nso     Nmo     Nalpha   Nbeta   Ndocc  Nsocc
   -------------------------------------------------------
     Ag         3       3       0       0       0       0
     B1g        0       0       0       0       0       0
     B2g        1       1       0       0       0       0
     B3g        1       1       0       0       0       0
     Au         0       0       0       0       0       0
     B1u        3       3       0       0       0       0
     B2u        1       1       0       0       0       0
     B3u        1       1       0       0       0       0
   -------------------------------------------------------
    Total      10      10       3       3       3       0
   -------------------------------------------------------

  ==> Integral Setup <==

  Using in-core PK algorithm.
   Calculation information:
      Number of atoms:                   2
      Number of AO shells:               6
      Number of primitives:             18
      Number of atomic orbitals:        10
      Number of basis functions:        10

      Integral cutoff                 1.00e-12
      Number of threads:                 1

  Performing in-core PK
  Using 3080 doubles for integral storage.
  We computed 231 shell quartets total.
  Whereas there are 231 unique shell quartets.

  ==> DiskJK: Disk-Based J/K Matrices <==

    J tasked:                  Yes
    K tasked:                  Yes
    wK tasked:                  No
    Memory [MiB]:              375
    Schwarz Cutoff:          1E-12

    OpenMP threads:              1

  Minimum eigenvalue in the overlap matrix is 4.0289192732E-02.
  Using Symmetric Orthogonalization.

  SCF Guess: Superposition of Atomic Densities via on-the-fly atomic UHF.

  ==> Iterations <==

                        Total Energy        Delta E     RMS |[F,P]|

   @RHF iter   0:   -14.58573852679841   -1.45857e+01   6.38128e-02 
   @RHF iter   1:   -14.60879129707150   -2.30528e-02   3.90853e-03 
   @RHF iter   2:   -14.60956780353629   -7.76506e-04   1.49380e-03 DIIS
   @RHF iter   3:   -14.60974068441564   -1.72881e-04   2.15662e-04 DIIS
   @RHF iter   4:   -14.60974473615713   -4.05174e-06   4.32612e-06 DIIS
   @RHF iter   5:   -14.60974473808782   -1.93069e-09   1.41353e-07 DIIS
   @RHF iter   6:   -14.60974473808995   -2.12985e-12   3.63226e-09 DIIS
   @RHF iter   7:   -14.60974473808996   -7.10543e-15   1.73384e-11 DIIS
  Energy converged.


  ==> Post-Iterations <==

    Orbital Energies [Eh]
    ---------------------

    Doubly Occupied:                                                      

       1Ag    -2.340313     1B1u   -2.335347     2Ag    -0.163839  

    Virtual:                                                              

       2B1u    0.093646     1B2u    0.108933     1B3u    0.108933  
       3Ag     0.176245     1B2g    0.275579     1B3g    0.275579  
       3B1u    0.645556  

    Final Occupation by Irrep:
             Ag   B1g   B2g   B3g    Au   B1u   B2u   B3u 
    DOCC [     2,    0,    0,    0,    0,    1,    0,    0 ]

  @RHF Final Energy:   -14.60974473808996

   => Energetics <=

    Nuclear Repulsion Energy =              2.3812974480149989
    One-Electron Energy =                 -24.3030864655733509
    Two-Electron Energy =                   7.3120442794683909
    Total Energy =                        -14.6097447380899617

Computation Completed


Properties will be evaluated at   0.000000,   0.000000,   0.000000 [a0]

Properties computed using the SCF density matrix

  Nuclear Dipole Moment: [e a0]
     X:     0.0000      Y:     0.0000      Z:     0.0000

  Electronic Dipole Moment: [e a0]
     X:     0.0000      Y:     0.0000      Z:     0.0000

  Dipole Moment: [e a0]
     X:     0.0000      Y:     0.0000      Z:     0.0000     Total:     0.0000

  Dipole Moment: [D]
     X:     0.0000      Y:     0.0000      Z:     0.0000     Total:     0.0000


*** tstop() called on tianyuans-air.wireless.emory.edu at Thu Jan 10 17:18:31 2019
Module time:
	user time   =       0.50 seconds =       0.01 minutes
	system time =       0.02 seconds =       0.00 minutes
	total time  =          0 seconds =       0.00 minutes
Total time:
	user time   =       0.50 seconds =       0.01 minutes
	system time =       0.02 seconds =       0.00 minutes
	total time  =          0 seconds =       0.00 minutes
	SCF energy........................................................PASSED

*** tstart() called on tianyuans-air.wireless.emory.edu
*** at Thu Jan 10 17:18:31 2019

   => Loading Basis Set <=

    Name: STO-3G
    Role: ORBITAL
    Keyword: BASIS
    atoms 1-2 entry LI         line    31 file /Users/tianyuanzhang/Documents/Source/psi4_2018/psi4-bin-clang-debug/share/psi4/basis/sto-3g.gbs 


         ---------------------------------------------------------
                                   SCF
            by Justin Turney, Rob Parrish, Andy Simmonett
                             and Daniel Smith
                              RHF Reference
                        1 Threads,    500 MiB Core
         ---------------------------------------------------------

  ==> Geometry <==

    Molecular point group: d2h
    Full point group: D_inf_h

    Geometry (in Angstrom), charge = 0, multiplicity = 1:

       Center              X                  Y                   Z               Mass       
    ------------   -----------------  -----------------  -----------------  -----------------
         LI           0.000000000000     0.000000000000    -1.000000000000     7.016003436600
         LI           0.000000000000     0.000000000000     1.000000000000     7.016003436600

  Running in d2h symmetry.

  Rotational constants: A = ************  B =      1.20137  C =      1.20137 [cm^-1]
  Rotational constants: A = ************  B =  36016.16030  C =  36016.16030 [MHz]
  Nuclear repulsion =    2.381297448014998

  Charge       = 0
  Multiplicity = 1
  Electrons    = 6
  Nalpha       = 3
  Nbeta        = 3

  ==> Algorithm <==

  SCF Algorithm Type is PK.
  DIIS enabled.
  MOM disabled.
  Fractional occupation disabled.
  Guess Type is SAD.
  Energy threshold   = 1.00e-12
  Density threshold  = 1.00e-08
  Integral threshold = 0.00e+00

  ==> Primary Basis <==

  Basis Set: STO-3G
    Blend: STO-3G
    Number of shells: 6
    Number of basis function: 10
    Number of Cartesian functions: 10
    Spherical Harmonics?: true
    Max angular momentum: 1

  ==> Pre-Iterations <==

   -------------------------------------------------------
    Irrep   Nso     Nmo     Nalpha   Nbeta   Ndocc  Nsocc
   -------------------------------------------------------
     Ag         3       3       0       0       0       0
     B1g        0       0       0       0       0       0
     B2g        1       1       0       0       0       0
     B3g        1       1       0       0       0       0
     Au         0       0       0       0       0       0
     B1u        3       3       0       0       0       0
     B2u        1       1       0       0       0       0
     B3u        1       1       0       0       0       0
   -------------------------------------------------------
    Total      10      10       3       3       3       0
   -------------------------------------------------------

  ==> Integral Setup <==

  Using in-core PK algorithm.
   Calculation information:
      Number of atoms:                   2
      Number of AO shells:               6
      Number of primitives:             18
      Number of atomic orbitals:        10
      Number of basis functions:        10

      Integral cutoff                 1.00e-12
      Number of threads:                 1

  Performing in-core PK
  Using 3080 doubles for integral storage.
  We computed 231 shell quartets total.
  Whereas there are 231 unique shell quartets.

  ==> DiskJK: Disk-Based J/K Matrices <==

    J tasked:                  Yes
    K tasked:                  Yes
    wK tasked:                  No
    Memory [MiB]:              375
    Schwarz Cutoff:          1E-12

    OpenMP threads:              1

  Minimum eigenvalue in the overlap matrix is 4.0289192732E-02.
  Using Symmetric Orthogonalization.

  SCF Guess: Superposition of Atomic Densities via on-the-fly atomic UHF.

  ==> Iterations <==

                        Total Energy        Delta E     RMS |[F,P]|

   @RHF iter   0:   -14.58573852679838   -1.45857e+01   6.38128e-02 
   @RHF iter   1:   -14.60879129707151   -2.30528e-02   3.90853e-03 
   @RHF iter   2:   -14.60956780353629   -7.76506e-04   1.49380e-03 DIIS
   @RHF iter   3:   -14.60974068441565   -1.72881e-04   2.15662e-04 DIIS
   @RHF iter   4:   -14.60974473615714   -4.05174e-06   4.32612e-06 DIIS
   @RHF iter   5:   -14.60974473808784   -1.93070e-09   1.41353e-07 DIIS
   @RHF iter   6:   -14.60974473808997   -2.13163e-12   3.63226e-09 DIIS
   @RHF iter   7:   -14.60974473808997    1.77636e-15   1.73383e-11 DIIS
  Energy converged.


  ==> Post-Iterations <==

    Orbital Energies [Eh]
    ---------------------

    Doubly Occupied:                                                      

       1Ag    -2.340313     1B1u   -2.335347     2Ag    -0.163839  

    Virtual:                                                              

       2B1u    0.093646     1B2u    0.108933     1B3u    0.108933  
       3Ag     0.176245     1B2g    0.275579     1B3g    0.275579  
       3B1u    0.645556  

    Final Occupation by Irrep:
             Ag   B1g   B2g   B3g    Au   B1u   B2u   B3u 
    DOCC [     2,    0,    0,    0,    0,    1,    0,    0 ]

  @RHF Final Energy:   -14.60974473808997

   => Energetics <=

    Nuclear Repulsion Energy =              2.3812974480149980
    One-Electron Energy =                 -24.3030864655733652
    Two-Electron Energy =                   7.3120442794684024
    Total Energy =                        -14.6097447380899652

Computation Completed


Properties will be evaluated at   0.000000,   0.000000,   0.000000 [a0]

Properties computed using the SCF density matrix

  Nuclear Dipole Moment: [e a0]
     X:     0.0000      Y:     0.0000      Z:     0.0000

  Electronic Dipole Moment: [e a0]
     X:     0.0000      Y:     0.0000      Z:     0.0000

  Dipole Moment: [e a0]
     X:     0.0000      Y:     0.0000      Z:     0.0000     Total:     0.0000

  Dipole Moment: [D]
     X:     0.0000      Y:     0.0000      Z:     0.0000     Total:     0.0000


*** tstop() called on tianyuans-air.wireless.emory.edu at Thu Jan 10 17:18:32 2019
Module time:
	user time   =       0.46 seconds =       0.01 minutes
	system time =       0.02 seconds =       0.00 minutes
	total time  =          1 seconds =       0.02 minutes
Total time:
	user time   =       0.99 seconds =       0.02 minutes
	system time =       0.04 seconds =       0.00 minutes
	total time  =          1 seconds =       0.02 minutes
   => Loading Basis Set <=

    Name: STO-3G
    Role: ORBITAL
    Keyword: MINAO_BASIS
    atoms 1-2 entry LI         line    31 file /Users/tianyuanzhang/Documents/Source/psi4_2018/psi4-bin-clang-debug/share/psi4/basis/sto-3g.gbs 


  Forte
  ----------------------------------------------------------------------------
  A suite of quantum chemistry methods for strongly correlated electrons

    git branch: ms_solver - git commit: 8dcc2a59

  Developed by:
    Francesco A. Evangelista, Chenyang Li, Kevin P. Hannon,
    Jeffrey B. Schriber, Tianyuan Zhang, Chenxi Cai,    Nan He, Nicholas Stair, Shuhe Wang, Renke Huang
  ----------------------------------------------------------------------------

  Size of Determinant class: 32

  ==> MO Space Information <==

  -------------------------------------------------------------------------
                       Ag   B1g   B2g   B3g    Au   B1u   B2u   B3u   Sum
  -------------------------------------------------------------------------
    FROZEN_DOCC         0     0     0     0     0     0     0     0     0
    RESTRICTED_DOCC     0     0     0     0     0     0     0     0     0
    ACTIVE              3     0     1     1     0     3     1     1    10
    RESTRICTED_UOCC     0     0     0     0     0     0     0     0     0
    FROZEN_UOCC         0     0     0     0     0     0     0     0     0
    Total               3     0     1     1     0     3     1     1    10
  -------------------------------------------------------------------------

  ==> Integral Transformation <==

  Number of molecular orbitals:                    10
  Number of correlated molecular orbitals:         10
  Number of frozen occupied orbitals:               0
  Number of frozen unoccupied orbitals:             0
  Two-electron integral type:              Conventional


  Overall Conventional Integrals timings


  Conventional integrals take 0.04848060 s

                ------------------------------------------------
                  Second-Order Moller-Plesset Natural Orbitals
                      written by Francesco A. Evangelista
                ------------------------------------------------


    SCF energy                            =  -14.609744738089965
    MP2 correlation energy                =   -0.018767063852433
  * MP2 total energy                      =  -14.628511801942398


 Integrals are about to be computed.
 Integrals are about to be updated.
  Number of active alpha electrons: 3
  Number of active beta electrons: 3
  Maximum reference space size: 1000
  |2200020000>

	  ---------------------------------------------------------
	      Adaptive Path-Integral Full Configuration Interaction
	         by Francesco A. Evangelista and Tianyuan Zhang
	                      version Jun. 4 2017
	                       1 thread(s) 
	  ---------------------------------------------------------

  ==> Calculation Information <==

    Symmetry                                         0
    Multiplicity                                     1
    Number of roots                                  1
    Root used for properties                         0
    Maximum number of iterations                100000
    Energy estimation frequency                    100
    Number of threads                                1
    Time step (beta)                         1.000e+00
    Spawning threshold                       1.000e-04
    Initial guess spawning threshold         1.000e-03
    Convergence threshold                    1.000e-12
    Prescreening tollerance factor           1.500e+00
    Energy estimate tollerance               1.000e-05
    Generator type                               Power
    Adaptive time step                              NO
    Shift the energy                                NO
    Use intermediate normalization                 YES
    Prescreen spawning                              NO
    Dynamic prescreening                            NO
    Schwarz prescreening                            NO
    Initiator approximation                        YES
    Fast variational estimate                      YES
    Result perturbation analysis                    NO
    Using OpenMP                                    NO

  ==> Initial Guess <==

  Initial guess size = 88
  Spin multiplicity of root 80 not close to integer (4.1231)
  Spin multiplicity of root 81 not close to integer (4.1231)
  Found 46 roots with 2S+1 = 1 *
  Found 34 roots with 2S+1 = 3
  Found 6 roots with 2S+1 = 5

  Initial guess energy (variational) =     -14.645949428697 Eh (root = 1)

  Most important contributions to the wave function:

    0      -0.933702      0.871799          81 |22000200000000000000000000000000000000000000000000000000000000000000000000000000000000000000000000000000000000000000000000000000>    -16.991042186105
    1       0.231475     0.0535807          74 |02000200020000000000000000000000000000000000000000000000000000000000000000000000000000000000000000000000000000000000000000000000>    -16.839359201914
    2       0.231475     0.0535807          75 |02000200200000000000000000000000000000000000000000000000000000000000000000000000000000000000000000000000000000000000000000000000>    -16.839359201914
    3       0.119343     0.0142427          76 |02000202000000000000000000000000000000000000000000000000000000000000000000000000000000000000000000000000000000000000000000000000>    -16.757530762194
    4      0.0801595    0.00642555          80 |02200200000000000000000000000000000000000000000000000000000000000000000000000000000000000000000000000000000000000000000000000000>    -16.716835524310
    5    -0.00514605   2.64818e-05          19 |-+000202000000000000000000000000000000000000000000000000000000000000000000000000000000000000000000000000000000000000000000000000>    -14.679187184570
    6    -0.00514605   2.64818e-05          12 |+-000202000000000000000000000000000000000000000000000000000000000000000000000000000000000000000000000000000000000000000000000000>    -14.679187184570
    7    -0.00451282   2.03655e-05          79 |02020200000000000000000000000000000000000000000000000000000000000000000000000000000000000000000000000000000000000000000000000000>    -16.536973037810
    8    -0.00451282   2.03655e-05          78 |02002200000000000000000000000000000000000000000000000000000000000000000000000000000000000000000000000000000000000000000000000000>    -16.536973037810
    9    -0.00409228   1.67467e-05          17 |-+000200020000000000000000000000000000000000000000000000000000000000000000000000000000000000000000000000000000000000000000000000>    -14.744117532961

  Spin State: S^2 = 0.000, S = 0.000, singlet (from 3 determinants,97.90%)

  ==> Estimate highest excitation energy <==
  Highest Excited determinant:
  |00022020000000000000000000000000000000000000000000000000000000000000000000000000000000000000000000000000000000000000000000000000>
  Determinant Energy                    :  -2.573638388843
  Highest Energy Gershgorin circle Est. :  -1.099642416461

  ==> Characteristic Function <==
    f(x) = -1.000000e+00 * x +0.000000e+00
    with tau = 1.000000e+00, shift = -10.254093370594, range = 6.773153506118
    Initial guess: lambda_1= -14.645949428697
    Est. Highest eigenvalue= -1.099642416461

  ==> PCI Iterations <==

  ------------------------------------------------------------------------------------------------
    Steps  Beta/Eh      Ndets     Proj. Energy/Eh     dEp/dt      Approx. Energy/Eh   dEv/dt
  ------------------------------------------------------------------------------------------------
        0     0.00        388     -14.645955389771 -5.961e-08     -14.645330126288 -2.149e-07
      100   100.00        388     -14.646193290888 -2.379e-06     -14.645461766825 -1.316e-06
      200   200.00        388     -14.646275612540 -8.232e-07     -14.645402862388  5.890e-07
      300   300.00        392     -14.646240232148  3.538e-07     -14.645404098138 -1.236e-08
      400   400.00        392     -14.646222991307  1.724e-07     -14.645404173321 -7.518e-10
      500   500.00        392     -14.646216758991  6.232e-08     -14.645404121077  5.224e-10
      600   600.00        392     -14.646214312882  2.446e-08     -14.645404159976 -3.890e-10
      700   700.00        392     -14.646213275875  1.037e-08     -14.645404045108  1.149e-09
      800   800.00        392     -14.646212791408  4.845e-09     -14.645404036674  8.433e-11
      900   900.00        392     -14.646212586734  2.047e-09     -14.645404033081  3.593e-11
     1000  1000.00        392     -14.646212500234  8.650e-10     -14.645404031564  1.517e-11
     1100  1100.00        392     -14.646212463725  3.651e-10     -14.645404030927  6.379e-12
     1200  1200.00        392     -14.646212448334  1.539e-10     -14.645404030659  2.679e-12
     1300  1300.00        392     -14.646212441854  6.481e-11     -14.645404030546  1.125e-12
     1400  1400.00        392     -14.646212439126  2.727e-11     -14.645404030499  4.718e-13
     1500  1500.00        392     -14.646212437979  1.147e-11
  ------------------------------------------------------------------------------------------------

  Calculation converged.

  ==> Post-Iterations <==

  * Projector-CI Variational Energy     =   -14.646162384728 Eh
  * Projector-CI Projective  Energy     =   -14.646212437979 Eh

  * Projector-CI Approximate Energy     =   -14.645404030499 Eh
  * 1st order perturbation   Energy     =    -0.000758354229 Eh
  * Projector-CI Var. Corr.  Energy     =    -0.036417646638 Eh

  * Size of CI space                    = 392

  Projector-CI (bitset) ran in  : 11.168634 s

  Most important contributions to the wave function:

    0      -0.933026      0.870538          98 |22000200000000000000000000000000000000000000000000000000000000000000000000000000000000000000000000000000000000000000000000000000>    -16.991042186105
    1       0.230625     0.0531877         104 |02000200200000000000000000000000000000000000000000000000000000000000000000000000000000000000000000000000000000000000000000000000>    -16.839359201914
    2       0.230625     0.0531877         105 |02000200020000000000000000000000000000000000000000000000000000000000000000000000000000000000000000000000000000000000000000000000>    -16.839359201914
    3       0.125484     0.0157462         103 |02000202000000000000000000000000000000000000000000000000000000000000000000000000000000000000000000000000000000000000000000000000>    -16.757530762194
    4      0.0807606    0.00652227          99 |02200200000000000000000000000000000000000000000000000000000000000000000000000000000000000000000000000000000000000000000000000000>    -16.716835524310
    5      0.0143057   0.000204654         187 |-2+00200000000000000000000000000000000000000000000000000000000000000000000000000000000000000000000000000000000000000000000000000>    -16.869832705260
    6      0.0143057   0.000204654         186 |+2-00200000000000000000000000000000000000000000000000000000000000000000000000000000000000000000000000000000000000000000000000000>    -16.869832705260
    7    -0.00545008   2.97033e-05         331 |+-000202000000000000000000000000000000000000000000000000000000000000000000000000000000000000000000000000000000000000000000000000>    -14.679187184570
    8    -0.00545008   2.97033e-05         324 |-+000202000000000000000000000000000000000000000000000000000000000000000000000000000000000000000000000000000000000000000000000000>    -14.679187184570
    9     -0.0042391   1.79699e-05         101 |02002200000000000000000000000000000000000000000000000000000000000000000000000000000000000000000000000000000000000000000000000000>    -16.536973037810

  Spin State: S^2 = 0.000, S = 0.000, singlet (from 3 determinants,97.69%)

  ==> Post-Diagonalization <==


  Davidson-liu solver algorithm
  Generating determinants with N-1 electrons.

  Time spent building single lists: 0.004670 s
  Memory for single-hole lists: 0.016937 MB
  Memory for single-hole maps:  0.067749 MB
  Generating determinants with N-2 electrons.

  Memory for double-hole lists: 0.021835 MB
  Memory for double-hole maps:  0.072784 MB
  Initial guess space is incomplete.
  Trying to add 48 determinant(s).  44 determinant(s) added.
  Found a guess vector with spin not close to integer value (4.123106)
  Found a guess vector with spin not close to integer value (4.123106)
  Initial guess found 102 solutions with 2S+1 = 1 *
  Initial guess found 114 solutions with 2S+1 = 3  
  Initial guess found 26 solutions with 2S+1 = 5  
  Adding guess 0 (multiplicity = 1.000000)
  Adding guess 1 (multiplicity = 1.000000)

  ==> Diagonalizing Hamiltonian <==

  ----------------------------------------
    Iter.      Avg. Energy       Delta_E
  ----------------------------------------
      1      -17.027324417780  -1.703e+01
      2      -17.027461439072  -1.370e-04
      3      -17.027462213647  -7.746e-07
      4      -17.027462232059  -1.841e-08
      5      -17.027462236276  -4.216e-09
      6      -17.027462236385  -1.094e-10
      7      -17.027462236389  -3.837e-12
      8      -17.027462236389  -5.507e-13
  ----------------------------------------
  The Davidson-Liu algorithm converged in 9 iterations.

  * Projector-CI Post-diag   Energy     =   -14.646164788374 Eh
  * Projector-CI Var. Corr.  Energy     =    -0.036420050285 Eh

  Most important contributions to the wave function:

    0      -0.933176      0.870817          98 |22000200000000000000000000000000000000000000000000000000000000000000000000000000000000000000000000000000000000000000000000000000>    -16.991042186105
    1       0.230259     0.0530194         105 |02000200020000000000000000000000000000000000000000000000000000000000000000000000000000000000000000000000000000000000000000000000>    -16.839359201914
    2       0.230259     0.0530194         104 |02000200200000000000000000000000000000000000000000000000000000000000000000000000000000000000000000000000000000000000000000000000>    -16.839359201914
    3       0.125636     0.0157844         103 |02000202000000000000000000000000000000000000000000000000000000000000000000000000000000000000000000000000000000000000000000000000>    -16.757530762194
    4      0.0805778    0.00649278          99 |02200200000000000000000000000000000000000000000000000000000000000000000000000000000000000000000000000000000000000000000000000000>    -16.716835524310
    5      0.0150687   0.000227067         187 |-2+00200000000000000000000000000000000000000000000000000000000000000000000000000000000000000000000000000000000000000000000000000>    -16.869832705260
    6      0.0150687   0.000227067         186 |+2-00200000000000000000000000000000000000000000000000000000000000000000000000000000000000000000000000000000000000000000000000000>    -16.869832705260
    7    -0.00546938   2.99141e-05         331 |+-000202000000000000000000000000000000000000000000000000000000000000000000000000000000000000000000000000000000000000000000000000>    -14.679187184570
    8    -0.00546938   2.99141e-05         324 |-+000202000000000000000000000000000000000000000000000000000000000000000000000000000000000000000000000000000000000000000000000000>    -14.679187184570
    9    -0.00418293   1.74969e-05         100 |02020200000000000000000000000000000000000000000000000000000000000000000000000000000000000000000000000000000000000000000000000000>    -16.536973037810

  Spin State: S^2 = 0.000, S = 0.000, singlet (from 3 determinants,97.69%)	PCI energy........................................................PASSED
	POST DIAG energy..................................................PASSED

    Psi4 stopped on: Thursday, 10 January 2019 05:18PM
    Psi4 wall time for execution: 0:00:13.01

*** Psi4 exiting successfully. Buy a developer a beer!
