
    -----------------------------------------------------------------------
          Psi4: An Open-Source Ab Initio Electronic Structure Package
                               Psi4 undefined 

                         Git: Rev {mints_oei} 4aa373e 


    R. M. Parrish, L. A. Burns, D. G. A. Smith, A. C. Simmonett,
    A. E. DePrince III, E. G. Hohenstein, U. Bozkaya, A. Yu. Sokolov,
    R. Di Remigio, R. M. Richard, J. F. Gonthier, A. M. James,
    H. R. McAlexander, A. Kumar, M. Saitow, X. Wang, B. P. Pritchard,
    P. Verma, H. F. Schaefer III, K. Patkowski, R. A. King, E. F. Valeev,
    F. A. Evangelista, J. M. Turney, T. D. Crawford, and C. D. Sherrill,
    J. Chem. Theory Comput. 13(7) pp 3185--3197 (2017).
    (doi: 10.1021/acs.jctc.7b00174)


                         Additional Contributions by
    P. Kraus, H. Kruse, M. H. Lechner, M. C. Schieber, R. A. Shaw,
    A. Alenaizan, R. Galvelis, Z. L. Glick, S. Lehtola, and J. P. Misiewicz

    -----------------------------------------------------------------------


    Psi4 started on: Sunday, 19 January 2020 07:45PM

    Process ID: 85536
    Host:       CHE-FEVANGE-01I (2)
    PSIDATADIR: /Users/fevange/Source/psi4/objdir-Debug/stage/share/psi4
    Memory:     500.0 MiB
    Threads:    1
    
  ==> Input File <==

--------------------------------------------------------------------------
#! This tests the Adaptive Path-Integral FCI procedure with dynamic prescreening
#! Generated using commit GITCOMMIT

import forte

refscf = -14.6097447380899581 #TEST
refpci = -14.646162606275 #TEST

molecule li2{
   Li
   Li 1 2.0000
}

set {
  basis sto-3g
  scf_type pk
  e_convergence 12
}

set forte {
  active_space_solver pci
  nroot 1
  charge 0
  PCI_GENERATOR DL
  pci_spawning_threshold 0.0001
  pci_USE_INTER_NORM true
  orbital_type MP2_NOS
  sci_max_cycle 100000.00
  pci_e_convergence 1.0e-10
  PCI_STOP_HIGHER_NEW_LOW true
}

energy('scf')
compare_values(refscf, variable("CURRENT ENERGY"), 11, "SCF energy") #TEST

energy('forte')
compare_values(refpci, variable("PCI ENERGY"), 8, "PCI energy") #TEST
--------------------------------------------------------------------------

Scratch directory: /tmp/

*** tstart() called on CHE-FEVANGE-01I (2)
*** at Sun Jan 19 19:45:34 2020

   => Loading Basis Set <=

    Name: STO-3G
    Role: ORBITAL
    Keyword: BASIS
    atoms 1-2 entry LI         line    31 file /Users/fevange/Source/psi4/objdir-Debug/stage/share/psi4/basis/sto-3g.gbs 


         ---------------------------------------------------------
                                   SCF
               by Justin Turney, Rob Parrish, Andy Simmonett
                          and Daniel G. A. Smith
                              RHF Reference
                        1 Threads,    500 MiB Core
         ---------------------------------------------------------

  ==> Geometry <==

    Molecular point group: d2h
    Full point group: D_inf_h

    Geometry (in Angstrom), charge = 0, multiplicity = 1:

       Center              X                  Y                   Z               Mass       
    ------------   -----------------  -----------------  -----------------  -----------------
         LI           0.000000000000     0.000000000000    -1.000000000000     7.016003436600
         LI           0.000000000000     0.000000000000     1.000000000000     7.016003436600

  Running in d2h symmetry.

  Rotational constants: A = ************  B =      1.20137  C =      1.20137 [cm^-1]
  Rotational constants: A = ************  B =  36016.16030  C =  36016.16030 [MHz]
  Nuclear repulsion =    2.381297448014999

  Charge       = 0
  Multiplicity = 1
  Electrons    = 6
  Nalpha       = 3
  Nbeta        = 3

  ==> Algorithm <==

  SCF Algorithm Type is PK.
  DIIS enabled.
  MOM disabled.
  Fractional occupation disabled.
  Guess Type is SAD.
  Energy threshold   = 1.00e-12
  Density threshold  = 1.00e-06
  Integral threshold = 0.00e+00

  ==> Primary Basis <==

  Basis Set: STO-3G
    Blend: STO-3G
    Number of shells: 6
    Number of basis function: 10
    Number of Cartesian functions: 10
    Spherical Harmonics?: true
    Max angular momentum: 1

  ==> Pre-Iterations <==

   -------------------------------------------------------
    Irrep   Nso     Nmo     Nalpha   Nbeta   Ndocc  Nsocc
   -------------------------------------------------------
     Ag         3       3       0       0       0       0
     B1g        0       0       0       0       0       0
     B2g        1       1       0       0       0       0
     B3g        1       1       0       0       0       0
     Au         0       0       0       0       0       0
     B1u        3       3       0       0       0       0
     B2u        1       1       0       0       0       0
     B3u        1       1       0       0       0       0
   -------------------------------------------------------
    Total      10      10       3       3       3       0
   -------------------------------------------------------

  ==> Integral Setup <==

  Using in-core PK algorithm.
   Calculation information:
      Number of atoms:                   2
      Number of AO shells:               6
      Number of primitives:             18
      Number of atomic orbitals:        10
      Number of basis functions:        10

      Integral cutoff                 1.00e-12
      Number of threads:                 1

  Performing in-core PK
  Using 3080 doubles for integral storage.
  We computed 231 shell quartets total.
  Whereas there are 231 unique shell quartets.

  ==> DiskJK: Disk-Based J/K Matrices <==

    J tasked:                  Yes
    K tasked:                  Yes
    wK tasked:                  No
    Memory [MiB]:              375
    Schwarz Cutoff:          1E-12

    OpenMP threads:              1

  Minimum eigenvalue in the overlap matrix is 4.0289192732E-02.
    Using symmetric orthogonalization.
  SCF Guess: Superposition of Atomic Densities via on-the-fly atomic UHF.

  ==> Iterations <==

                        Total Energy        Delta E     RMS |[F,P]|

   @RHF iter SAD:   -14.32919906398003   -1.43292e+01   0.00000e+00 
   @RHF iter   1:   -14.60959455128992   -2.80395e-01   3.94648e-03 DIIS
   @RHF iter   2:   -14.60974214056700   -1.47589e-04   4.99384e-04 DIIS
   @RHF iter   3:   -14.60974467191372   -2.53135e-06   3.34577e-05 DIIS
   @RHF iter   4:   -14.60974473163518   -5.97215e-08   7.98550e-06 DIIS
   @RHF iter   5:   -14.60974473808900   -6.45383e-09   1.57371e-07 DIIS
   @RHF iter   6:   -14.60974473808996   -9.57456e-13   1.19697e-09 DIIS
  Energy and wave function converged.


  ==> Post-Iterations <==

    Orbital Energies [Eh]
    ---------------------

    Doubly Occupied:                                                      

       1Ag    -2.340313     1B1u   -2.335347     2Ag    -0.163839  

    Virtual:                                                              

       2B1u    0.093646     1B2u    0.108933     1B3u    0.108933  
       3Ag     0.176245     1B2g    0.275579     1B3g    0.275579  
       3B1u    0.645556  

    Final Occupation by Irrep:
             Ag   B1g   B2g   B3g    Au   B1u   B2u   B3u 
    DOCC [     2,    0,    0,    0,    0,    1,    0,    0 ]

  @RHF Final Energy:   -14.60974473808996

   => Energetics <=

    Nuclear Repulsion Energy =              2.3812974480149989
    One-Electron Energy =                 -24.3030864774961373
    Two-Electron Energy =                   7.3120442913911772
    Total Energy =                        -14.6097447380899617

Computation Completed


Properties will be evaluated at   0.000000,   0.000000,   0.000000 [a0]

Properties computed using the SCF density matrix

  Nuclear Dipole Moment: [e a0]
     X:     0.0000      Y:     0.0000      Z:     0.0000

  Electronic Dipole Moment: [e a0]
     X:     0.0000      Y:     0.0000      Z:     0.0000

  Dipole Moment: [e a0]
     X:     0.0000      Y:     0.0000      Z:     0.0000     Total:     0.0000

  Dipole Moment: [D]
     X:     0.0000      Y:     0.0000      Z:     0.0000     Total:     0.0000


*** tstop() called on CHE-FEVANGE-01I (2) at Sun Jan 19 19:45:35 2020
Module time:
	user time   =       0.27 seconds =       0.00 minutes
	system time =       0.01 seconds =       0.00 minutes
	total time  =          1 seconds =       0.02 minutes
Total time:
	user time   =       0.27 seconds =       0.00 minutes
	system time =       0.01 seconds =       0.00 minutes
	total time  =          1 seconds =       0.02 minutes
    SCF energy........................................................PASSED

Scratch directory: /tmp/

*** tstart() called on CHE-FEVANGE-01I (2)
*** at Sun Jan 19 19:45:35 2020

   => Loading Basis Set <=

    Name: STO-3G
    Role: ORBITAL
    Keyword: BASIS
    atoms 1-2 entry LI         line    31 file /Users/fevange/Source/psi4/objdir-Debug/stage/share/psi4/basis/sto-3g.gbs 


         ---------------------------------------------------------
                                   SCF
               by Justin Turney, Rob Parrish, Andy Simmonett
                          and Daniel G. A. Smith
                              RHF Reference
                        1 Threads,    500 MiB Core
         ---------------------------------------------------------

  ==> Geometry <==

    Molecular point group: d2h
    Full point group: D_inf_h

    Geometry (in Angstrom), charge = 0, multiplicity = 1:

       Center              X                  Y                   Z               Mass       
    ------------   -----------------  -----------------  -----------------  -----------------
         LI           0.000000000000     0.000000000000    -1.000000000000     7.016003436600
         LI           0.000000000000     0.000000000000     1.000000000000     7.016003436600

  Running in d2h symmetry.

  Rotational constants: A = ************  B =      1.20137  C =      1.20137 [cm^-1]
  Rotational constants: A = ************  B =  36016.16030  C =  36016.16030 [MHz]
  Nuclear repulsion =    2.381297448014998

  Charge       = 0
  Multiplicity = 1
  Electrons    = 6
  Nalpha       = 3
  Nbeta        = 3

  ==> Algorithm <==

  SCF Algorithm Type is PK.
  DIIS enabled.
  MOM disabled.
  Fractional occupation disabled.
  Guess Type is SAD.
  Energy threshold   = 1.00e-12
  Density threshold  = 1.00e-08
  Integral threshold = 0.00e+00

  ==> Primary Basis <==

  Basis Set: STO-3G
    Blend: STO-3G
    Number of shells: 6
    Number of basis function: 10
    Number of Cartesian functions: 10
    Spherical Harmonics?: true
    Max angular momentum: 1

  ==> Pre-Iterations <==

   -------------------------------------------------------
    Irrep   Nso     Nmo     Nalpha   Nbeta   Ndocc  Nsocc
   -------------------------------------------------------
     Ag         3       3       0       0       0       0
     B1g        0       0       0       0       0       0
     B2g        1       1       0       0       0       0
     B3g        1       1       0       0       0       0
     Au         0       0       0       0       0       0
     B1u        3       3       0       0       0       0
     B2u        1       1       0       0       0       0
     B3u        1       1       0       0       0       0
   -------------------------------------------------------
    Total      10      10       3       3       3       0
   -------------------------------------------------------

  ==> Integral Setup <==

  Using in-core PK algorithm.
   Calculation information:
      Number of atoms:                   2
      Number of AO shells:               6
      Number of primitives:             18
      Number of atomic orbitals:        10
      Number of basis functions:        10

      Integral cutoff                 1.00e-12
      Number of threads:                 1

  Performing in-core PK
  Using 3080 doubles for integral storage.
  We computed 231 shell quartets total.
  Whereas there are 231 unique shell quartets.

  ==> DiskJK: Disk-Based J/K Matrices <==

    J tasked:                  Yes
    K tasked:                  Yes
    wK tasked:                  No
    Memory [MiB]:              375
    Schwarz Cutoff:          1E-12

    OpenMP threads:              1

  Minimum eigenvalue in the overlap matrix is 4.0289192732E-02.
    Using symmetric orthogonalization.
  SCF Guess: Superposition of Atomic Densities via on-the-fly atomic UHF.

  ==> Iterations <==

                        Total Energy        Delta E     RMS |[F,P]|

   @RHF iter SAD:   -14.32919906398002   -1.43292e+01   0.00000e+00 
   @RHF iter   1:   -14.60959455128992   -2.80395e-01   3.94648e-03 DIIS
   @RHF iter   2:   -14.60974214056701   -1.47589e-04   4.99384e-04 DIIS
   @RHF iter   3:   -14.60974467191372   -2.53135e-06   3.34577e-05 DIIS
   @RHF iter   4:   -14.60974473163519   -5.97215e-08   7.98550e-06 DIIS
   @RHF iter   5:   -14.60974473808901   -6.45382e-09   1.57371e-07 DIIS
   @RHF iter   6:   -14.60974473808997   -9.50351e-13   1.19697e-09 DIIS
  Energy and wave function converged.


  ==> Post-Iterations <==

    Orbital Energies [Eh]
    ---------------------

    Doubly Occupied:                                                      

       1Ag    -2.340313     1B1u   -2.335347     2Ag    -0.163839  

    Virtual:                                                              

       2B1u    0.093646     1B2u    0.108933     1B3u    0.108933  
       3Ag     0.176245     1B2g    0.275579     1B3g    0.275579  
       3B1u    0.645556  

    Final Occupation by Irrep:
             Ag   B1g   B2g   B3g    Au   B1u   B2u   B3u 
    DOCC [     2,    0,    0,    0,    0,    1,    0,    0 ]

  @RHF Final Energy:   -14.60974473808997

   => Energetics <=

    Nuclear Repulsion Energy =              2.3812974480149980
    One-Electron Energy =                 -24.3030864774961444
    Two-Electron Energy =                   7.3120442913911825
    Total Energy =                        -14.6097447380899652

Computation Completed


Properties will be evaluated at   0.000000,   0.000000,   0.000000 [a0]

Properties computed using the SCF density matrix

  Nuclear Dipole Moment: [e a0]
     X:     0.0000      Y:     0.0000      Z:     0.0000

  Electronic Dipole Moment: [e a0]
     X:     0.0000      Y:     0.0000      Z:     0.0000

  Dipole Moment: [e a0]
     X:     0.0000      Y:     0.0000      Z:     0.0000     Total:     0.0000

  Dipole Moment: [D]
     X:     0.0000      Y:     0.0000      Z:     0.0000     Total:     0.0000


*** tstop() called on CHE-FEVANGE-01I (2) at Sun Jan 19 19:45:35 2020
Module time:
	user time   =       0.25 seconds =       0.00 minutes
	system time =       0.01 seconds =       0.00 minutes
	total time  =          0 seconds =       0.00 minutes
Total time:
	user time   =       0.54 seconds =       0.01 minutes
	system time =       0.02 seconds =       0.00 minutes
	total time  =          1 seconds =       0.02 minutes
   => Loading Basis Set <=

    Name: STO-3G
    Role: ORBITAL
    Keyword: MINAO_BASIS
    atoms 1-2 entry LI         line    31 file /Users/fevange/Source/psi4/objdir-Debug/stage/share/psi4/basis/sto-3g.gbs 


  Forte
  ----------------------------------------------------------------------------
  A suite of quantum chemistry methods for strongly correlated electrons

    git branch: onedet - git commit: f245d93e

  Developed by:
    Francesco A. Evangelista, Chenyang Li, Kevin P. Hannon,
    Jeffrey B. Schriber, Tianyuan Zhang, Chenxi Cai,
    Nan He, Nicholas Stair, Shuhe Wang, Renke Huang
  ----------------------------------------------------------------------------

  Size of Determinant class: 256 bits

  ==> MO Space Information <==

  -------------------------------------------------------------------------
                       Ag   B1g   B2g   B3g    Au   B1u   B2u   B3u   Sum
  -------------------------------------------------------------------------
    FROZEN_DOCC         0     0     0     0     0     0     0     0     0
    RESTRICTED_DOCC     0     0     0     0     0     0     0     0     0
    ACTIVE              3     0     1     1     0     3     1     1    10
    RESTRICTED_UOCC     0     0     0     0     0     0     0     0     0
    FROZEN_UOCC         0     0     0     0     0     0     0     0     0
    Total               3     0     1     1     0     3     1     1    10
  -------------------------------------------------------------------------

  ==> Integral Transformation <==

  Number of molecular orbitals:                    10
  Number of correlated molecular orbitals:         10
  Number of frozen occupied orbitals:               0
  Number of frozen unoccupied orbitals:             0
  Two-electron integral type:              Conventional


  Overall Conventional Integrals timings

	Presorting SO-basis two-electron integrals.
	Sorting File: SO Ints (nn|nn) nbuckets = 1
	Transforming the one-electron integrals and constructing Fock matrices
	Starting first half-transformation.
	Sorting half-transformed integrals.
	First half integral transformation complete.
	Starting second half-transformation.
	Two-electron integral transformation complete.

  Integral transformation done. 0.01150967 s
  Reading the two-electron integrals from disk
  Size of two-electron integrals:   0.000224 GB
  Timing for freezing core and virtual orbitals:              0.000 s.
  Conventional integrals take 0.04374380 s

                ------------------------------------------------
                  Second-Order Moller-Plesset Natural Orbitals
                      written by Francesco A. Evangelista
                ------------------------------------------------


    SCF energy                            =  -14.609744738089965
    MP2 correlation energy                =   -0.018767063852421
  * MP2 total energy                      =  -14.628511801942386


 Integrals are about to be computed.	Presorting SO-basis two-electron integrals.
	Sorting File: SO Ints (nn|nn) nbuckets = 1
	Transforming the one-electron integrals and constructing Fock matrices
	Starting first half-transformation.
	Sorting half-transformed integrals.
	First half integral transformation complete.
	Starting second half-transformation.
	Two-electron integral transformation complete.

  Integral transformation done. 0.01074931 s
  Reading the two-electron integrals from disk
  Size of two-electron integrals:   0.000224 GB
 Integrals are about to be updated.
  Timing for freezing core and virtual orbitals:              0.000 s.

  ==> Summary of Active Space Solver Input <==

    Irrep.  Multi.  Nstates
    -------------------------
      Ag       1        1
    -------------------------
    Total number of states: 1
    -------------------------

  Number of active alpha electrons: 3
  Number of active beta electrons: 3
  Maximum reference space size: 1000
  |2200020000>

-------------------------------------------------------------------------------
               Selected Configuration Interaction Excited States
  written by Jeffrey B. Schriber, Tianyuan Zhang and Francesco A. Evangelista
-------------------------------------------------------------------------------

  ==> Reference Information <==

  ==> Calculation Information <==

  -----------------------------------------------------------------
    Multiplicity                             1    
    Symmetry                                 0    
    Number of roots                          1    
    Ms                                       0
    Excited Algorithm                        NONE
  -----------------------------------------------------------------
  Using 1 threads
  Computing wavefunction for root 0

	  ---------------------------------------------------------
	              Projector Configuration Interaction
	         by Francesco A. Evangelista and Tianyuan Zhang
	                       1 thread(s) (OMP)
	  ---------------------------------------------------------

  ==> Calculation Information <==

    Symmetry                                         0
    Multiplicity                                     1
    Number of roots                                  1
    Root used for properties                         0
    Maximum number of iterations                100000
    Energy estimation frequency                      1
    Number of threads                                1
    Spawning threshold                       1.000e-04
    Initial guess spawning threshold         1.000e-03
    Convergence threshold                    1.000e-10
    Energy estimate tollerance               1.000e-06
    Generator type                          Davidson-Liu by Tianyuan
    Importance functional                   |Hij|*max(|Ci|,|Cj|)
    Shift the energy                                NO
    Use intermediate normalization                 YES
    Fast variational estimate                       NO
    Result perturbation analysis                    NO
    Using OpenMP                                   YES

  ==> Initial Guess <==

  Initial guess size = 88
  Spin multiplicity of root 80 not close to integer (4.1231)
  Spin multiplicity of root 81 not close to integer (4.1231)
  Found 46 roots with 2S+1 = 1 *
  Found 34 roots with 2S+1 = 3
  Found 6 roots with 2S+1 = 5

  Initial guess energy (variational) =     -14.645949428697 Eh (root = 1)

  Most important contributions to the wave function:

    0      -0.933702      0.871799           0 |22000200000000000000000000000000000000000000000000000000000000000000000000000000000000000000000000000000000000000000000000000000>    -16.991042186105
    1       0.231475     0.0535807           1 |02000200200000000000000000000000000000000000000000000000000000000000000000000000000000000000000000000000000000000000000000000000>    -16.839359201914
    2       0.231475     0.0535807           2 |02000200020000000000000000000000000000000000000000000000000000000000000000000000000000000000000000000000000000000000000000000000>    -16.839359201914
    3       0.119343     0.0142427           3 |02000202000000000000000000000000000000000000000000000000000000000000000000000000000000000000000000000000000000000000000000000000>    -16.757530762194
    4      0.0801595    0.00642555           4 |02200200000000000000000000000000000000000000000000000000000000000000000000000000000000000000000000000000000000000000000000000000>    -16.716835524310
    5    -0.00514605   2.64818e-05           5 |+-000202000000000000000000000000000000000000000000000000000000000000000000000000000000000000000000000000000000000000000000000000>    -14.679187184570
    6    -0.00514605   2.64818e-05           6 |-+000202000000000000000000000000000000000000000000000000000000000000000000000000000000000000000000000000000000000000000000000000>    -14.679187184570
    7    -0.00451282   2.03655e-05           7 |02002200000000000000000000000000000000000000000000000000000000000000000000000000000000000000000000000000000000000000000000000000>    -16.536973037810
    8    -0.00451282   2.03655e-05           8 |02020200000000000000000000000000000000000000000000000000000000000000000000000000000000000000000000000000000000000000000000000000>    -16.536973037810
    9    -0.00409228   1.67467e-05           9 |-+000200200000000000000000000000000000000000000000000000000000000000000000000000000000000000000000000000000000000000000000000000>    -14.744117532962

  Spin State: S^2 = 0.000, S = 0.000, singlet (from 3 determinants,97.90%)

  ==> Estimate highest excitation energy <==
  Highest Excited determinant:
  |00022020000000000000000000000000000000000000000000000000000000000000000000000000000000000000000000000000000000000000000000000000>
  Determinant Energy                    :  -4.954935836858
  Highest Energy Gershgorin circle Est. :  -3.480939864476

  ==> Characteristic Function <==
    f(x) = 
    with shift = -10.254093370594, range = 6.773153506118
    Initial guess: lambda_1= -17.027246876712
    Est. Highest eigenvalue= -3.480939864476

  ==> PCI Iterations <==

  --------------------------------------------------------------------------------------------------------------~
    Steps  Beta/Eh      Ndets      NoffDiag     Proj. Energy/Eh     dEp/dt      Approx. Energy/Eh   dEv/dt      ~
  --------------------------------------------------------------------------------------------------------------~

  Davidson-liu solver algorithm
  Found a guess vector with spin not close to integer value (4.123106)
  Found a guess vector with spin not close to integer value (4.123106)
  Initial guess found 80 solutions with 2S+1 = 1 *
  Initial guess found 103 solutions with 2S+1 = 3  
  Initial guess found 15 solutions with 2S+1 = 5  

  ==> Diagonalizing Hamiltonian <==

  ----------------------------------------
    Iter.      Avg. Energy       Delta_E     Residual norm
  ----------------------------------------
      1      -17.027258803964  -1.703e+01  +2.363e-02
      2      -17.027382429583  -1.236e-04  +7.690e-03
      3      -17.027394046112  -1.162e-05  +5.991e-03
      4      -17.027405732121  -1.169e-05  +3.899e-03
      5      -17.027408547061  -2.815e-06  +4.000e-03
      6      -17.027411770997  -3.224e-06  +4.100e-03
      7      -17.027429919036  -1.815e-05  +6.817e-03
      8      -17.027458090993  -2.817e-05  +8.172e-03
      9      -17.027471573760  -1.348e-05  +6.056e-03
     10      -17.027479609577  -8.036e-06  +2.562e-03
     11      -17.027481059956  -1.450e-06  +2.164e-03
     12      -17.027481634490  -5.745e-07  +1.757e-03
     13      -17.027482160883  -5.264e-07  +1.297e-03
     14      -17.027482516959  -3.561e-07  +9.688e-04
     15      -17.027482594364  -7.740e-08  +8.555e-04
     16      -17.027482623060  -2.870e-08  +8.008e-04
     17      -17.027482632519  -9.458e-09  +7.897e-04
     18      -17.027482636897  -4.378e-09  +7.855e-04
     19      -17.027482639603  -2.706e-09  +7.820e-04
     20      -17.027482641260  -1.657e-09  +7.797e-04
     21      -17.027482642206  -9.453e-10  +7.782e-04
     22      -17.027482643037  -8.315e-10  +7.769e-04
     23      -17.027482643354  -3.170e-10  +7.765e-04
     24      -17.027482643416  -6.160e-11  +7.765e-04
  ----------------------------------------
  The Davidson-Liu algorithm converged in 25 iterations.
        0       38        388          1834     -14.646185663377 -2.362e-04     -14.646185195401  1.000e+00     ~

  Davidson-liu solver algorithm
  Initial guess found 80 solutions with 2S+1 = 1 *
  Initial guess found 105 solutions with 2S+1 = 3  
  Initial guess found 15 solutions with 2S+1 = 5  

  ==> Diagonalizing Hamiltonian <==

  ----------------------------------------
    Iter.      Avg. Energy       Delta_E     Residual norm
  ----------------------------------------
      1      -17.027451778122  -1.703e+01  +4.031e-03
      2      -17.027457769942  -5.992e-06  +2.793e-03
      3      -17.027458947210  -1.177e-06  +1.993e-03
      4      -17.027459433770  -4.866e-07  +1.592e-03
      5      -17.027459917085  -4.833e-07  +1.395e-03
      6      -17.027460052511  -1.354e-07  +1.248e-03
      7      -17.027460106927  -5.442e-08  +1.182e-03
      8      -17.027460141108  -3.418e-08  +1.164e-03
      9      -17.027460154273  -1.317e-08  +1.152e-03
     10      -17.027460160842  -6.569e-09  +1.142e-03
     11      -17.027460169763  -8.921e-09  +1.135e-03
     12      -17.027460172556  -2.793e-09  +1.133e-03
     13      -17.027460173752  -1.196e-09  +1.132e-03
     14      -17.027460175134  -1.382e-09  +1.132e-03
     15      -17.027460175874  -7.403e-10  +1.131e-03
     16      -17.027460176334  -4.605e-10  +1.130e-03
     17      -17.027460177204  -8.700e-10  +1.129e-03
     18      -17.027460177779  -5.747e-10  +1.129e-03
     19      -17.027460178244  -4.650e-10  +1.128e-03
     20      -17.027460178804  -5.599e-10  +1.128e-03
     21      -17.027460179206  -4.016e-10  +1.127e-03
     22      -17.027460179533  -3.272e-10  +1.127e-03
     23      -17.027460179991  -4.581e-10  +1.126e-03
     24      -17.027460180330  -3.388e-10  +1.125e-03
     25      -17.027460180737  -4.073e-10  +1.125e-03
     26      -17.027460181135  -3.985e-10  +1.124e-03
     27      -17.027460181428  -2.924e-10  +1.124e-03
     28      -17.027460181651  -2.237e-10  +1.123e-03
     29      -17.027460181878  -2.266e-10  +1.122e-03
     30      -17.027460182077  -1.992e-10  +1.122e-03
     31      -17.027460182437  -3.599e-10  +1.121e-03
     32      -17.027460182941  -5.035e-10  +1.120e-03
     33      -17.027460183341  -3.999e-10  +1.119e-03
     34      -17.027460183559  -2.183e-10  +1.118e-03
     35      -17.027460183709  -1.497e-10  +1.118e-03
     36      -17.027460183854  -1.451e-10  +1.117e-03
     37      -17.027460184277  -4.237e-10  +1.116e-03
     38      -17.027460185496  -1.219e-09  +1.113e-03
     39      -17.027460186542  -1.045e-09  +1.111e-03
     40      -17.027460186872  -3.300e-10  +1.110e-03
     41      -17.027460186991  -1.192e-10  +1.110e-03
     42      -17.027460187101  -1.103e-10  +1.110e-03
     43      -17.027460187649  -5.484e-10  +1.108e-03
     44      -17.027460191950  -4.300e-09  +1.094e-03
     45      -17.027460195905  -3.955e-09  +1.089e-03
     46      -17.027460196577  -6.714e-10  +1.089e-03
     47      -17.027460196755  -1.779e-10  +1.088e-03
     48      -17.027460196852  -9.703e-11  +1.088e-03
  ----------------------------------------
  The Davidson-Liu algorithm converged in 49 iterations.
        1       78        408          2162     -14.646164327139  2.134e-05     -14.646162748837  2.245e-05     ~

  Davidson-liu solver algorithm
  Found a guess vector with spin not close to integer value (4.123106)
  Found a guess vector with spin not close to integer value (4.123106)
  Initial guess found 80 solutions with 2S+1 = 1 *
  Initial guess found 103 solutions with 2S+1 = 3  
  Initial guess found 15 solutions with 2S+1 = 5  

  ==> Diagonalizing Hamiltonian <==

  ----------------------------------------
    Iter.      Avg. Energy       Delta_E     Residual norm
  ----------------------------------------
      1      -17.027459741843  -1.703e+01  +1.232e-03
      2      -17.027459887983  -1.461e-07  +9.694e-04
      3      -17.027459948271  -6.029e-08  +8.296e-04
      4      -17.027459963377  -1.511e-08  +8.155e-04
      5      -17.027460010365  -4.699e-08  +8.072e-04
      6      -17.027460013385  -3.020e-09  +8.014e-04
      7      -17.027460015091  -1.707e-09  +7.994e-04
      8      -17.027460015337  -2.455e-10  +7.992e-04
      9      -17.027460015385  -4.794e-11  +7.991e-04
  ----------------------------------------
  The Davidson-Liu algorithm converged in 10 iterations.
        2       13        396          2134     -14.646163035085  1.292e-06     -14.646162567370  1.815e-07     ~

  Davidson-liu solver algorithm
  Found a guess vector with spin not close to integer value (4.123106)
  Found a guess vector with spin not close to integer value (4.123106)
  Initial guess found 80 solutions with 2S+1 = 1 *
  Initial guess found 103 solutions with 2S+1 = 3  
  Initial guess found 15 solutions with 2S+1 = 5  

  ==> Diagonalizing Hamiltonian <==

  ----------------------------------------
    Iter.      Avg. Energy       Delta_E     Residual norm
  ----------------------------------------
      1      -17.027458716292  -1.703e+01  +9.169e-04
      2      -17.027458752803  -3.651e-08  +8.253e-04
      3      -17.027458758742  -5.939e-09  +8.061e-04
      4      -17.027458759439  -6.966e-10  +8.044e-04
      5      -17.027458759538  -9.886e-11  +8.043e-04
  ----------------------------------------
  The Davidson-Liu algorithm converged in 6 iterations.
        3        5        396          2146     -14.646161736095  1.299e-06     -14.646161311523  1.256e-06     ~

  Davidson-liu solver algorithm
  Found a guess vector with spin not close to integer value (4.123106)
  Found a guess vector with spin not close to integer value (4.123106)
  Initial guess found 80 solutions with 2S+1 = 1 *
  Initial guess found 103 solutions with 2S+1 = 3  
  Initial guess found 15 solutions with 2S+1 = 5  

  ==> Diagonalizing Hamiltonian <==

  ----------------------------------------
    Iter.      Avg. Energy       Delta_E     Residual norm
  ----------------------------------------
      1      -17.027459614176  -1.703e+01  +8.691e-04
      2      -17.027459641306  -2.713e-08  +8.097e-04
      3      -17.027459649133  -7.827e-09  +7.866e-04
      4      -17.027459649388  -2.556e-10  +7.863e-04
      5      -17.027459649448  -5.937e-11  +7.862e-04
  ----------------------------------------
  The Davidson-Liu algorithm converged in 6 iterations.
        4        5        396          2122     -14.646162033575 -2.975e-07     -14.646162201433 -8.899e-07     ~

  Davidson-liu solver algorithm
  Found a guess vector with spin not close to integer value (4.123106)
  Found a guess vector with spin not close to integer value (4.123106)
  Initial guess found 80 solutions with 2S+1 = 1 *
  Initial guess found 103 solutions with 2S+1 = 3  
  Initial guess found 15 solutions with 2S+1 = 5  

  ==> Diagonalizing Hamiltonian <==

  ----------------------------------------
    Iter.      Avg. Energy       Delta_E     Residual norm
  ----------------------------------------
      1      -17.027458718195  -1.703e+01  +9.123e-04
      2      -17.027458756756  -3.856e-08  +8.143e-04
      3      -17.027458760537  -3.781e-09  +8.023e-04
      4      -17.027458760684  -1.469e-10  +8.021e-04
      5      -17.027458760746  -6.176e-11  +8.020e-04
  ----------------------------------------
  The Davidson-Liu algorithm converged in 6 iterations.
        5        5        396          2146     -14.646161264146  7.694e-07     -14.646161312731  8.887e-07     ~
  --------------------------------------------------------------------------------------------------------------~

  Calculation stoped in appearance of higher new low.

  ==> Post-Iterations <==

  * Size of CI space                    = 396
  * Number of off-diagonal elements     = 2146
  * ProjectorCI Approximate Energy    =   -14.646161312731 Eh
  * ProjectorCI Projective  Energy    =   -14.646161264146 Eh

  Most important contributions to the wave function:

    0       0.933207      0.870876           0 |22000200000000000000000000000000000000000000000000000000000000000000000000000000000000000000000000000000000000000000000000000000>    -16.991042186105
    1       -0.23025     0.0530152           1 |02000200200000000000000000000000000000000000000000000000000000000000000000000000000000000000000000000000000000000000000000000000>    -16.839359201914
    2       -0.23025     0.0530152           2 |02000200020000000000000000000000000000000000000000000000000000000000000000000000000000000000000000000000000000000000000000000000>    -16.839359201914
    3        -0.1256     0.0157753           3 |02000202000000000000000000000000000000000000000000000000000000000000000000000000000000000000000000000000000000000000000000000000>    -16.757530762194
    4     -0.0804381    0.00647029           4 |02200200000000000000000000000000000000000000000000000000000000000000000000000000000000000000000000000000000000000000000000000000>    -16.716835524310
    5     -0.0147696    0.00021814           5 |+2-00200000000000000000000000000000000000000000000000000000000000000000000000000000000000000000000000000000000000000000000000000>    -16.869832705260
    6     -0.0147696    0.00021814           6 |-2+00200000000000000000000000000000000000000000000000000000000000000000000000000000000000000000000000000000000000000000000000000>    -16.869832705260
    7     0.00548003   3.00308e-05           7 |+-000202000000000000000000000000000000000000000000000000000000000000000000000000000000000000000000000000000000000000000000000000>    -14.679187184570
    8     0.00548003   3.00308e-05           8 |-+000202000000000000000000000000000000000000000000000000000000000000000000000000000000000000000000000000000000000000000000000000>    -14.679187184570
    9     0.00416024   1.73076e-05           9 |02020200000000000000000000000000000000000000000000000000000000000000000000000000000000000000000000000000000000000000000000000000>    -16.536973037810

  Spin State: S^2 = 0.000, S = 0.000, singlet (from 3 determinants,97.69%)
  ProjectorCI (bitset) steps finished in  : 0.618885 s

  Variational energy estimated with 396 determinants to meet the max error 0.000000e+00

  ==> Computing Coupling Lists <==
  --------------------------------
        α          0.001517 s
        β          0.001444 s
        αα         0.001245 s
        ββ         0.001243 s
        αβ         0.003445 s
  --------------------------------
  * ProjectorCI Variational Energy    =   -14.646162597174 Eh
  * ProjectorCI Var. Corr.  Energy    =    -0.036417859084 Eh
  * 1st order perturbation   Energy     =    -0.000001284444 Eh

  ProjectorCI (bitset) ran in  : 0.629941 s

  Saving the wave function:


  ==> Excited state solver summary <==

  Iterations required:                         5
  Dimension of optimized determinant space:    396

  * Selected-CI Energy Root   0        = -14.646161312731 Eh =   0.0000 eV
  * Selected-CI Energy Root   0 + EPT2 = -14.646161312731 Eh =   0.0000 eV

  ==> Wavefunction Information <==

  Most important contributions to root   0:
    0   0.933207 0.870876021           0 |2200020000>
    1  -0.230250 0.053015183           1 |0200020020>
    2  -0.230250 0.053015183           2 |0200020002>
    3  -0.125600 0.015775281           3 |0200020200>
    4  -0.080438 0.006470287           4 |0220020000>
    5  -0.014770 0.000218140           5 |+2-0020000>
    6  -0.014770 0.000218140           6 |-2+0020000>
    7   0.005480 0.000030031           7 |+-00020200>
    8   0.005480 0.000030031           8 |-+00020200>
    9   0.004160 0.000017308           9 |0202020000>

  Spin state for root 0: S^2 = 0.000925, S = 0.001, singlet

  Saving information for root: 0

  ==> Energy Summary <==

    Multi.  Irrep.  No.               Energy
    -----------------------------------------
       1      Ag     0       -14.646161312731
    -----------------------------------------

  Time to prepare integrals: 0.048039913177490234 seconds
  Time to run job          : 0.7135570049285889 seconds
  Total                    : 0.7135570049285889 seconds    PCI energy........................................................PASSED

    Psi4 stopped on: Sunday, 19 January 2020 07:45PM
    Psi4 wall time for execution: 0:00:01.38

*** Psi4 exiting successfully. Buy a developer a beer!
