    -----------------------------------------------------------------------
          Psi4: An Open-Source Ab Initio Electronic Structure Package
                              Psi4 0.3.178 Driver

                          Git: Rev {master} 25bff84 dirty

    J. M. Turney, A. C. Simmonett, R. M. Parrish, E. G. Hohenstein,
    F. A. Evangelista, J. T. Fermann, B. J. Mintz, L. A. Burns, J. J. Wilke,
    M. L. Abrams, N. J. Russ, M. L. Leininger, C. L. Janssen, E. T. Seidl,
    W. D. Allen, H. F. Schaefer, R. A. King, E. F. Valeev, C. D. Sherrill,
    and T. D. Crawford, WIREs Comput. Mol. Sci. 2, 556-565 (2012)
    (doi: 10.1002/wcms.93)

                         Additional Contributions by
    A. E. DePrince, M. Saitow, U. Bozkaya, A. Yu. Sokolov
    -----------------------------------------------------------------------


    Psi4 started on: Sun Dec  6 17:24:39 2015

    Process ID:  28768
    PSI4DATADIR: /Users/ChenyangLi/src/psi4private/lib
    Memory level set to 256.000 MB

  ==> Input File <==

--------------------------------------------------------------------------
#! Generated using commit GITCOMMIT

import forte

refrohf      = -15.611546532146
refdsrgpt2   = -15.536795200421393

molecule {
  0 3
  Be 0.00000000    0.00000000   0.000000000
  H  0.00000000    1.2750       2.7500
  H  0.00000000   -1.2750       2.7500
  units bohr
  no_reorient
}

basis { 
cartesian
****
Be 0
S 6 1.00 
 1267.07000 0.001940
  190.35600 0.014786
   43.29590 0.071795
   12.14420 0.236348
    3.80923 0.471763
    1.26847 0.355183
S 3 1.00
    5.69388 -0.028876
    1.55563 -0.177565
    0.171855 1.071630
S 1 1.0
    0.057181 1.000000
P 1 1.0
    5.69388  1.000000
P 2 1.0
    1.55563  0.144045
    0.171855 0.949692
****
H 0 
S 3 1.00 
   19.24060  0.032828   
    2.899200 0.231208   
    0.653400 0.817238
S 1 1.0   
    0.177600  1.00000
****
} 

set {
  docc               [2,0,0,0]
  socc               [1,0,0,1]
  reference          rohf
  scf_type           pk
  maxiter            300
  e_convergence      8
  d_convergence      10
}

set forte {
  job_type           mrdsrg
  frozen_docc        [1,0,0,0]
  restricted_docc    [1,0,0,0]
  active             [1,0,0,1]
  multiplicity       1
  root_sym           0
  nroot              1
  root               0
  dsrg_s             1.0
  maxiter            100
  relax_ref          iterate
  e_convergence      9
  maxiter_relax_ref  15
}

energy('scf')
compare_values(refrohf,get_variable("CURRENT ENERGY"),10,"ROHF energy") #TEST

energy('forte')
compare_values(refdsrgpt2,get_variable("CURRENT ENERGY"),8,"MRDSRG-PT2 relaxed energy") #TEST
--------------------------------------------------------------------------
/Users/ChenyangLi/src/forte/forte.so loaded.

*** tstart() called on dhcp189-81.emerson.emory.edu
*** at Sun Dec  6 17:24:39 2015


         ---------------------------------------------------------
                                   SCF
            by Justin Turney, Rob Parrish, and Andy Simmonett
                             ROHF Reference
                        1 Threads,    256 MiB Core
         ---------------------------------------------------------

  ==> Geometry <==

    Molecular point group: c2v
    Full point group: C2v

    Geometry (in Bohr), charge = 0, multiplicity = 3:

       Center              X                  Y                   Z               Mass       
    ------------   -----------------  -----------------  -----------------  -----------------
          BE          0.000000000000     0.000000000000    -0.502640731480     9.012182201000
           H         -0.000000000000     1.275000000000     2.247359268520     1.007825032070
           H          0.000000000000    -1.275000000000     2.247359268520     1.007825032070

  Running in c2v symmetry.

  Rotational constants: A =     18.37210  B =      4.83252  C =      3.82612 [cm^-1]
  Rotational constants: A = 550781.60550  B = 144875.38330  C = 114704.08189 [MHz]
  Nuclear repulsion =    3.031382610983898

  Charge       = 0
  Multiplicity = 3
  Electrons    = 6
  Nalpha       = 4
  Nbeta        = 2

  ==> Algorithm <==

  SCF Algorithm Type is PK.
  DIIS enabled.
  MOM disabled.
  Fractional occupation disabled.
  Guess Type is CORE.
  Energy threshold   = 1.00e-08
  Density threshold  = 1.00e-10
  Integral threshold = 0.00e+00

  ==> Primary Basis <==

  Basis Set: ANONYMOUS276
    Number of shells: 9
    Number of basis function: 13
    Number of Cartesian functions: 13
    Spherical Harmonics?: false
    Max angular momentum: 1

  ==> Pre-Iterations <==

   -------------------------------------------------------
    Irrep   Nso     Nmo     Nalpha   Nbeta   Ndocc  Nsocc
   -------------------------------------------------------
     A1         7       7       3       2       2       1
     A2         0       0       0       0       0       0
     B1         2       2       0       0       0       0
     B2         4       4       1       0       0       1
   -------------------------------------------------------
    Total      13      13       4       2       2       2
   -------------------------------------------------------

  Starting with a DF guess...

 OEINTS: Overlap, kinetic, potential, dipole, and quadrupole integrals
         stored in file 35.

  ==> Integral Setup <==

  ==> DFJK: Density-Fitted J/K Matrices <==

    J tasked:                  Yes
    K tasked:                  Yes
    wK tasked:                  No
    OpenMP threads:              1
    Integrals threads:           1
    Memory (MB):               183
    Algorithm:                Core
    Integral Cache:           NONE
    Schwarz Cutoff:          1E-12
    Fitting Condition:       1E-12

   => Auxiliary Basis Set <=

  Basis Set: 
    Number of shells: 29
    Number of basis function: 100
    Number of Cartesian functions: 100
    Spherical Harmonics?: false
    Max angular momentum: 3

  Minimum eigenvalue in the overlap matrix is 1.3143755134E-01.
  Using Symmetric Orthogonalization.
  SCF Guess: Core (One-Electron) Hamiltonian.

  ==> Iterations <==

                           Total Energy        Delta E     RMS |[F,P]|

   @DF-ROHF iter   1:   -15.04035204917408   -1.50404e+01   2.30118e-01 
   @DF-ROHF iter   2:   -15.58047474317987   -5.40123e-01   2.62862e-02 DIIS
   @DF-ROHF iter   3:   -15.60882374692268   -2.83490e-02   5.33481e-03 DIIS
   @DF-ROHF iter   4:   -15.61124361504225   -2.41987e-03   1.75818e-03 DIIS
   @DF-ROHF iter   5:   -15.61151576209241   -2.72147e-04   2.04280e-04 DIIS
   @DF-ROHF iter   6:   -15.61151983037622   -4.06828e-06   7.42871e-05 DIIS
   @DF-ROHF iter   7:   -15.61152058450913   -7.54133e-07   1.42450e-05 DIIS
   @DF-ROHF iter   8:   -15.61152061062530   -2.61162e-08   3.03075e-06 DIIS
   @DF-ROHF iter   9:   -15.61152061166874   -1.04344e-09   2.33258e-07 DIIS
   @DF-ROHF iter  10:   -15.61152061167413   -5.39302e-12   2.01788e-08 DIIS
   @DF-ROHF iter  11:   -15.61152061167420   -7.10543e-14   1.49680e-09 DIIS
   @DF-ROHF iter  12:   -15.61152061167420    7.10543e-15   1.87268e-10 DIIS
   @DF-ROHF iter  13:   -15.61152061167420   -3.55271e-15   1.30172e-11 DIIS

  DF guess converged.

  ==> Integral Setup <==

 MINTS: Wrapper to libmints.
   by Justin Turney

   Calculation information:
      Number of atoms:                   3
      Number of AO shells:               9
      Number of SO shells:               7
      Number of primitives:             21
      Number of atomic orbitals:        13
      Number of basis functions:        13

      Number of irreps:                  4
      Integral cutoff                 0.00e+00
      Number of functions per irrep: [   7    0    2    4 ]

 OEINTS: Overlap, kinetic, potential, dipole, and quadrupole integrals
         stored in file 35.

      Computing two-electron integrals...done
      Computed 1270 non-zero two-electron integrals.
        Stored in file 33.

	Batch   1 pq = [       0,      41] index = [             0,861]
  ==> DiskJK: Disk-Based J/K Matrices <==

    J tasked:                  Yes
    K tasked:                  Yes
    wK tasked:                  No
    Memory (MB):               183
    Schwarz Cutoff:          1E-12

   @ROHF iter  14:   -15.61154652881140   -2.59171e-05   1.02620e-04 DIIS
   @ROHF iter  15:   -15.61154653209594   -3.28453e-09   1.30873e-06 DIIS
   @ROHF iter  16:   -15.61154653214292   -4.69846e-11   2.11854e-07 DIIS
   @ROHF iter  17:   -15.61154653214578   -2.85283e-12   4.35313e-08 DIIS
   @ROHF iter  18:   -15.61154653214600   -2.23821e-13   1.00723e-08 DIIS
   @ROHF iter  19:   -15.61154653214600   -3.55271e-15   3.25694e-09 DIIS
   @ROHF iter  20:   -15.61154653214601   -7.10543e-15   4.09733e-10 DIIS
   @ROHF iter  21:   -15.61154653214601    0.00000e+00   4.34237e-11 DIIS

  ==> Post-Iterations <==

    Orbital Energies (a.u.)
    -----------------------

    Doubly Occupied:                                                      

       1A1    -4.739412     2A1    -0.555329  

    Singly Occupied:                                                      

       1B2    -0.124111     3A1    -0.109925  

    Virtual:                                                              

       1B1     0.145758     2B2     0.257460     4A1     0.272612  
       5A1     0.325586     3B2     1.130941     6A1     1.208293  
       2B1     8.963573     4B2     9.001730     7A1     9.081773  

    Final Occupation by Irrep:
             A1    A2    B1    B2 
    DOCC [     2,    0,    0,    0 ]
    SOCC [     1,    0,    0,    1 ]

  Energy converged.

  @ROHF Final Energy:   -15.61154653214601

   => Energetics <=

    Nuclear Repulsion Energy =              3.0313826109838984
    One-Electron Energy =                 -26.0505763812465077
    Two-Electron Energy =                   7.4076472381165992
    DFT Exchange-Correlation Energy =       0.0000000000000000
    Empirical Dispersion Energy =           0.0000000000000000
    PCM Polarization Energy =               0.0000000000000000
    EFP Energy =                            0.0000000000000000
    Total Energy =                        -15.6115465321460114

    Alert: EFP and PCM quantities not currently incorporated into SCF psivars.

Properties will be evaluated at   0.000000,   0.000000,   0.000000 Bohr
  ==> Properties <==


Properties computed using the SCF density matrix

  Nuclear Dipole Moment: (a.u.)
     X:     0.0000      Y:     0.0000      Z:     2.4842

  Electronic Dipole Moment: (a.u.)
     X:     0.0000      Y:     0.0000      Z:    -2.5844

  Dipole Moment: (a.u.)
     X:     0.0000      Y:     0.0000      Z:    -0.1002     Total:     0.1002

  Dipole Moment: (Debye)
     X:     0.0000      Y:     0.0000      Z:    -0.2548     Total:     0.2548


  Saving occupied orbitals to File 180.

*** tstop() called on dhcp189-81.emerson.emory.edu at Sun Dec  6 17:24:39 2015
Module time:
	user time   =       0.24 seconds =       0.00 minutes
	system time =       0.01 seconds =       0.00 minutes
	total time  =          0 seconds =       0.00 minutes
Total time:
	user time   =       0.24 seconds =       0.00 minutes
	system time =       0.01 seconds =       0.00 minutes
	total time  =          0 seconds =       0.00 minutes
Reading options from the FORTE block
Calling plugin /Users/ChenyangLi/src/forte/forte.so.


  ==> MO Space Information <==

  Read options for space FROZEN_DOCC
  Read options for space RESTRICTED_DOCC
  Read options for space ACTIVE
 Removing orbital 0
  -------------------------------------------------
                       A1    A2    B1    B2   Sum
  -------------------------------------------------
    FROZEN_DOCC         1     0     0     0     1
    RESTRICTED_DOCC     1     0     0     0     1
    ACTIVE              1     0     0     1     2
    RESTRICTED_UOCC     4     0     2     3     9
    FROZEN_UOCC         0     0     0     0     0
    Total               7     0     2     4    13
  -------------------------------------------------

  ==> Integral Transformation <==

  Number of molecular orbitals:               13
  Number of correlated molecular orbitals:    12
  Number of frozen occupied orbitals:          1
  Number of frozen unoccupied orbitals:        0


  Overall Conventional Integrals timings

	Presorting SO-basis two-electron integrals.
	Sorting File: SO Ints (nn|nn) nbuckets = 1
	Transforming the one-electron integrals and constructing Fock matrices
	Starting first half-transformation.
	Sorting half-transformed integrals.
	First half integral transformation complete.
	Starting second half-transformation.
	Two-electron integral transformation complete.

  Integral transformation done. 0.00692200 s
  Reading the two-electron integrals from disk
  Size of two-electron integrals:   0.000638 GB MINTS: Wrapper to libmints.
   by Justin Turney

   Calculation information:
      Number of atoms:                   3
      Number of AO shells:               9
      Number of SO shells:               7
      Number of primitives:             21
      Number of atomic orbitals:        13
      Number of basis functions:        13

      Number of irreps:                  4
      Integral cutoff                 1.00e-12
      Number of functions per irrep: [   7    0    2    4 ]

 OEINTS: Overlap, kinetic, potential, dipole, and quadrupole integrals
         stored in file 35.

      Computing two-electron integrals...done
      Computed 1270 non-zero two-electron integrals.
        Stored in file 33.

	Batch   1 pq = [       0,      41] index = [             0,861]

  Frozen-core energy            -14.929378863416 a.u.

 FrozenOneBody Operator takes  0.07164500 s
  Resorting integrals after freezing core.
  Conventional integrals take 0.07994700 s

                -----------------------------------------------
                  String-based Full Configuration Interaction
                          by Francesco A. Evangelista
                -----------------------------------------------

  Number of electrons: 6
  Charge: 0
  Multiplicity: 1
  Davidson subspace max dim: 8
  Davidson subspace min dim: 2
  M_s: 0

  ==> String Lists <==

  Number of alpha electrons     = 1
  Number of beta electrons      = 1
  Number of alpha strings       = 2
  Number of beta strings        = 2
  Timing for strings        =      0.000 s
  Timing for NN strings     =      0.000 s
  Timing for VO strings     =      0.000 s
  Timing for OO strings     =      0.000 s
  Timing for Knowles-Handy  =      0.000 s
  Timing for VVOO strings   =      0.000 s
  Timing for VOVO strings   =      0.000 s
  Timing for 1-hole strings =      0.000 s
  Timing for 2-hole strings =      0.000 s
  Timing for 3-hole strings =      0.000 s
  Total timing              =      0.000 s

  ==> FCI Solver <==

    Number of determinants                           2
    Symmetry                                         0
    Multiplicity                                     1
    Number of roots                                  1
    Target root                                      0
    Trial vectors per root                          10

 active_mo size = 2
  Allocating memory for the Hamiltonian algorithm. Size: 2 x 1 x 1.   Memory: 0.000000 GB

  Determinant space is spin complete.

  ==> FCI Initial Guess <==

  ---------------------------------------------
    Root            Energy     <S^2>   Spin
  ---------------------------------------------
      0      -15.483417113726  0.000  singlet
      1      -15.440208169537  0.000  singlet
  ---------------------------------------------
  Timing for initial guess  =      0.000 s

  ==> Diagonalizing Hamiltonian <==

  ----------------------------------------
    Iter.      Avg. Energy       Delta_E
  ----------------------------------------
      1      -15.483417113726  -1.548e+01
      2      -15.483417113726  -7.105e-15
  ----------------------------------------
  The Davidson-Liu algorithm converged in 3 iterations.

  ==> Root No. 0 <==

    0 2     -0.91011042
    2 0      0.41436581

    Total Energy:       -15.483417113725510

  ==> RDMs for Root No. 0 <==

                          ----------------------------
                            Semi-Canonical Orbitals
                            Francesco A. Evangelista
                          ----------------------------


  ==> Integral transformation <==
	Presorting SO-basis two-electron integrals.
	Sorting File: SO Ints (nn|nn) nbuckets = 1
	Transforming the one-electron integrals and constructing Fock matrices
	Starting first half-transformation.
	Sorting half-transformed integrals.
	First half integral transformation complete.
	Starting second half-transformation.
	Two-electron integral transformation complete.

  Integral transformation done. 0.00502100 s
  Reading the two-electron integrals from disk
  Size of two-electron integrals:   0.000638 GB MINTS: Wrapper to libmints.
   by Justin Turney

   Calculation information:
      Number of atoms:                   3
      Number of AO shells:               9
      Number of SO shells:               7
      Number of primitives:             21
      Number of atomic orbitals:        13
      Number of basis functions:        13

      Number of irreps:                  4
      Integral cutoff                 1.00e-12
      Number of functions per irrep: [   7    0    2    4 ]

 OEINTS: Overlap, kinetic, potential, dipole, and quadrupole integrals
         stored in file 35.

      Computing two-electron integrals...done
      Computed 1270 non-zero two-electron integrals.
        Stored in file 33.

	Batch   1 pq = [       0,      41] index = [             0,861]

  Frozen-core energy            -14.929378863416 a.u.

 FrozenOneBody Operator takes  0.06256300 s
  Resorting integrals after freezing core.
 Frozen Orbitals takes 0.06270600 s

                -----------------------------------------------
                  String-based Full Configuration Interaction
                          by Francesco A. Evangelista
                -----------------------------------------------

  Number of electrons: 6
  Charge: 0
  Multiplicity: 1
  Davidson subspace max dim: 8
  Davidson subspace min dim: 2
  M_s: 0

  ==> String Lists <==

  Number of alpha electrons     = 1
  Number of beta electrons      = 1
  Number of alpha strings       = 2
  Number of beta strings        = 2
  Timing for strings        =      0.000 s
  Timing for NN strings     =      0.000 s
  Timing for VO strings     =      0.000 s
  Timing for OO strings     =      0.000 s
  Timing for Knowles-Handy  =      0.000 s
  Timing for VVOO strings   =      0.000 s
  Timing for VOVO strings   =      0.000 s
  Timing for 1-hole strings =      0.000 s
  Timing for 2-hole strings =      0.000 s
  Timing for 3-hole strings =      0.000 s
  Total timing              =      0.000 s

  ==> FCI Solver <==

    Number of determinants                           2
    Symmetry                                         0
    Multiplicity                                     1
    Number of roots                                  1
    Target root                                      0
    Trial vectors per root                          10

 active_mo size = 2
  Allocating memory for the Hamiltonian algorithm. Size: 2 x 1 x 1.   Memory: 0.000000 GB

  Determinant space is spin complete.

  ==> FCI Initial Guess <==

  ---------------------------------------------
    Root            Energy     <S^2>   Spin
  ---------------------------------------------
      0      -15.483417113726  0.000  singlet
      1      -15.440208169537  0.000  singlet
  ---------------------------------------------
  Timing for initial guess  =      0.000 s

  ==> Diagonalizing Hamiltonian <==

  ----------------------------------------
    Iter.      Avg. Energy       Delta_E
  ----------------------------------------
      1      -15.483417113726  -1.548e+01
      2      -15.483417113726  -7.105e-15
  ----------------------------------------
  The Davidson-Liu algorithm converged in 3 iterations.

  ==> Root No. 0 <==

    0 2     -0.91011042
    2 0      0.41436581

    Total Energy:       -15.483417113725510

  ==> RDMs for Root No. 0 <==

           ----------------------------------------------------------
             Multireference Driven Similarity Renormalization Group
                                  Chenyang Li
           ----------------------------------------------------------


  ==> Calculation Information <==

    ntamp                                            15
    diis_min_vecs                                     2
    diis_max_vecs                                     5
    flow parameter                            1.000e+00
    taylor expansion threshold                1.000e-03
    intruder_tamp                             1.000e-01
    corr_level                                      PT2
    int_type                               CONVENTIONAL
    source operator                            STANDARD
    smart_dsrg_s                                 DSRG_S
    reference relaxation                        ITERATE
    dsrg transformation type                    UNITARY
    core virtual source type                     NORMAL

  ==> Density Cumulant Summary <==

    2-body               AA           AB           BB
    -------------------------------------------------
    max            0.142218     0.142218     0.142218
    norm           0.284437     0.604435     0.284437
    -------------------------------------------------
    3-body              AAA          AAB          ABB          BBB
    --------------------------------------------------------------
    max            0.000000     0.093381     0.093381     0.000000
    norm           0.000000     0.264121     0.264121     0.000000
    --------------------------------------------------------------

  ==> Checking Orbitals <==

    Checking if orbitals are semi-canonicalized ...     OK.
    Orbitals are semi-canonicalized.

  ==> Build Initial Amplitude from DSRG-MRPT2 <==

    Computing T2 amplitudes ...          Done. Timing      0.005 s
    Computing T1 amplitudes ...          Done. Timing      0.004 s

  ==> First-Order Excitation Amplitudes Summary <==

    Active Indices:    1    8 
    Largest T1 amplitudes for spin case A:
       i       a                  i       a                  i       a               
    --------------------------------------------------------------------------------
    [  8      10    ]-0.030724 [  8       9    ]-0.020902 [  0       3    ]-0.015840 
    [  1       4    ]-0.015308 [  0       4    ] 0.012578 [  0       1    ] 0.011841 
    [  1       2    ]-0.010020 [  1       3    ] 0.006366 [  0       2    ]-0.002534 
    [  1       5    ]-0.000643 [  8      11    ] 0.000513 [  0       5    ]-0.000441 
    --------------------------------------------------------------------------------
    Norm of T1A vector: (nonzero elements: 12)                    0.048090852935759.
    --------------------------------------------------------------------------------
    Largest T1 amplitudes for spin case B:
       _       _                  _       _                  _       _               
       i       a                  i       a                  i       a               
    --------------------------------------------------------------------------------
    [  8      10    ]-0.030724 [  8       9    ]-0.020902 [  0       3    ]-0.015840 
    [  1       4    ]-0.015308 [  0       4    ] 0.012578 [  0       1    ] 0.011841 
    [  1       2    ]-0.010020 [  1       3    ] 0.006366 [  0       2    ]-0.002534 
    [  1       5    ]-0.000643 [  8      11    ] 0.000513 [  0       5    ]-0.000441 
    --------------------------------------------------------------------------------
    Norm of T1B vector: (nonzero elements: 12)                    0.048090852935759.
    --------------------------------------------------------------------------------
    Largest T2 amplitudes for spin case AA:
       i   j   a   b              i   j   a   b              i   j   a   b           
    --------------------------------------------------------------------------------
    [  0   1   1   3]-0.031125 [  1   8   1   9] 0.015443 [  0   8   3   9]-0.014325 
    [  1   8   3   9] 0.012545 [  0   1   8   9] 0.012235 [  0   8   2   8]-0.012227 
    [  1   8   4   8]-0.012203 [  1   8   2   9] 0.011207 [  0   8   3   8] 0.009936 
    [  0   1   2   3]-0.009773 [  0   8   1   9] 0.008910 [  0   8   4   8] 0.008830 
    [  1   8   2   8]-0.008293 [  1   8   3   8] 0.008096 [  0   8   1   8] 0.007580 
    --------------------------------------------------------------------------------
    Norm of T2AA vector: (nonzero elements: 224)                  0.106886423457497.
    --------------------------------------------------------------------------------
    Largest T2 amplitudes for spin case AB:
           _       _                  _       _                  _       _           
       i   j   a   b              i   j   a   b              i   j   a   b           
    --------------------------------------------------------------------------------
    [  0   0   8   8]-0.060737 [  8   8   8  10]-0.042458 [  8   8   9   9]-0.041154 
    [  0   8   4   8] 0.033137 [  0   0   3   3]-0.032667 [  1   1   9   9]-0.029483 
    [  0   8   3   9]-0.029302 [  0   0   8  10]-0.026104 [  8   8  10  10]-0.025663 
    [  1   1   1   2]-0.025090 [  0   0   8   9]-0.023635 [  1   8   1   9] 0.023378 
    [  1   1   2   2]-0.022539 [  1   1   6   6]-0.021022 [  0   1   8   9] 0.020933 
    --------------------------------------------------------------------------------
    Norm of T2AB vector: (nonzero elements: 377)                  0.199967181698839.
    --------------------------------------------------------------------------------
    Largest T2 amplitudes for spin case BB:
       _   _   _   _              _   _   _   _              _   _   _   _           
       i   j   a   b              i   j   a   b              i   j   a   b           
    --------------------------------------------------------------------------------
    [  0   1   1   3]-0.031125 [  1   8   1   9] 0.015443 [  0   8   3   9]-0.014325 
    [  1   8   3   9] 0.012545 [  0   1   8   9] 0.012235 [  0   8   2   8]-0.012227 
    [  1   8   4   8]-0.012203 [  1   8   2   9] 0.011207 [  0   8   3   8] 0.009936 
    [  0   1   2   3]-0.009773 [  0   8   1   9] 0.008910 [  0   8   4   8] 0.008830 
    [  1   8   2   8]-0.008293 [  1   8   3   8] 0.008096 [  0   8   1   8] 0.007580 
    --------------------------------------------------------------------------------
    Norm of T2BB vector: (nonzero elements: 224)                  0.106886423457497.
    --------------------------------------------------------------------------------

  ==> Possible Intruders <==

    T1 amplitudes larger than 0.1000 for spin case A: NULL
    T1 amplitudes larger than 0.1000 for spin case B: NULL
    T2 amplitudes larger than 0.1000 for spin case AA: NULL
    T2 amplitudes larger than 0.1000 for spin case AB: NULL
    T2 amplitudes larger than 0.1000 for spin case BB: NULL

  ==> Second-Order Perturbation DSRG-MRPT2 <==

    Reference:
      J. Chem. Theory Comput. 2015, 11, 2097-2108.

    Checking if orbitals are semi-canonicalized ...     OK.

  ==> DSRG-MRPT2 Energy Summary <==

    E0 (reference)                 =    -15.483417113725510
    <[F, A1]>                      =     -0.009915527028055
    <[F, A2]>                      =     -0.001992231470627
    <[V, A1]>                      =     -0.002369245308335
    <[V, A2]>                      =     -0.038992079219055
    DSRG-MRPT2 correlation energy  =     -0.053269083026072
    DSRG-MRPT2 total energy        =    -15.536686196751582

  ==> De-Normal-Order the DSRG Transformed Hamiltonian <==

    Computing the scalar term   ...      Done. Timing      0.017 s
    Computing the one-body term ...      Done. Timing      0.007 s
    Updating integrals          ...      Done. Timing      0.011 s

  ==> Scalar of the DSRG Hamiltonian (WRT True Vacuum) <==

    Scalar0                        =     -3.638689944319040
    Scalar1                        =      1.360135913698792
    Scalar2                        =      2.258221844052670
    Total Scalar W/O Frozen-Core   =     -0.020332186567578
    Total Scalar W/  Frozen-Core   =    -14.949711049984016

  ==> Test De-Normal-Ordered Hamiltonian <==

    One-Body Energy (after)        =     -5.766659692747807
    Two-Body Energy (after)        =      2.148301934996345
    Total Energy (after)           =    -15.536686196751580
    Total Energy (before)          =    -15.536686196751582
 Frozen Orbitals takes 0.00000300 s

  ==> String Lists <==

  Number of alpha electrons     = 1
  Number of beta electrons      = 1
  Number of alpha strings       = 2
  Number of beta strings        = 2
  Timing for strings        =      0.000 s
  Timing for NN strings     =      0.000 s
  Timing for VO strings     =      0.000 s
  Timing for OO strings     =      0.000 s
  Timing for Knowles-Handy  =      0.000 s
  Timing for VVOO strings   =      0.000 s
  Timing for VOVO strings   =      0.000 s
  Timing for 1-hole strings =      0.000 s
  Timing for 2-hole strings =      0.000 s
  Timing for 3-hole strings =      0.000 s
  Total timing              =      0.000 s

  ==> FCI Solver <==

    Number of determinants                           2
    Symmetry                                         0
    Multiplicity                                     1
    Number of roots                                  0
    Target root                                      0
    Trial vectors per root                          10

 active_mo size = 2
  Allocating memory for the Hamiltonian algorithm. Size: 2 x 1 x 1.   Memory: 0.000000 GB

  Determinant space is spin complete.

  ==> FCI Initial Guess <==

  ---------------------------------------------
    Root            Energy     <S^2>   Spin
  ---------------------------------------------
      0      -15.514957792759  0.000  singlet
      1      -15.471748848571  0.000  singlet
  ---------------------------------------------
  Timing for initial guess  =      0.000 s

  ==> Diagonalizing Hamiltonian <==

  ----------------------------------------
    Iter.      Avg. Energy       Delta_E
  ----------------------------------------
      1      -15.536742166051  -1.554e+01
      2      -15.536742166051  +3.553e-15
  ----------------------------------------
  The Davidson-Liu algorithm converged in 3 iterations.

  ==> Root No. 0 <==

    0 2      0.89431894
    2 0     -0.44743002

    Total Energy:       -15.536742166050759

  ==> RDMs for Root No. 0 <==

  ==> Density Cumulant Summary <==

    2-body               AA           AB           BB
    -------------------------------------------------
    max            0.160116     0.160116     0.160116
    norm           0.320232     0.650216     0.320232
    -------------------------------------------------
    3-body              AAA          AAB          ABB          BBB
    --------------------------------------------------------------
    max            0.000000     0.096008     0.096008     0.000000
    norm           0.000000     0.271551     0.271551     0.000000
    --------------------------------------------------------------

  ==> Semi-canonicalize Orbitals <==

    Checking if orbitals are semi-canonicalized ...
    Warning! Orbitals are not semi-canonicalized!
    Off-Diagonal norms of the core, active, virtual blocks of Fock matrix
                  core          active         virtual
    ---------------------------------------------------
    Fa    0.0000000000    0.0000000000    0.0034053990
    Fb    0.0000000000    0.0000000000    0.0034053990
    ---------------------------------------------------

    Timing for block-diagonalizing Fock matrix:        0.000
    Timing for transforming one-electron integral:     0.068
 Frozen Orbitals takes 0.00000300 s
    Timing for transforming two-electron integral:     2.814

  ==> String Lists <==

  Number of alpha electrons     = 1
  Number of beta electrons      = 1
  Number of alpha strings       = 2
  Number of beta strings        = 2
  Timing for strings        =      0.000 s
  Timing for NN strings     =      0.000 s
  Timing for VO strings     =      0.000 s
  Timing for OO strings     =      0.000 s
  Timing for Knowles-Handy  =      0.000 s
  Timing for VVOO strings   =      0.000 s
  Timing for VOVO strings   =      0.000 s
  Timing for 1-hole strings =      0.000 s
  Timing for 2-hole strings =      0.000 s
  Timing for 3-hole strings =      0.000 s
  Total timing              =      0.000 s

  ==> FCI Solver <==

    Number of determinants                           2
    Symmetry                                         0
    Multiplicity                                     1
    Number of roots                                  0
    Target root                                      0
    Trial vectors per root                          10

 active_mo size = 2
  Allocating memory for the Hamiltonian algorithm. Size: 2 x 1 x 1.   Memory: 0.000000 GB

  Determinant space is spin complete.

  ==> FCI Initial Guess <==

  ---------------------------------------------
    Root            Energy     <S^2>   Spin
  ---------------------------------------------
      0      -15.514957792759  0.000  singlet
      1      -15.471748848571  0.000  singlet
  ---------------------------------------------
  Timing for initial guess  =      0.000 s

  ==> Diagonalizing Hamiltonian <==

  ----------------------------------------
    Iter.      Avg. Energy       Delta_E
  ----------------------------------------
      1      -15.536742166051  -1.554e+01
      2      -15.536742166051  +3.553e-15
  ----------------------------------------
  The Davidson-Liu algorithm converged in 3 iterations.

  ==> Root No. 0 <==

    0 2      0.89431894
    2 0     -0.44743002

    Total Energy:       -15.536742166050759

  ==> RDMs for Root No. 0 <==

  ==> Density Cumulant Summary <==

    2-body               AA           AB           BB
    -------------------------------------------------
    max            0.160116     0.160116     0.160116
    norm           0.320232     0.650216     0.320232
    -------------------------------------------------
    3-body              AAA          AAB          ABB          BBB
    --------------------------------------------------------------
    max            0.000000     0.096008     0.096008     0.000000
    norm           0.000000     0.271551     0.271551     0.000000
    --------------------------------------------------------------

  ==> Build Initial Amplitude from DSRG-MRPT2 <==

    Computing T2 amplitudes ...          Done. Timing      0.003 s
    Computing T1 amplitudes ...          Done. Timing      0.003 s

  ==> First-Order Excitation Amplitudes Summary <==

    Active Indices:    1    8 
    Largest T1 amplitudes for spin case A:
       i       a                  i       a                  i       a               
    --------------------------------------------------------------------------------
    [  8      10    ]-0.030071 [  8       9    ] 0.019297 [  0       3    ] 0.014507 
    [  1       4    ]-0.014493 [  0       4    ] 0.011500 [  0       1    ] 0.011137 
    [  1       2    ]-0.010423 [  1       3    ]-0.005240 [  0       2    ]-0.002241 
    [  1       5    ]-0.000563 [  8      11    ] 0.000477 [  0       5    ]-0.000403 
    --------------------------------------------------------------------------------
    Norm of T1A vector: (nonzero elements: 12)                    0.045774173079312.
    --------------------------------------------------------------------------------
    Largest T1 amplitudes for spin case B:
       _       _                  _       _                  _       _               
       i       a                  i       a                  i       a               
    --------------------------------------------------------------------------------
    [  8      10    ]-0.030071 [  8       9    ] 0.019297 [  0       3    ] 0.014507 
    [  1       4    ]-0.014493 [  0       4    ] 0.011500 [  0       1    ] 0.011137 
    [  1       2    ]-0.010423 [  1       3    ]-0.005240 [  0       2    ]-0.002241 
    [  1       5    ]-0.000563 [  8      11    ] 0.000477 [  0       5    ]-0.000403 
    --------------------------------------------------------------------------------
    Norm of T1B vector: (nonzero elements: 12)                    0.045774173079312.
    --------------------------------------------------------------------------------
    Largest T2 amplitudes for spin case AA:
       i   j   a   b              i   j   a   b              i   j   a   b           
    --------------------------------------------------------------------------------
    [  0   1   1   3] 0.031136 [  1   8   1   9]-0.015356 [  0   8   3   9]-0.014317 
    [  1   8   3   9] 0.012626 [  0   1   8   9]-0.012393 [  0   8   2   8]-0.012380 
    [  1   8   4   8]-0.012246 [  1   8   2   9]-0.011140 [  0   8   3   8]-0.009861 
    [  0   1   2   3] 0.009764 [  0   8   1   9]-0.008918 [  0   8   4   8] 0.008823 
    [  1   8   2   8]-0.008453 [  1   8   3   8]-0.008031 [  0   8   1   8] 0.007629 
    --------------------------------------------------------------------------------
    Norm of T2AA vector: (nonzero elements: 224)                  0.107105498401626.
    --------------------------------------------------------------------------------
    Largest T2 amplitudes for spin case AB:
           _       _                  _       _                  _       _           
       i   j   a   b              i   j   a   b              i   j   a   b           
    --------------------------------------------------------------------------------
    [  0   0   8   8]-0.061825 [  8   8   8  10]-0.042561 [  8   8   9   9]-0.041090 
    [  0   8   4   8] 0.033160 [  0   0   3   3]-0.032504 [  1   1   9   9]-0.029699 
    [  0   8   3   9]-0.029290 [  0   0   8  10]-0.026008 [  8   8  10  10]-0.025865 
    [  1   1   1   2]-0.025357 [  0   0   8   9] 0.023703 [  1   8   1   9]-0.023248 
    [  1   1   2   2]-0.022630 [  1   1   6   6]-0.021495 [  0   1   8   9]-0.021209 
    --------------------------------------------------------------------------------
    Norm of T2AB vector: (nonzero elements: 377)                  0.200803439895818.
    --------------------------------------------------------------------------------
    Largest T2 amplitudes for spin case BB:
       _   _   _   _              _   _   _   _              _   _   _   _           
       i   j   a   b              i   j   a   b              i   j   a   b           
    --------------------------------------------------------------------------------
    [  0   1   1   3] 0.031136 [  1   8   1   9]-0.015356 [  0   8   3   9]-0.014317 
    [  1   8   3   9] 0.012626 [  0   1   8   9]-0.012393 [  0   8   2   8]-0.012380 
    [  1   8   4   8]-0.012246 [  1   8   2   9]-0.011140 [  0   8   3   8]-0.009861 
    [  0   1   2   3] 0.009764 [  0   8   1   9]-0.008918 [  0   8   4   8] 0.008823 
    [  1   8   2   8]-0.008453 [  1   8   3   8]-0.008031 [  0   8   1   8] 0.007629 
    --------------------------------------------------------------------------------
    Norm of T2BB vector: (nonzero elements: 224)                  0.107105498401626.
    --------------------------------------------------------------------------------

  ==> Possible Intruders <==

    T1 amplitudes larger than 0.1000 for spin case A: NULL
    T1 amplitudes larger than 0.1000 for spin case B: NULL
    T2 amplitudes larger than 0.1000 for spin case AA: NULL
    T2 amplitudes larger than 0.1000 for spin case AB: NULL
    T2 amplitudes larger than 0.1000 for spin case BB: NULL

  ==> Second-Order Perturbation DSRG-MRPT2 <==

    Reference:
      J. Chem. Theory Comput. 2015, 11, 2097-2108.

    Checking if orbitals are semi-canonicalized ...     OK.

  ==> DSRG-MRPT2 Energy Summary <==

    E0 (reference)                 =    -15.483417113725510
    <[F, A1]>                      =     -0.008648750111680
    <[F, A2]>                      =     -0.002171220431739
    <[V, A1]>                      =     -0.002512497320345
    <[V, A2]>                      =     -0.040093612033838
    DSRG-MRPT2 correlation energy  =     -0.053426079897602
    DSRG-MRPT2 total energy        =    -15.536843193623112

  ==> De-Normal-Order the DSRG Transformed Hamiltonian <==

    Computing the scalar term   ...      Done. Timing      0.012 s
    Computing the one-body term ...      Done. Timing      0.007 s
    Updating integrals          ...      Done. Timing      0.011 s

  ==> Scalar of the DSRG Hamiltonian (WRT True Vacuum) <==

    Scalar0                        =     -3.638846941190572
    Scalar1                        =      1.361219841732435
    Scalar2                        =      2.259953433074324
    Total Scalar W/O Frozen-Core   =     -0.017673666383813
    Total Scalar W/  Frozen-Core   =    -14.947052529800251

  ==> Test De-Normal-Ordered Hamiltonian <==

    One-Body Energy (after)        =     -5.759370615734225
    Two-Body Energy (after)        =      2.138197340927466
    Total Energy (after)           =    -15.536843193623112
    Total Energy (before)          =    -15.536843193623112
 Frozen Orbitals takes 0.00000300 s

  ==> String Lists <==

  Number of alpha electrons     = 1
  Number of beta electrons      = 1
  Number of alpha strings       = 2
  Number of beta strings        = 2
  Timing for strings        =      0.000 s
  Timing for NN strings     =      0.000 s
  Timing for VO strings     =      0.000 s
  Timing for OO strings     =      0.000 s
  Timing for Knowles-Handy  =      0.000 s
  Timing for VVOO strings   =      0.000 s
  Timing for VOVO strings   =      0.000 s
  Timing for 1-hole strings =      0.000 s
  Timing for 2-hole strings =      0.000 s
  Timing for 3-hole strings =      0.000 s
  Total timing              =      0.000 s

  ==> FCI Solver <==

    Number of determinants                           2
    Symmetry                                         0
    Multiplicity                                     1
    Number of roots                                  0
    Target root                                      0
    Trial vectors per root                          10

 active_mo size = 2
  Allocating memory for the Hamiltonian algorithm. Size: 2 x 1 x 1.   Memory: 0.000000 GB

  Determinant space is spin complete.

  ==> FCI Initial Guess <==

  ---------------------------------------------
    Root            Energy     <S^2>   Spin
  ---------------------------------------------
      0      -15.515199724209  0.000  singlet
      1      -15.471990780021  0.000  singlet
  ---------------------------------------------
  Timing for initial guess  =      0.000 s

  ==> Diagonalizing Hamiltonian <==

  ----------------------------------------
    Iter.      Avg. Energy       Delta_E
  ----------------------------------------
      1      -15.536853239731  -1.554e+01
      2      -15.536853239731  +0.000e+00
  ----------------------------------------
  The Davidson-Liu algorithm converged in 3 iterations.

  ==> Root No. 0 <==

    0 2     -0.90107291
    2 0      0.43366763

    Total Energy:       -15.536853239730524

  ==> RDMs for Root No. 0 <==

  ==> Density Cumulant Summary <==

    2-body               AA           AB           BB
    -------------------------------------------------
    max            0.152698     0.152698     0.152698
    norm           0.305396     0.631398     0.305396
    -------------------------------------------------
    3-body              AAA          AAB          ABB          BBB
    --------------------------------------------------------------
    max            0.000000     0.095263     0.095263     0.000000
    norm           0.000000     0.269445     0.269445     0.000000
    --------------------------------------------------------------

  ==> Semi-canonicalize Orbitals <==

    Checking if orbitals are semi-canonicalized ...
    Warning! Orbitals are not semi-canonicalized!
    Off-Diagonal norms of the core, active, virtual blocks of Fock matrix
                  core          active         virtual
    ---------------------------------------------------
    Fa    0.0000000000    0.0000000000    0.0014624873
    Fb    0.0000000000    0.0000000000    0.0014624873
    ---------------------------------------------------

    Timing for block-diagonalizing Fock matrix:        0.000
    Timing for transforming one-electron integral:     0.068
 Frozen Orbitals takes 0.00000300 s
    Timing for transforming two-electron integral:     2.778

  ==> String Lists <==

  Number of alpha electrons     = 1
  Number of beta electrons      = 1
  Number of alpha strings       = 2
  Number of beta strings        = 2
  Timing for strings        =      0.000 s
  Timing for NN strings     =      0.000 s
  Timing for VO strings     =      0.000 s
  Timing for OO strings     =      0.000 s
  Timing for Knowles-Handy  =      0.000 s
  Timing for VVOO strings   =      0.000 s
  Timing for VOVO strings   =      0.000 s
  Timing for 1-hole strings =      0.000 s
  Timing for 2-hole strings =      0.000 s
  Timing for 3-hole strings =      0.000 s
  Total timing              =      0.000 s

  ==> FCI Solver <==

    Number of determinants                           2
    Symmetry                                         0
    Multiplicity                                     1
    Number of roots                                  0
    Target root                                      0
    Trial vectors per root                          10

 active_mo size = 2
  Allocating memory for the Hamiltonian algorithm. Size: 2 x 1 x 1.   Memory: 0.000000 GB

  Determinant space is spin complete.

  ==> FCI Initial Guess <==

  ---------------------------------------------
    Root            Energy     <S^2>   Spin
  ---------------------------------------------
      0      -15.515199724209  0.000  singlet
      1      -15.471990780021  0.000  singlet
  ---------------------------------------------
  Timing for initial guess  =      0.000 s

  ==> Diagonalizing Hamiltonian <==

  ----------------------------------------
    Iter.      Avg. Energy       Delta_E
  ----------------------------------------
      1      -15.536853239731  -1.554e+01
      2      -15.536853239731  +0.000e+00
  ----------------------------------------
  The Davidson-Liu algorithm converged in 3 iterations.

  ==> Root No. 0 <==

    0 2     -0.90107291
    2 0      0.43366763

    Total Energy:       -15.536853239730524

  ==> RDMs for Root No. 0 <==

  ==> Density Cumulant Summary <==

    2-body               AA           AB           BB
    -------------------------------------------------
    max            0.152698     0.152698     0.152698
    norm           0.305396     0.631398     0.305396
    -------------------------------------------------
    3-body              AAA          AAB          ABB          BBB
    --------------------------------------------------------------
    max            0.000000     0.095263     0.095263     0.000000
    norm           0.000000     0.269445     0.269445     0.000000
    --------------------------------------------------------------

  ==> Build Initial Amplitude from DSRG-MRPT2 <==

    Computing T2 amplitudes ...          Done. Timing      0.003 s
    Computing T1 amplitudes ...          Done. Timing      0.003 s

  ==> First-Order Excitation Amplitudes Summary <==

    Active Indices:    1    8 
    Largest T1 amplitudes for spin case A:
       i       a                  i       a                  i       a               
    --------------------------------------------------------------------------------
    [  8      10    ] 0.030349 [  8       9    ] 0.019978 [  0       3    ]-0.015075 
    [  1       4    ]-0.014840 [  0       4    ] 0.011959 [  0       1    ] 0.011438 
    [  1       2    ]-0.010252 [  1       3    ] 0.005722 [  0       2    ]-0.002365 
    [  1       5    ]-0.000597 [  8      11    ] 0.000492 [  0       5    ]-0.000419 
    --------------------------------------------------------------------------------
    Norm of T1A vector: (nonzero elements: 12)                    0.046752020920295.
    --------------------------------------------------------------------------------
    Largest T1 amplitudes for spin case B:
       _       _                  _       _                  _       _               
       i       a                  i       a                  i       a               
    --------------------------------------------------------------------------------
    [  8      10    ] 0.030349 [  8       9    ] 0.019978 [  0       3    ]-0.015075 
    [  1       4    ]-0.014840 [  0       4    ] 0.011959 [  0       1    ] 0.011438 
    [  1       2    ]-0.010252 [  1       3    ] 0.005722 [  0       2    ]-0.002365 
    [  1       5    ]-0.000597 [  8      11    ] 0.000492 [  0       5    ]-0.000419 
    --------------------------------------------------------------------------------
    Norm of T1B vector: (nonzero elements: 12)                    0.046752020920295.
    --------------------------------------------------------------------------------
    Largest T2 amplitudes for spin case AA:
       i   j   a   b              i   j   a   b              i   j   a   b           
    --------------------------------------------------------------------------------
    [  0   1   1   3]-0.031132 [  1   8   1   9]-0.015393 [  0   8   3   9] 0.014320 
    [  1   8   3   9]-0.012590 [  0   1   8   9]-0.012327 [  0   8   2   8]-0.012314 
    [  1   8   4   8]-0.012227 [  1   8   2   9]-0.011169 [  0   8   3   8] 0.009894 
    [  0   1   2   3]-0.009768 [  0   8   1   9]-0.008915 [  0   8   4   8] 0.008826 
    [  1   8   2   8]-0.008385 [  1   8   3   8] 0.008060 [  0   8   1   8] 0.007608 
    --------------------------------------------------------------------------------
    Norm of T2AA vector: (nonzero elements: 224)                  0.107012685711154.
    --------------------------------------------------------------------------------
    Largest T2 amplitudes for spin case AB:
           _       _                  _       _                  _       _           
       i   j   a   b              i   j   a   b              i   j   a   b           
    --------------------------------------------------------------------------------
    [  0   0   8   8]-0.061368 [  8   8   8  10] 0.042518 [  8   8   9   9]-0.041117 
    [  0   8   4   8] 0.033150 [  0   0   3   3]-0.032574 [  1   1   9   9]-0.029608 
    [  0   8   3   9] 0.029296 [  0   0   8  10] 0.026049 [  8   8  10  10]-0.025779 
    [  1   1   1   2]-0.025245 [  0   0   8   9] 0.023675 [  1   8   1   9]-0.023303 
    [  1   1   2   2]-0.022594 [  1   1   6   6]-0.021294 [  0   1   8   9]-0.021093 
    --------------------------------------------------------------------------------
    Norm of T2AB vector: (nonzero elements: 377)                  0.200449730419958.
    --------------------------------------------------------------------------------
    Largest T2 amplitudes for spin case BB:
       _   _   _   _              _   _   _   _              _   _   _   _           
       i   j   a   b              i   j   a   b              i   j   a   b           
    --------------------------------------------------------------------------------
    [  0   1   1   3]-0.031132 [  1   8   1   9]-0.015393 [  0   8   3   9] 0.014320 
    [  1   8   3   9]-0.012590 [  0   1   8   9]-0.012327 [  0   8   2   8]-0.012314 
    [  1   8   4   8]-0.012227 [  1   8   2   9]-0.011169 [  0   8   3   8] 0.009894 
    [  0   1   2   3]-0.009768 [  0   8   1   9]-0.008915 [  0   8   4   8] 0.008826 
    [  1   8   2   8]-0.008385 [  1   8   3   8] 0.008060 [  0   8   1   8] 0.007608 
    --------------------------------------------------------------------------------
    Norm of T2BB vector: (nonzero elements: 224)                  0.107012685711153.
    --------------------------------------------------------------------------------

  ==> Possible Intruders <==

    T1 amplitudes larger than 0.1000 for spin case A: NULL
    T1 amplitudes larger than 0.1000 for spin case B: NULL
    T2 amplitudes larger than 0.1000 for spin case AA: NULL
    T2 amplitudes larger than 0.1000 for spin case AB: NULL
    T2 amplitudes larger than 0.1000 for spin case BB: NULL

  ==> Second-Order Perturbation DSRG-MRPT2 <==

    Reference:
      J. Chem. Theory Comput. 2015, 11, 2097-2108.

    Checking if orbitals are semi-canonicalized ...     OK.

  ==> DSRG-MRPT2 Energy Summary <==

    E0 (reference)                 =    -15.483417113725510
    <[F, A1]>                      =     -0.009172143320645
    <[F, A2]>                      =     -0.002100344455156
    <[V, A1]>                      =     -0.002457492018682
    <[V, A2]>                      =     -0.039628899498035
    DSRG-MRPT2 correlation energy  =     -0.053358879292518
    DSRG-MRPT2 total energy        =    -15.536775993018027

  ==> De-Normal-Order the DSRG Transformed Hamiltonian <==

    Computing the scalar term   ...      Done. Timing      0.012 s
    Computing the one-body term ...      Done. Timing      0.007 s
    Updating integrals          ...      Done. Timing      0.011 s

  ==> Scalar of the DSRG Hamiltonian (WRT True Vacuum) <==

    Scalar0                        =     -3.638779740585488
    Scalar1                        =      1.360646456203277
    Scalar2                        =      2.259378854241407
    Total Scalar W/O Frozen-Core   =     -0.018754430140804
    Total Scalar W/  Frozen-Core   =    -14.948133293557243

  ==> Test De-Normal-Ordered Hamiltonian <==

    One-Body Energy (after)        =     -5.762527771801603
    Two-Body Energy (after)        =      2.142502461356918
    Total Energy (after)           =    -15.536775993018029
    Total Energy (before)          =    -15.536775993018027
 Frozen Orbitals takes 0.00000300 s

  ==> String Lists <==

  Number of alpha electrons     = 1
  Number of beta electrons      = 1
  Number of alpha strings       = 2
  Number of beta strings        = 2
  Timing for strings        =      0.000 s
  Timing for NN strings     =      0.000 s
  Timing for VO strings     =      0.000 s
  Timing for OO strings     =      0.000 s
  Timing for Knowles-Handy  =      0.000 s
  Timing for VVOO strings   =      0.000 s
  Timing for VOVO strings   =      0.000 s
  Timing for 1-hole strings =      0.000 s
  Timing for 2-hole strings =      0.000 s
  Timing for 3-hole strings =      0.000 s
  Total timing              =      0.000 s

  ==> FCI Solver <==

    Number of determinants                           2
    Symmetry                                         0
    Multiplicity                                     1
    Number of roots                                  0
    Target root                                      0
    Trial vectors per root                          10

 active_mo size = 2
  Allocating memory for the Hamiltonian algorithm. Size: 2 x 1 x 1.   Memory: 0.000000 GB

  Determinant space is spin complete.

  ==> FCI Initial Guess <==

  ---------------------------------------------
    Root            Energy     <S^2>   Spin
  ---------------------------------------------
      0      -15.515067511225  0.000  singlet
      1      -15.471858567037  0.000  singlet
  ---------------------------------------------
  Timing for initial guess  =      0.000 s

  ==> Diagonalizing Hamiltonian <==

  ----------------------------------------
    Iter.      Avg. Energy       Delta_E
  ----------------------------------------
      1      -15.536777654123  -1.554e+01
      2      -15.536777654123  +3.553e-15
  ----------------------------------------
  The Davidson-Liu algorithm converged in 3 iterations.

  ==> Root No. 0 <==

    0 2      0.89833790
    2 0     -0.43930516

    Total Energy:       -15.536777654122693

  ==> RDMs for Root No. 0 <==

  ==> Density Cumulant Summary <==

    2-body               AA           AB           BB
    -------------------------------------------------
    max            0.155744     0.155744     0.155744
    norm           0.311489     0.639151     0.311489
    -------------------------------------------------
    3-body              AAA          AAB          ABB          BBB
    --------------------------------------------------------------
    max            0.000000     0.095630     0.095630     0.000000
    norm           0.000000     0.270484     0.270484     0.000000
    --------------------------------------------------------------

  ==> Semi-canonicalize Orbitals <==

    Checking if orbitals are semi-canonicalized ...
    Warning! Orbitals are not semi-canonicalized!
    Off-Diagonal norms of the core, active, virtual blocks of Fock matrix
                  core          active         virtual
    ---------------------------------------------------
    Fa    0.0000000000    0.0000000000    0.0005912174
    Fb    0.0000000000    0.0000000000    0.0005912174
    ---------------------------------------------------

    Timing for block-diagonalizing Fock matrix:        0.000
    Timing for transforming one-electron integral:     0.067
 Frozen Orbitals takes 0.00000300 s
    Timing for transforming two-electron integral:     2.781

  ==> String Lists <==

  Number of alpha electrons     = 1
  Number of beta electrons      = 1
  Number of alpha strings       = 2
  Number of beta strings        = 2
  Timing for strings        =      0.000 s
  Timing for NN strings     =      0.000 s
  Timing for VO strings     =      0.000 s
  Timing for OO strings     =      0.000 s
  Timing for Knowles-Handy  =      0.000 s
  Timing for VVOO strings   =      0.000 s
  Timing for VOVO strings   =      0.000 s
  Timing for 1-hole strings =      0.000 s
  Timing for 2-hole strings =      0.000 s
  Timing for 3-hole strings =      0.000 s
  Total timing              =      0.000 s

  ==> FCI Solver <==

    Number of determinants                           2
    Symmetry                                         0
    Multiplicity                                     1
    Number of roots                                  0
    Target root                                      0
    Trial vectors per root                          10

 active_mo size = 2
  Allocating memory for the Hamiltonian algorithm. Size: 2 x 1 x 1.   Memory: 0.000000 GB

  Determinant space is spin complete.

  ==> FCI Initial Guess <==

  ---------------------------------------------
    Root            Energy     <S^2>   Spin
  ---------------------------------------------
      0      -15.515067511225  0.000  singlet
      1      -15.471858567037  0.000  singlet
  ---------------------------------------------
  Timing for initial guess  =      0.000 s

  ==> Diagonalizing Hamiltonian <==

  ----------------------------------------
    Iter.      Avg. Energy       Delta_E
  ----------------------------------------
      1      -15.536777654123  -1.554e+01
      2      -15.536777654123  +3.553e-15
  ----------------------------------------
  The Davidson-Liu algorithm converged in 3 iterations.

  ==> Root No. 0 <==

    0 2      0.89833790
    2 0     -0.43930516

    Total Energy:       -15.536777654122693

  ==> RDMs for Root No. 0 <==

  ==> Density Cumulant Summary <==

    2-body               AA           AB           BB
    -------------------------------------------------
    max            0.155744     0.155744     0.155744
    norm           0.311489     0.639151     0.311489
    -------------------------------------------------
    3-body              AAA          AAB          ABB          BBB
    --------------------------------------------------------------
    max            0.000000     0.095630     0.095630     0.000000
    norm           0.000000     0.270484     0.270484     0.000000
    --------------------------------------------------------------

  ==> Build Initial Amplitude from DSRG-MRPT2 <==

    Computing T2 amplitudes ...          Done. Timing      0.003 s
    Computing T1 amplitudes ...          Done. Timing      0.003 s

  ==> First-Order Excitation Amplitudes Summary <==

    Active Indices:    1    8 
    Largest T1 amplitudes for spin case A:
       i       a                  i       a                  i       a               
    --------------------------------------------------------------------------------
    [  8      10    ] 0.030237 [  8       9    ]-0.019702 [  0       3    ] 0.014845 
    [  1       4    ]-0.014699 [  0       4    ] 0.011773 [  0       1    ] 0.011316 
    [  1       2    ]-0.010322 [  1       3    ]-0.005527 [  0       2    ]-0.002315 
    [  1       5    ]-0.000584 [  8      11    ] 0.000486 [  0       5    ]-0.000413 
    --------------------------------------------------------------------------------
    Norm of T1A vector: (nonzero elements: 12)                    0.046353665005331.
    --------------------------------------------------------------------------------
    Largest T1 amplitudes for spin case B:
       _       _                  _       _                  _       _               
       i       a                  i       a                  i       a               
    --------------------------------------------------------------------------------
    [  8      10    ] 0.030237 [  8       9    ]-0.019702 [  0       3    ] 0.014845 
    [  1       4    ]-0.014699 [  0       4    ] 0.011773 [  0       1    ] 0.011316 
    [  1       2    ]-0.010322 [  1       3    ]-0.005527 [  0       2    ]-0.002315 
    [  1       5    ]-0.000584 [  8      11    ] 0.000486 [  0       5    ]-0.000413 
    --------------------------------------------------------------------------------
    Norm of T1B vector: (nonzero elements: 12)                    0.046353665005331.
    --------------------------------------------------------------------------------
    Largest T2 amplitudes for spin case AA:
       i   j   a   b              i   j   a   b              i   j   a   b           
    --------------------------------------------------------------------------------
    [  0   1   1   3] 0.031134 [  1   8   1   9] 0.015378 [  0   8   3   9] 0.014319 
    [  1   8   3   9]-0.012605 [  0   1   8   9] 0.012354 [  0   8   2   8]-0.012341 
    [  1   8   4   8]-0.012235 [  1   8   2   9] 0.011158 [  0   8   3   8]-0.009881 
    [  0   1   2   3] 0.009766 [  0   8   1   9] 0.008916 [  0   8   4   8] 0.008825 
    [  1   8   2   8]-0.008413 [  1   8   3   8]-0.008048 [  0   8   1   8] 0.007617 
    --------------------------------------------------------------------------------
    Norm of T2AA vector: (nonzero elements: 224)                  0.107050429003335.
    --------------------------------------------------------------------------------
    Largest T2 amplitudes for spin case AB:
           _       _                  _       _                  _       _           
       i   j   a   b              i   j   a   b              i   j   a   b           
    --------------------------------------------------------------------------------
    [  0   0   8   8]-0.061555 [  8   8   8  10] 0.042535 [  8   8   9   9]-0.041106 
    [  0   8   4   8] 0.033154 [  0   0   3   3]-0.032546 [  1   1   9   9]-0.029645 
    [  0   8   3   9] 0.029294 [  0   0   8  10] 0.026033 [  8   8  10  10]-0.025814 
    [  1   1   1   2]-0.025291 [  0   0   8   9]-0.023686 [  1   8   1   9] 0.023281 
    [  1   1   2   2]-0.022609 [  1   1   6   6]-0.021376 [  0   1   8   9] 0.021140 
    --------------------------------------------------------------------------------
    Norm of T2AB vector: (nonzero elements: 377)                  0.200593676650020.
    --------------------------------------------------------------------------------
    Largest T2 amplitudes for spin case BB:
       _   _   _   _              _   _   _   _              _   _   _   _           
       i   j   a   b              i   j   a   b              i   j   a   b           
    --------------------------------------------------------------------------------
    [  0   1   1   3] 0.031134 [  1   8   1   9] 0.015378 [  0   8   3   9] 0.014319 
    [  1   8   3   9]-0.012605 [  0   1   8   9] 0.012354 [  0   8   2   8]-0.012341 
    [  1   8   4   8]-0.012235 [  1   8   2   9] 0.011158 [  0   8   3   8]-0.009881 
    [  0   1   2   3] 0.009766 [  0   8   1   9] 0.008916 [  0   8   4   8] 0.008825 
    [  1   8   2   8]-0.008413 [  1   8   3   8]-0.008048 [  0   8   1   8] 0.007617 
    --------------------------------------------------------------------------------
    Norm of T2BB vector: (nonzero elements: 224)                  0.107050429003335.
    --------------------------------------------------------------------------------

  ==> Possible Intruders <==

    T1 amplitudes larger than 0.1000 for spin case A: NULL
    T1 amplitudes larger than 0.1000 for spin case B: NULL
    T2 amplitudes larger than 0.1000 for spin case AA: NULL
    T2 amplitudes larger than 0.1000 for spin case AB: NULL
    T2 amplitudes larger than 0.1000 for spin case BB: NULL

  ==> Second-Order Perturbation DSRG-MRPT2 <==

    Reference:
      J. Chem. Theory Comput. 2015, 11, 2097-2108.

    Checking if orbitals are semi-canonicalized ...     OK.

  ==> DSRG-MRPT2 Energy Summary <==

    E0 (reference)                 =    -15.483417113725510
    <[F, A1]>                      =     -0.008956934412324
    <[F, A2]>                      =     -0.002130044561987
    <[V, A1]>                      =     -0.002480853861779
    <[V, A2]>                      =     -0.039818259473665
    DSRG-MRPT2 correlation energy  =     -0.053386092309755
    DSRG-MRPT2 total energy        =    -15.536803206035264

  ==> De-Normal-Order the DSRG Transformed Hamiltonian <==

    Computing the scalar term   ...      Done. Timing      0.012 s
    Computing the one-body term ...      Done. Timing      0.007 s
    Updating integrals          ...      Done. Timing      0.011 s

  ==> Scalar of the DSRG Hamiltonian (WRT True Vacuum) <==

    Scalar0                        =     -3.638806953602725
    Scalar1                        =      1.360859144403824
    Scalar2                        =      2.259640898571436
    Total Scalar W/O Frozen-Core   =     -0.018306910627464
    Total Scalar W/  Frozen-Core   =    -14.947685774043903

  ==> Test De-Normal-Ordered Hamiltonian <==

    One-Body Energy (after)        =     -5.761256273179274
    Two-Body Energy (after)        =      2.140756230204015
    Total Energy (after)           =    -15.536803206035263
    Total Energy (before)          =    -15.536803206035264
 Frozen Orbitals takes 0.00000500 s

  ==> String Lists <==

  Number of alpha electrons     = 1
  Number of beta electrons      = 1
  Number of alpha strings       = 2
  Number of beta strings        = 2
  Timing for strings        =      0.000 s
  Timing for NN strings     =      0.000 s
  Timing for VO strings     =      0.000 s
  Timing for OO strings     =      0.000 s
  Timing for Knowles-Handy  =      0.000 s
  Timing for VVOO strings   =      0.000 s
  Timing for VOVO strings   =      0.000 s
  Timing for 1-hole strings =      0.000 s
  Timing for 2-hole strings =      0.000 s
  Timing for 3-hole strings =      0.000 s
  Total timing              =      0.000 s

  ==> FCI Solver <==

    Number of determinants                           2
    Symmetry                                         0
    Multiplicity                                     1
    Number of roots                                  0
    Target root                                      0
    Trial vectors per root                          10

 active_mo size = 2
  Allocating memory for the Hamiltonian algorithm. Size: 2 x 1 x 1.   Memory: 0.000000 GB

  Determinant space is spin complete.

  ==> FCI Initial Guess <==

  ---------------------------------------------
    Root            Energy     <S^2>   Spin
  ---------------------------------------------
      0      -15.515116129983  0.000  singlet
      1      -15.471907185795  0.000  singlet
  ---------------------------------------------
  Timing for initial guess  =      0.000 s

  ==> Diagonalizing Hamiltonian <==

  ----------------------------------------
    Iter.      Avg. Energy       Delta_E
  ----------------------------------------
      1      -15.536803490610  -1.554e+01
      2      -15.536803490610  +0.000e+00
  ----------------------------------------
  The Davidson-Liu algorithm converged in 3 iterations.

  ==> Root No. 0 <==

    0 2     -0.89947181
    2 0      0.43697879

    Total Energy:       -15.536803490610376

  ==> RDMs for Root No. 0 <==

  ==> Density Cumulant Summary <==

    2-body               AA           AB           BB
    -------------------------------------------------
    max            0.154488     0.154488     0.154488
    norm           0.308977     0.635959     0.308977
    -------------------------------------------------
    3-body              AAA          AAB          ABB          BBB
    --------------------------------------------------------------
    max            0.000000     0.095489     0.095489     0.000000
    norm           0.000000     0.270084     0.270084     0.000000
    --------------------------------------------------------------

  ==> Semi-canonicalize Orbitals <==

    Checking if orbitals are semi-canonicalized ...
    Warning! Orbitals are not semi-canonicalized!
    Off-Diagonal norms of the core, active, virtual blocks of Fock matrix
                  core          active         virtual
    ---------------------------------------------------
    Fa    0.0000000000    0.0000000000    0.0002452860
    Fb    0.0000000000    0.0000000000    0.0002452860
    ---------------------------------------------------

    Timing for block-diagonalizing Fock matrix:        0.000
    Timing for transforming one-electron integral:     0.069
 Frozen Orbitals takes 0.00000300 s
    Timing for transforming two-electron integral:     2.773

  ==> String Lists <==

  Number of alpha electrons     = 1
  Number of beta electrons      = 1
  Number of alpha strings       = 2
  Number of beta strings        = 2
  Timing for strings        =      0.000 s
  Timing for NN strings     =      0.000 s
  Timing for VO strings     =      0.000 s
  Timing for OO strings     =      0.000 s
  Timing for Knowles-Handy  =      0.000 s
  Timing for VVOO strings   =      0.000 s
  Timing for VOVO strings   =      0.000 s
  Timing for 1-hole strings =      0.000 s
  Timing for 2-hole strings =      0.000 s
  Timing for 3-hole strings =      0.000 s
  Total timing              =      0.000 s

  ==> FCI Solver <==

    Number of determinants                           2
    Symmetry                                         0
    Multiplicity                                     1
    Number of roots                                  0
    Target root                                      0
    Trial vectors per root                          10

 active_mo size = 2
  Allocating memory for the Hamiltonian algorithm. Size: 2 x 1 x 1.   Memory: 0.000000 GB

  Determinant space is spin complete.

  ==> FCI Initial Guess <==

  ---------------------------------------------
    Root            Energy     <S^2>   Spin
  ---------------------------------------------
      0      -15.515116129983  0.000  singlet
      1      -15.471907185795  0.000  singlet
  ---------------------------------------------
  Timing for initial guess  =      0.000 s

  ==> Diagonalizing Hamiltonian <==

  ----------------------------------------
    Iter.      Avg. Energy       Delta_E
  ----------------------------------------
      1      -15.536803490610  -1.554e+01
      2      -15.536803490610  +0.000e+00
  ----------------------------------------
  The Davidson-Liu algorithm converged in 3 iterations.

  ==> Root No. 0 <==

    0 2     -0.89947181
    2 0      0.43697879

    Total Energy:       -15.536803490610376

  ==> RDMs for Root No. 0 <==

  ==> Density Cumulant Summary <==

    2-body               AA           AB           BB
    -------------------------------------------------
    max            0.154488     0.154488     0.154488
    norm           0.308977     0.635959     0.308977
    -------------------------------------------------
    3-body              AAA          AAB          ABB          BBB
    --------------------------------------------------------------
    max            0.000000     0.095489     0.095489     0.000000
    norm           0.000000     0.270084     0.270084     0.000000
    --------------------------------------------------------------

  ==> Build Initial Amplitude from DSRG-MRPT2 <==

    Computing T2 amplitudes ...          Done. Timing      0.003 s
    Computing T1 amplitudes ...          Done. Timing      0.003 s

  ==> First-Order Excitation Amplitudes Summary <==

    Active Indices:    1    8 
    Largest T1 amplitudes for spin case A:
       i       a                  i       a                  i       a               
    --------------------------------------------------------------------------------
    [  8      10    ]-0.030283 [  8       9    ]-0.019816 [  0       3    ]-0.014940 
    [  1       4    ]-0.014757 [  0       4    ] 0.011850 [  0       1    ] 0.011367 
    [  1       2    ]-0.010293 [  1       3    ] 0.005607 [  0       2    ]-0.002336 
    [  1       5    ]-0.000589 [  8      11    ] 0.000488 [  0       5    ]-0.000415 
    --------------------------------------------------------------------------------
    Norm of T1A vector: (nonzero elements: 12)                    0.046518430211325.
    --------------------------------------------------------------------------------
    Largest T1 amplitudes for spin case B:
       _       _                  _       _                  _       _               
       i       a                  i       a                  i       a               
    --------------------------------------------------------------------------------
    [  8      10    ]-0.030283 [  8       9    ]-0.019816 [  0       3    ]-0.014940 
    [  1       4    ]-0.014757 [  0       4    ] 0.011850 [  0       1    ] 0.011367 
    [  1       2    ]-0.010293 [  1       3    ] 0.005607 [  0       2    ]-0.002336 
    [  1       5    ]-0.000589 [  8      11    ] 0.000488 [  0       5    ]-0.000415 
    --------------------------------------------------------------------------------
    Norm of T1B vector: (nonzero elements: 12)                    0.046518430211325.
    --------------------------------------------------------------------------------
    Largest T2 amplitudes for spin case AA:
       i   j   a   b              i   j   a   b              i   j   a   b           
    --------------------------------------------------------------------------------
    [  0   1   1   3]-0.031133 [  1   8   1   9] 0.015384 [  0   8   3   9]-0.014319 
    [  1   8   3   9] 0.012599 [  0   1   8   9] 0.012343 [  0   8   2   8]-0.012330 
    [  1   8   4   8]-0.012232 [  1   8   2   9] 0.011163 [  0   8   3   8] 0.009886 
    [  0   1   2   3]-0.009767 [  0   8   1   9] 0.008915 [  0   8   4   8] 0.008825 
    [  1   8   2   8]-0.008401 [  1   8   3   8] 0.008053 [  0   8   1   8] 0.007613 
    --------------------------------------------------------------------------------
    Norm of T2AA vector: (nonzero elements: 224)                  0.107034807226207.
    --------------------------------------------------------------------------------
    Largest T2 amplitudes for spin case AB:
           _       _                  _       _                  _       _           
       i   j   a   b              i   j   a   b              i   j   a   b           
    --------------------------------------------------------------------------------
    [  0   0   8   8]-0.061478 [  8   8   8  10]-0.042528 [  8   8   9   9]-0.041111 
    [  0   8   4   8] 0.033153 [  0   0   3   3]-0.032558 [  1   1   9   9]-0.029630 
    [  0   8   3   9]-0.029294 [  0   0   8  10]-0.026040 [  8   8  10  10]-0.025799 
    [  1   1   1   2]-0.025272 [  0   0   8   9]-0.023682 [  1   8   1   9] 0.023290 
    [  1   1   2   2]-0.022603 [  1   1   6   6]-0.021342 [  0   1   8   9] 0.021120 
    --------------------------------------------------------------------------------
    Norm of T2AB vector: (nonzero elements: 377)                  0.200534115364592.
    --------------------------------------------------------------------------------
    Largest T2 amplitudes for spin case BB:
       _   _   _   _              _   _   _   _              _   _   _   _           
       i   j   a   b              i   j   a   b              i   j   a   b           
    --------------------------------------------------------------------------------
    [  0   1   1   3]-0.031133 [  1   8   1   9] 0.015384 [  0   8   3   9]-0.014319 
    [  1   8   3   9] 0.012599 [  0   1   8   9] 0.012343 [  0   8   2   8]-0.012330 
    [  1   8   4   8]-0.012232 [  1   8   2   9] 0.011163 [  0   8   3   8] 0.009886 
    [  0   1   2   3]-0.009767 [  0   8   1   9] 0.008915 [  0   8   4   8] 0.008825 
    [  1   8   2   8]-0.008401 [  1   8   3   8] 0.008053 [  0   8   1   8] 0.007613 
    --------------------------------------------------------------------------------
    Norm of T2BB vector: (nonzero elements: 224)                  0.107034807226207.
    --------------------------------------------------------------------------------

  ==> Possible Intruders <==

    T1 amplitudes larger than 0.1000 for spin case A: NULL
    T1 amplitudes larger than 0.1000 for spin case B: NULL
    T2 amplitudes larger than 0.1000 for spin case AA: NULL
    T2 amplitudes larger than 0.1000 for spin case AB: NULL
    T2 amplitudes larger than 0.1000 for spin case BB: NULL

  ==> Second-Order Perturbation DSRG-MRPT2 <==

    Reference:
      J. Chem. Theory Comput. 2015, 11, 2097-2108.

    Checking if orbitals are semi-canonicalized ...     OK.

  ==> DSRG-MRPT2 Energy Summary <==

    E0 (reference)                 =    -15.483417113725510
    <[F, A1]>                      =     -0.009045615787739
    <[F, A2]>                      =     -0.002117897828629
    <[V, A1]>                      =     -0.002471350702400
    <[V, A2]>                      =     -0.039739945031347
    DSRG-MRPT2 correlation energy  =     -0.053374809350115
    DSRG-MRPT2 total energy        =    -15.536791923075626

  ==> De-Normal-Order the DSRG Transformed Hamiltonian <==

    Computing the scalar term   ...      Done. Timing      0.012 s
    Computing the one-body term ...      Done. Timing      0.007 s
    Updating integrals          ...      Done. Timing      0.011 s

  ==> Scalar of the DSRG Hamiltonian (WRT True Vacuum) <==

    Scalar0                        =     -3.638795670643084
    Scalar1                        =      1.360767724969407
    Scalar2                        =      2.259537145437342
    Total Scalar W/O Frozen-Core   =     -0.018490800236335
    Total Scalar W/  Frozen-Core   =    -14.947869663652774

  ==> Test De-Normal-Ordered Hamiltonian <==

    One-Body Energy (after)        =     -5.761784591156095
    Two-Body Energy (after)        =      2.141479720749346
    Total Energy (after)           =    -15.536791923075626
    Total Energy (before)          =    -15.536791923075626
 Frozen Orbitals takes 0.00000300 s

  ==> String Lists <==

  Number of alpha electrons     = 1
  Number of beta electrons      = 1
  Number of alpha strings       = 2
  Number of beta strings        = 2
  Timing for strings        =      0.000 s
  Timing for NN strings     =      0.000 s
[...]
  Allocating memory for the Hamiltonian algorithm. Size: 2 x 1 x 1.   Memory: 0.000000 GB

  Determinant space is spin complete.

  ==> FCI Initial Guess <==

  ---------------------------------------------
    Root            Energy     <S^2>   Spin
  ---------------------------------------------
      0      -15.515101122820  0.000  singlet
      1      -15.471892178632  0.000  singlet
  ---------------------------------------------
  Timing for initial guess  =      0.000 s

  ==> Diagonalizing Hamiltonian <==

  ----------------------------------------
    Iter.      Avg. Energy       Delta_E
  ----------------------------------------
      1      -15.536795202677  -1.554e+01
      2      -15.536795202677  +0.000e+00
  ----------------------------------------
  The Davidson-Liu algorithm converged in 3 iterations.

  ==> Root No. 0 <==

    0 2     -0.89914214
    2 0      0.43765672

    Total Energy:       -15.536795202676791

  ==> RDMs for Root No. 0 <==

  ==> Density Cumulant Summary <==

    2-body               AA           AB           BB
    -------------------------------------------------
    max            0.154855     0.154855     0.154855
    norm           0.309709     0.636890     0.309709
    -------------------------------------------------
    3-body              AAA          AAB          ABB          BBB
    --------------------------------------------------------------
    max            0.000000     0.095532     0.095532     0.000000
    norm           0.000000     0.270205     0.270205     0.000000
    --------------------------------------------------------------

  ==> Semi-canonicalize Orbitals <==

    Checking if orbitals are semi-canonicalized ...
    Warning! Orbitals are not semi-canonicalized!
    Off-Diagonal norms of the core, active, virtual blocks of Fock matrix
                  core          active         virtual
    ---------------------------------------------------
    Fa    0.0000000000    0.0000000000    0.0000000141
    Fb    0.0000000000    0.0000000000    0.0000000141
    ---------------------------------------------------

    Timing for block-diagonalizing Fock matrix:        0.000
    Timing for transforming one-electron integral:     0.068
 Frozen Orbitals takes 0.00000300 s
    Timing for transforming two-electron integral:     2.823

  ==> String Lists <==

  Number of alpha electrons     = 1
  Number of beta electrons      = 1
  Number of alpha strings       = 2
  Number of beta strings        = 2
  Timing for strings        =      0.000 s
  Timing for NN strings     =      0.000 s
  Timing for VO strings     =      0.000 s
  Timing for OO strings     =      0.000 s
  Timing for Knowles-Handy  =      0.000 s
  Timing for VVOO strings   =      0.000 s
  Timing for VOVO strings   =      0.000 s
  Timing for 1-hole strings =      0.000 s
  Timing for 2-hole strings =      0.000 s
  Timing for 3-hole strings =      0.000 s
  Total timing              =      0.000 s

  ==> FCI Solver <==

    Number of determinants                           2
    Symmetry                                         0
    Multiplicity                                     1
    Number of roots                                  0
    Target root                                      0
    Trial vectors per root                          10

 active_mo size = 2
  Allocating memory for the Hamiltonian algorithm. Size: 2 x 1 x 1.   Memory: 0.000000 GB

  Determinant space is spin complete.

  ==> FCI Initial Guess <==

  ---------------------------------------------
    Root            Energy     <S^2>   Spin
  ---------------------------------------------
      0      -15.515101122820  0.000  singlet
      1      -15.471892178632  0.000  singlet
  ---------------------------------------------
  Timing for initial guess  =      0.000 s

  ==> Diagonalizing Hamiltonian <==

  ----------------------------------------
    Iter.      Avg. Energy       Delta_E
  ----------------------------------------
      1      -15.536795202677  -1.554e+01
      2      -15.536795202677  +0.000e+00
  ----------------------------------------
  The Davidson-Liu algorithm converged in 3 iterations.

  ==> Root No. 0 <==

    0 2     -0.89914214
    2 0      0.43765672

    Total Energy:       -15.536795202676791

  ==> RDMs for Root No. 0 <==

  ==> Density Cumulant Summary <==

    2-body               AA           AB           BB
    -------------------------------------------------
    max            0.154855     0.154855     0.154855
    norm           0.309709     0.636890     0.309709
    -------------------------------------------------
    3-body              AAA          AAB          ABB          BBB
    --------------------------------------------------------------
    max            0.000000     0.095532     0.095532     0.000000
    norm           0.000000     0.270205     0.270205     0.000000
    --------------------------------------------------------------

  ==> Build Initial Amplitude from DSRG-MRPT2 <==

    Computing T2 amplitudes ...          Done. Timing      0.003 s
    Computing T1 amplitudes ...          Done. Timing      0.003 s

  ==> First-Order Excitation Amplitudes Summary <==

    Active Indices:    1    8 
    Largest T1 amplitudes for spin case A:
       i       a                  i       a                  i       a               
    --------------------------------------------------------------------------------
    [  8      10    ] 0.030270 [  8       9    ]-0.019783 [  0       3    ] 0.014912 
    [  1       4    ]-0.014740 [  0       4    ] 0.011827 [  0       1    ] 0.011352 
    [  1       2    ]-0.010301 [  1       3    ]-0.005584 [  0       2    ]-0.002330 
    [  1       5    ]-0.000588 [  8      11    ] 0.000488 [  0       5    ]-0.000414 
    --------------------------------------------------------------------------------
    Norm of T1A vector: (nonzero elements: 12)                    0.046470470703852.
    --------------------------------------------------------------------------------
    Largest T1 amplitudes for spin case B:
       _       _                  _       _                  _       _               
       i       a                  i       a                  i       a               
    --------------------------------------------------------------------------------
    [  8      10    ] 0.030270 [  8       9    ]-0.019783 [  0       3    ] 0.014912 
    [  1       4    ]-0.014740 [  0       4    ] 0.011827 [  0       1    ] 0.011352 
    [  1       2    ]-0.010301 [  1       3    ]-0.005584 [  0       2    ]-0.002330 
    [  1       5    ]-0.000588 [  8      11    ] 0.000488 [  0       5    ]-0.000414 
    --------------------------------------------------------------------------------
    Norm of T1B vector: (nonzero elements: 12)                    0.046470470703852.
    --------------------------------------------------------------------------------
    Largest T2 amplitudes for spin case AA:
       i   j   a   b              i   j   a   b              i   j   a   b           
    --------------------------------------------------------------------------------
    [  0   1   1   3] 0.031133 [  1   8   1   9] 0.015383 [  0   8   3   9] 0.014319 
    [  1   8   3   9]-0.012600 [  0   1   8   9] 0.012346 [  0   8   2   8]-0.012333 
    [  1   8   4   8]-0.012233 [  1   8   2   9] 0.011161 [  0   8   3   8]-0.009885 
    [  0   1   2   3] 0.009767 [  0   8   1   9] 0.008916 [  0   8   4   8] 0.008825 
    [  1   8   2   8]-0.008404 [  1   8   3   8]-0.008051 [  0   8   1   8] 0.007614 
    --------------------------------------------------------------------------------
    Norm of T2AA vector: (nonzero elements: 224)                  0.107039352803304.
    --------------------------------------------------------------------------------
    Largest T2 amplitudes for spin case AB:
           _       _                  _       _                  _       _           
       i   j   a   b              i   j   a   b              i   j   a   b           
    --------------------------------------------------------------------------------
    [  0   0   8   8]-0.061500 [  8   8   8  10] 0.042530 [  8   8   9   9]-0.041109 
    [  0   8   4   8] 0.033153 [  0   0   3   3]-0.032554 [  1   1   9   9]-0.029634 
    [  0   8   3   9] 0.029294 [  0   0   8  10] 0.026038 [  8   8  10  10]-0.025803 
    [  1   1   1   2]-0.025278 [  0   0   8   9]-0.023683 [  1   8   1   9] 0.023288 
    [  1   1   2   2]-0.022604 [  1   1   6   6]-0.021352 [  0   1   8   9] 0.021126 
    --------------------------------------------------------------------------------
    Norm of T2AB vector: (nonzero elements: 377)                  0.200551448877485.
    --------------------------------------------------------------------------------
    Largest T2 amplitudes for spin case BB:
       _   _   _   _              _   _   _   _              _   _   _   _           
       i   j   a   b              i   j   a   b              i   j   a   b           
    --------------------------------------------------------------------------------
    [  0   1   1   3] 0.031133 [  1   8   1   9] 0.015383 [  0   8   3   9] 0.014319 
    [  1   8   3   9]-0.012600 [  0   1   8   9] 0.012346 [  0   8   2   8]-0.012333 
    [  1   8   4   8]-0.012233 [  1   8   2   9] 0.011161 [  0   8   3   8]-0.009885 
    [  0   1   2   3] 0.009767 [  0   8   1   9] 0.008916 [  0   8   4   8] 0.008825 
    [  1   8   2   8]-0.008404 [  1   8   3   8]-0.008051 [  0   8   1   8] 0.007614 
    --------------------------------------------------------------------------------
    Norm of T2BB vector: (nonzero elements: 224)                  0.107039352803304.
    --------------------------------------------------------------------------------

  ==> Possible Intruders <==

    T1 amplitudes larger than 0.1000 for spin case A: NULL
    T1 amplitudes larger than 0.1000 for spin case B: NULL
    T2 amplitudes larger than 0.1000 for spin case AA: NULL
    T2 amplitudes larger than 0.1000 for spin case AB: NULL
    T2 amplitudes larger than 0.1000 for spin case BB: NULL

  ==> Second-Order Perturbation DSRG-MRPT2 <==

    Reference:
      J. Chem. Theory Comput. 2015, 11, 2097-2108.

    Checking if orbitals are semi-canonicalized ...     OK.

  ==> DSRG-MRPT2 Energy Summary <==

    E0 (reference)                 =    -15.483417113725510
    <[F, A1]>                      =     -0.009019754315287
    <[F, A2]>                      =     -0.002121453515298
    <[V, A1]>                      =     -0.002474140058924
    <[V, A2]>                      =     -0.039762741712439
    DSRG-MRPT2 correlation energy  =     -0.053378089601948
    DSRG-MRPT2 total energy        =    -15.536795203327458

  ==> De-Normal-Order the DSRG Transformed Hamiltonian <==

    Computing the scalar term   ...      Done. Timing      0.013 s
    Computing the one-body term ...      Done. Timing      0.007 s
    Updating integrals          ...      Done. Timing      0.011 s

  ==> Scalar of the DSRG Hamiltonian (WRT True Vacuum) <==

    Scalar0                        =     -3.638798950894916
    Scalar1                        =      1.360793831268440
    Scalar2                        =      2.259568021540372
    Total Scalar W/O Frozen-Core   =     -0.018437098086105
    Total Scalar W/  Frozen-Core   =    -14.947815961502544

  ==> Test De-Normal-Ordered Hamiltonian <==

    One-Body Energy (after)        =     -5.761631162090644
    Two-Body Energy (after)        =      2.141269309281834
    Total Energy (after)           =    -15.536795203327456
    Total Energy (before)          =    -15.536795203327458
 Frozen Orbitals takes 0.00000300 s

  ==> String Lists <==

  Number of alpha electrons     = 1
  Number of beta electrons      = 1
  Number of alpha strings       = 2
  Number of beta strings        = 2
  Timing for strings        =      0.000 s
  Timing for NN strings     =      0.000 s
  Timing for VO strings     =      0.000 s
  Timing for OO strings     =      0.000 s
  Timing for Knowles-Handy  =      0.000 s
  Timing for VVOO strings   =      0.000 s
  Timing for VOVO strings   =      0.000 s
  Timing for 1-hole strings =      0.000 s
  Timing for 2-hole strings =      0.000 s
  Timing for 3-hole strings =      0.000 s
  Total timing              =      0.000 s

  ==> FCI Solver <==

    Number of determinants                           2
    Symmetry                                         0
    Multiplicity                                     1
    Number of roots                                  0
    Target root                                      0
    Trial vectors per root                          10

 active_mo size = 2
  Allocating memory for the Hamiltonian algorithm. Size: 2 x 1 x 1.   Memory: 0.000000 GB

  Determinant space is spin complete.

  ==> FCI Initial Guess <==

  ---------------------------------------------
    Root            Energy     <S^2>   Spin
  ---------------------------------------------
      0      -15.515101124017  0.000  singlet
      1      -15.471892179828  0.000  singlet
  ---------------------------------------------
  Timing for initial guess  =      0.000 s

  ==> Diagonalizing Hamiltonian <==

  ----------------------------------------
    Iter.      Avg. Energy       Delta_E
  ----------------------------------------
      1      -15.536795203327  -1.554e+01
      2      -15.536795203327  -3.553e-15
  ----------------------------------------
  The Davidson-Liu algorithm converged in 3 iterations.

  ==> Root No. 0 <==

    0 2      0.89914217
    2 0     -0.43765666

    Total Energy:       -15.536795203327459

  ==> RDMs for Root No. 0 <==

  ==> Density Cumulant Summary <==

    2-body               AA           AB           BB
    -------------------------------------------------
    max            0.154854     0.154854     0.154854
    norm           0.309709     0.636890     0.309709
    -------------------------------------------------
    3-body              AAA          AAB          ABB          BBB
    --------------------------------------------------------------
    max            0.000000     0.095532     0.095532     0.000000
    norm           0.000000     0.270205     0.270205     0.000000
    --------------------------------------------------------------

  ==> Semi-canonicalize Orbitals <==

    Checking if orbitals are semi-canonicalized ...
    Warning! Orbitals are not semi-canonicalized!
    Off-Diagonal norms of the core, active, virtual blocks of Fock matrix
                  core          active         virtual
    ---------------------------------------------------
    Fa    0.0000000000    0.0000000000    0.0000000058
    Fb    0.0000000000    0.0000000000    0.0000000058
    ---------------------------------------------------

    Timing for block-diagonalizing Fock matrix:        0.000
    Timing for transforming one-electron integral:     0.069
 Frozen Orbitals takes 0.00000300 s
    Timing for transforming two-electron integral:     2.829

  ==> String Lists <==

  Number of alpha electrons     = 1
  Number of beta electrons      = 1
  Number of alpha strings       = 2
  Number of beta strings        = 2
  Timing for strings        =      0.000 s
  Timing for NN strings     =      0.000 s
  Timing for VO strings     =      0.000 s
  Timing for OO strings     =      0.000 s
  Timing for Knowles-Handy  =      0.000 s
  Timing for VVOO strings   =      0.000 s
  Timing for VOVO strings   =      0.000 s
  Timing for 1-hole strings =      0.000 s
  Timing for 2-hole strings =      0.000 s
  Timing for 3-hole strings =      0.000 s
  Total timing              =      0.000 s

  ==> FCI Solver <==

    Number of determinants                           2
    Symmetry                                         0
    Multiplicity                                     1
    Number of roots                                  0
    Target root                                      0
    Trial vectors per root                          10

 active_mo size = 2
  Allocating memory for the Hamiltonian algorithm. Size: 2 x 1 x 1.   Memory: 0.000000 GB

  Determinant space is spin complete.

  ==> FCI Initial Guess <==

  ---------------------------------------------
    Root            Energy     <S^2>   Spin
  ---------------------------------------------
      0      -15.515101124017  0.000  singlet
      1      -15.471892179828  0.000  singlet
  ---------------------------------------------
  Timing for initial guess  =      0.000 s

  ==> Diagonalizing Hamiltonian <==

  ----------------------------------------
    Iter.      Avg. Energy       Delta_E
  ----------------------------------------
      1      -15.536795203327  -1.554e+01
      2      -15.536795203327  -3.553e-15
  ----------------------------------------
  The Davidson-Liu algorithm converged in 3 iterations.

  ==> Root No. 0 <==

    0 2      0.89914217
    2 0     -0.43765666

    Total Energy:       -15.536795203327459

  ==> RDMs for Root No. 0 <==

  ==> Density Cumulant Summary <==

    2-body               AA           AB           BB
    -------------------------------------------------
    max            0.154854     0.154854     0.154854
    norm           0.309709     0.636890     0.309709
    -------------------------------------------------
    3-body              AAA          AAB          ABB          BBB
    --------------------------------------------------------------
    max            0.000000     0.095532     0.095532     0.000000
    norm           0.000000     0.270205     0.270205     0.000000
    --------------------------------------------------------------

  ==> MRDSRG Reference Relaxation Summary <==

                  Fixed Ref. (a.u.)               Relaxed Ref. (a.u.)      
           -------------------------------  -------------------------------
    Iter.      Total Energy        Delta        Total Energy        Delta  
    -----------------------------------------------------------------------
        0      -15.536686196752 -1.554e+01      -15.536742166051 -1.554e+01
        1      -15.536843193623 -1.570e-04      -15.536853239731 -1.111e-04
        2      -15.536775993018  6.720e-05      -15.536777654123  7.559e-05
        3      -15.536803206035 -2.721e-05      -15.536803490610 -2.584e-05
        4      -15.536791923076  1.128e-05      -15.536791971136  1.152e-05
        5      -15.536796556591 -4.634e-06      -15.536796564756 -4.594e-06
        6      -15.536794646207  1.910e-06      -15.536794647591  1.917e-06
        7      -15.536795432570 -7.864e-07      -15.536795432805 -7.852e-07
        8      -15.536795108665  3.239e-07      -15.536795108705  3.241e-07
        9      -15.536795242046 -1.334e-07      -15.536795242052 -1.333e-07
       10      -15.536795187115  5.493e-08      -15.536795187116  5.494e-08
       11      -15.536795209736 -2.262e-08      -15.536795209736 -2.262e-08
       12      -15.536795200420  9.316e-09      -15.536795200420  9.316e-09
       13      -15.536795204257 -3.837e-09      -15.536795204257 -3.836e-09
       14      -15.536795202677  1.580e-09      -15.536795202677  1.580e-09
       15      -15.536795203327 -6.507e-10      -15.536795203327 -6.507e-10
    -----------------------------------------------------------------------
    MRDSRG Total Energy            =     -15.536795203327458
    MRDSRG Total Energy (relaxed)  =     -15.536795203327459


  ==> Total Timings (s) for Computing Commutators <==

             [H1, T1]    [H1, T2]    [H2, T1]    [H2, T2]
    -----------------------------------------------------
    -> C0       0.026       0.050       0.119       1.700
    -> C1       0.145       0.748       0.545       7.433
    -> C2                   2.542       2.905      16.682
    -----------------------------------------------------


  Your calculation took 81.47189900 seconds

*** PSI4 exiting successfully. Buy a developer a beer!
