
    -----------------------------------------------------------------------
          Psi4: An Open-Source Ab Initio Electronic Structure Package
                               Psi4 undefined 

                         Git: Rev {mints_oei} 4aa373e 


    R. M. Parrish, L. A. Burns, D. G. A. Smith, A. C. Simmonett,
    A. E. DePrince III, E. G. Hohenstein, U. Bozkaya, A. Yu. Sokolov,
    R. Di Remigio, R. M. Richard, J. F. Gonthier, A. M. James,
    H. R. McAlexander, A. Kumar, M. Saitow, X. Wang, B. P. Pritchard,
    P. Verma, H. F. Schaefer III, K. Patkowski, R. A. King, E. F. Valeev,
    F. A. Evangelista, J. M. Turney, T. D. Crawford, and C. D. Sherrill,
    J. Chem. Theory Comput. 13(7) pp 3185--3197 (2017).
    (doi: 10.1021/acs.jctc.7b00174)


                         Additional Contributions by
    P. Kraus, H. Kruse, M. H. Lechner, M. C. Schieber, R. A. Shaw,
    A. Alenaizan, R. Galvelis, Z. L. Glick, S. Lehtola, and J. P. Misiewicz

    -----------------------------------------------------------------------


    Psi4 started on: Sunday, 19 January 2020 06:06PM

    Process ID: 82322
    Host:       CHE-FEVANGE-01I (2)
    PSIDATADIR: /Users/fevange/Source/psi4/objdir-Debug/stage/share/psi4
    Memory:     500.0 MiB
    Threads:    1
    
  ==> Input File <==

--------------------------------------------------------------------------
#! Generated using commit GITCOMMIT

import forte

refcasscf    = -112.881481489289285
refpt3       = -113.12361673739 # -113.12361675278
refpt3_relax = -113.125830195301 # -113.12583018758
dmpt3        =    0.110384
dmpt3_relax  =    0.069265

molecule CO{
  0 1
  C
  O  1 1.128
}

set {
  basis                  cc-pcvdz
  reference              rhf
  scf_type               out_of_core
  maxiter                300
  e_convergence          10
  d_convergence          8
  docc                   [5,0,1,1]
  restricted_docc        [2,0,0,0]
  active                 [4,0,2,2]
  mcscf_maxiter          100
  mcscf_r_convergence    8
  mcscf_e_convergence    10
  mcscf_diis_start       6
}

Ecasscf, wfn_cas = energy('casscf', return_wfn=True)
compare_values(refcasscf,variable("CURRENT ENERGY"),10,"CASSCF energy")

set forte {
  active_space_solver cas
  correlation_solver dsrg-mrpt3
  frozen_docc        [0,0,0,0]
  frozen_uocc        [0,0,0,0]
  restricted_docc    [2,0,0,0]
  active             [4,0,2,2]
  root_sym           0
  nroot              1
  dsrg_s             0.5
  relax_ref          once
  dsrg_dipole        true
  multiplicity       1
  r_convergence      9
}

Eforte, wfn_cas = energy('forte', ref_wfn=wfn_cas, return_wfn=True)
compare_values(refpt3,variable("UNRELAXED ENERGY"),9,"DSRG-MRPT3 unrelaxed energy")
compare_values(refpt3_relax,variable("PARTIALLY RELAXED ENERGY"),9,"DSRG-MRPT3 partially relaxed energy")
compare_values(dmpt3,variable("UNRELAXED DIPOLE"),5,"DSRG-MRPT3 dipole moment unrelaxed ref")
compare_values(dmpt3_relax,variable("PARTIALLY RELAXED DIPOLE"),5,"DSRG-MRPT3 dipole moment partially relaxed ref")
--------------------------------------------------------------------------

Scratch directory: /tmp/

*** tstart() called on CHE-FEVANGE-01I (2)
*** at Sun Jan 19 18:06:55 2020

   => Loading Basis Set <=

    Name: CC-PCVDZ
    Role: ORBITAL
    Keyword: BASIS
    atoms 1 entry C          line   178 file /Users/fevange/Source/psi4/objdir-Debug/stage/share/psi4/basis/cc-pcvdz.gbs 
    atoms 2 entry O          line   246 file /Users/fevange/Source/psi4/objdir-Debug/stage/share/psi4/basis/cc-pcvdz.gbs 


         ---------------------------------------------------------
                                   SCF
               by Justin Turney, Rob Parrish, Andy Simmonett
                          and Daniel G. A. Smith
                              RHF Reference
                        1 Threads,    500 MiB Core
         ---------------------------------------------------------

  ==> Geometry <==

    Molecular point group: c2v
    Full point group: C_inf_v

    Geometry (in Angstrom), charge = 0, multiplicity = 1:

       Center              X                  Y                   Z               Mass       
    ------------   -----------------  -----------------  -----------------  -----------------
         C            0.000000000000     0.000000000000    -0.644483611972    12.000000000000
         O            0.000000000000     0.000000000000     0.483516388028    15.994914619570

  Running in c2v symmetry.

  Rotational constants: A = ************  B =      1.93239  C =      1.93239 [cm^-1]
  Rotational constants: A = ************  B =  57931.52687  C =  57931.52687 [MHz]
  Nuclear repulsion =   22.518179177446818

  Charge       = 0
  Multiplicity = 1
  Electrons    = 14
  Nalpha       = 7
  Nbeta        = 7

  ==> Algorithm <==

  SCF Algorithm Type is OUT_OF_CORE.
  DIIS enabled.
  MOM disabled.
  Fractional occupation disabled.
  Guess Type is SAD.
  Energy threshold   = 1.00e-10
  Density threshold  = 1.00e-08
  Integral threshold = 0.00e+00

  ==> Primary Basis <==

  Basis Set: CC-PCVDZ
    Blend: CC-PCVDZ
    Number of shells: 16
    Number of basis function: 36
    Number of Cartesian functions: 38
    Spherical Harmonics?: true
    Max angular momentum: 2

  ==> Pre-Iterations <==

   -------------------------------------------------------
    Irrep   Nso     Nmo     Nalpha   Nbeta   Ndocc  Nsocc
   -------------------------------------------------------
     A1        18      18       5       5       5       0
     A2         2       2       0       0       0       0
     B1         8       8       1       1       1       0
     B2         8       8       1       1       1       0
   -------------------------------------------------------
    Total      36      36       7       7       7       0
   -------------------------------------------------------

  ==> Integral Setup <==

  ==> DiskJK: Disk-Based J/K Matrices <==

    J tasked:                  Yes
    K tasked:                  Yes
    wK tasked:                  No
    Memory [MiB]:              375
    Schwarz Cutoff:          1E-12

  Minimum eigenvalue in the overlap matrix is 2.0505153821E-02.
    Using symmetric orthogonalization.
  SCF Guess: Superposition of Atomic Densities via on-the-fly atomic UHF.

  ==> Iterations <==

                        Total Energy        Delta E     RMS |[F,P]|

   @RHF iter SAD:  -111.88996774534564   -1.11890e+02   0.00000e+00 
   @RHF iter   1:  -112.72731115785291   -8.37343e-01   1.17690e-02 DIIS
   @RHF iter   2:  -112.73600273753503   -8.69158e-03   9.44286e-03 DIIS
   @RHF iter   3:  -112.74993141249811   -1.39287e-02   7.12800e-04 DIIS
   @RHF iter   4:  -112.75004012308817   -1.08711e-04   1.08762e-04 DIIS
   @RHF iter   5:  -112.75004315377582   -3.03069e-06   2.28745e-05 DIIS
   @RHF iter   6:  -112.75004330906327   -1.55287e-07   3.37580e-06 DIIS
   @RHF iter   7:  -112.75004331336638   -4.30310e-09   8.28187e-07 DIIS
   @RHF iter   8:  -112.75004331359222   -2.25839e-10   1.98285e-07 DIIS
   @RHF iter   9:  -112.75004331360643   -1.42109e-11   2.66678e-08 DIIS
   @RHF iter  10:  -112.75004331360661   -1.84741e-13   1.52741e-09 DIIS
  Energy and wave function converged.


  ==> Post-Iterations <==

    Orbital Energies [Eh]
    ---------------------

    Doubly Occupied:                                                      

       1A1   -20.668890     2A1   -11.365963     3A1    -1.523140  
       4A1    -0.802554     1B1    -0.634873     1B2    -0.634873  
       5A1    -0.549177  

    Virtual:                                                              

       2B2     0.154401     2B1     0.154401     6A1     0.380852  
       3B1     0.670613     3B2     0.670613     7A1     0.701250  
       8A1     0.986742     9A1     1.059106     4B2     1.221623  
       4B1     1.221623    10A1     1.343977     1A2     1.343977  
       5B2     1.557876     5B1     1.557876    11A1     1.851977  
      12A1     2.296636     2A2     2.936755    13A1     2.936755  
       6B2     3.425935     6B1     3.425935    14A1     3.835986  
      15A1    19.382076     7B2    22.459965     7B1    22.459965  
      16A1    23.403736    17A1    34.440172     8B2    39.147618  
       8B1    39.147618    18A1    39.842295  

    Final Occupation by Irrep:
             A1    A2    B1    B2 
    DOCC [     5,    0,    1,    1 ]

  @RHF Final Energy:  -112.75004331360661

   => Energetics <=

    Nuclear Repulsion Energy =             22.5181791774468181
    One-Electron Energy =                -198.1775054190080141
    Two-Electron Energy =                  62.9092829279545782
    Total Energy =                       -112.7500433136066107

Computation Completed


Properties will be evaluated at   0.000000,   0.000000,   0.000000 [a0]

Properties computed using the SCF density matrix

  Nuclear Dipole Moment: [e a0]
     X:     0.0000      Y:     0.0000      Z:     0.0023

  Electronic Dipole Moment: [e a0]
     X:     0.0000      Y:     0.0000      Z:    -0.0935

  Dipole Moment: [e a0]
     X:     0.0000      Y:     0.0000      Z:    -0.0912     Total:     0.0912

  Dipole Moment: [D]
     X:     0.0000      Y:     0.0000      Z:    -0.2318     Total:     0.2318


*** tstop() called on CHE-FEVANGE-01I (2) at Sun Jan 19 18:06:56 2020
Module time:
	user time   =       0.58 seconds =       0.01 minutes
	system time =       0.03 seconds =       0.00 minutes
	total time  =          1 seconds =       0.02 minutes
Total time:
	user time   =       0.58 seconds =       0.01 minutes
	system time =       0.03 seconds =       0.00 minutes
	total time  =          1 seconds =       0.02 minutes
 MINTS: Wrapper to libmints.
   by Justin Turney

   Calculation information:
      Number of threads:                 1
      Number of atoms:                   2
      Number of AO shells:              16
      Number of SO shells:              16
      Number of primitives:             48
      Number of atomic orbitals:        38
      Number of basis functions:        36

      Number of irreps:                  4
      Integral cutoff                 1.00e-12
      Number of functions per irrep: [  18    2    8    8 ]

 OEINTS: Overlap, kinetic, potential, dipole, and quadrupole integrals
         stored in file 35.

      Computing two-electron integrals...done
      Computed 50826 non-zero two-electron integrals.
        Stored in file 33.


         ---------------------------------------------------------
                Multi-Configurational Self-Consistent Field
                            (a 'D E T C I' module)

                 Daniel G. A. Smith, C. David Sherrill, and
                              Matt L. Leininger
         ---------------------------------------------------------


   ==> Parameters <==

    EX LEVEL       =       10      H0 BLOCKSIZE  =     1000
    VAL EX LEVEL   =        0      H0 GUESS SIZE =     1000
    H0COUPLINGSIZE =        0      H0 COUPLING   =       NO
    MAXITER        =       12      NUM PRINT     =       20
    NUM ROOTS      =        1      ICORE         =        1
    PRINT LVL      =        1      FCI           =      YES
    R CONV         = 1.00e-07      MIXED         =      YES
    E CONV         = 1.00e-10      MIXED4        =      YES
    R4S            =       NO      REPL OTF      =       NO
    DIAG METHOD    =      SEM      FOLLOW ROOT   =        0
    PRECONDITIONER = DAVIDSON      UPDATE        = DAVIDSON
    S              =   0.0000      Ms0           =      YES
    GUESS VECTOR   =  H0BLOCK      OPENTYPE      =     NONE
    COLLAPSE SIZE  =        1      HD AVG        = EVANGELISTI
    MAX NUM VECS   =       13      REF SYM       =     AUTO
    IOPEN        =       NO

    EX ALLOW       =  1  1  1  1  1  1  1  1  1  1 
    STATE AVERAGE  =  0(1.00) 

   ==> CI Orbital and Space information <==

   ------------------------------------------------------
               Space    Total    A1    A2    B1    B2
   ------------------------------------------------------
                 Nso       36    18     2     8     8
                 Nmo       36    18     2     8     8
               Ndocc        7     5     0     1     1
               Nsocc        0     0     0     0     0
   ------------------------------------------------------
                        MCSCF Spaces
   ------------------------------------------------------
         Frozen DOCC        0     0     0     0     0
     Restricted DOCC        2     2     0     0     0
              Active        8     4     0     2     2
     Restricted UOCC       26    12     2     6     6
         Frozen UOCC        0     0     0     0     0
   ------------------------------------------------------

   ==> Setting up CI strings <==

    There are 56 alpha and 56 beta strings
    The CI space requires 792 (7.92E+02) determinants and 4 blocks

   ==> Setting up MCSCF integrals <==

  ==> DiskJK: Disk-Based J/K Matrices <==

    J tasked:                  Yes
    K tasked:                  Yes
    wK tasked:                  No
    Memory [MiB]:              400
    Schwarz Cutoff:          1E-12


   ==> Starting MCSCF iterations <==

        Iter         Total Energy       Delta E   Orb RMS    CI RMS  NCI NORB
   @MCSCF  1:   -112.806427006797   -5.6384e-02  1.50e-02  2.12e-12    1    1  Initial CI
      Warning! Maxstep = 0.62, scaling to 0.50
   @MCSCF  2:   -112.856353093230   -4.9926e-02  1.17e-02  1.32e-05    9    1  TS
   @MCSCF  3:   -112.874656254975   -1.8303e-02  5.85e-03  6.29e-06    9    1  TS
   @MCSCF  4:   -112.879498640964   -4.8424e-03  3.13e-03  2.81e-06    9    1  TS
   @MCSCF  5:   -112.880865657046   -1.3670e-03  1.75e-03  1.48e-06    9    1  TS
   @MCSCF  6:   -112.881274400998   -4.0874e-04  1.01e-03  7.06e-07    9    1  TS
   @MCSCF  7:   -112.881403829885   -1.2943e-04  5.84e-04  3.48e-07    9    1  TS, DIIS
   @MCSCF  8:   -112.881448168358   -4.4338e-05  3.53e-04  1.82e-07    9    1  TS, DIIS
   @MCSCF  9:   -112.881476206633   -2.8038e-05  9.94e-05  2.29e-07    9    1  TS, DIIS
   @MCSCF 10:   -112.881478588767   -2.3821e-06  9.95e-05  3.11e-08    9    1  TS, DIIS
   @MCSCF 11:   -112.881477153498    1.4353e-06  1.28e-04  3.03e-08   10    1  TS, DIIS
   @MCSCF 12:   -112.881479418077   -2.2646e-06  7.36e-05  3.75e-08    9    1  TS, DIIS
   @MCSCF 13:   -112.881480999036   -1.5810e-06  6.20e-05  2.24e-08   10    1  TS, DIIS
   @MCSCF 14:   -112.881481268640   -2.6960e-07  3.93e-05  4.28e-08    8    1  TS, DIIS
   @MCSCF 15:   -112.881481488283   -2.1964e-07  2.66e-06  2.21e-08    9    1  TS, DIIS
   @MCSCF 16:   -112.881481489066   -7.8236e-10  6.20e-07  1.43e-09    8    1  TS, DIIS
   @MCSCF 17:   -112.881481489241   -1.7545e-10  2.58e-07  4.17e-10    9    1  TS, DIIS
   @MCSCF 18:   -112.881481489267   -2.6233e-11  1.67e-07  1.08e-10    9    1  TS, DIIS
   @MCSCF 19:   -112.881481489281   -1.3557e-11  1.09e-07  6.66e-11    9    1  TS, DIIS
   @MCSCF 20:   -112.881481489286   -5.1159e-12  5.98e-08  7.66e-11    8    1  TS, DIIS
   @MCSCF 21:   -112.881481489288   -2.1316e-12  3.80e-08  4.06e-11    8    1  TS, DIIS
   @MCSCF 22:   -112.881481489289   -8.2423e-13  2.19e-08  2.44e-11    8    1  TS, DIIS
   @MCSCF 23:   -112.881481489289   -3.1264e-13  8.13e-09  6.84e-12    9    1  TS, DIIS

          @MCSCF has converged!

   @MCSCF Final Energy: -112.881481489289143

   Computing CI Semicanonical Orbitals

   ==> Energetics <==

    SCF energy =         -112.750043313606611
    Total MCSCF energy = -112.881481489289143

   ==> MCSCF root 0 information <==

    MCSCF Root 0 energy =  -112.881481489289115

   Active Space Natural occupation numbers:

        A1   1.997845        A1   1.990842        A1   1.981727
        B2   1.955182        B1   1.955182        B1   0.049771
        B2   0.049771        A1   0.019681

   The 20 most important determinants:

    *   1    0.969892  (   12,   12)  3A1X 4A1X 5A1X 1B1X 1B2X 
    *   2   -0.099841  (   16,   16)  3A1X 4A1X 5A1X 2B1X 1B2X 
    *   3   -0.099841  (   20,   20)  3A1X 4A1X 5A1X 1B1X 2B2X 
    *   4   -0.068896  (   16,   20)  3A1X 4A1X 5A1X 1B1B 2B1A 1B2A 2B2B 
    *   5   -0.068896  (   20,   16)  3A1X 4A1X 5A1X 1B1A 2B1B 1B2B 2B2A 
    *   6   -0.047848  (   12,   24)  3A1X 4A1X 5A1X 1B1A 2B1B 1B2A 2B2B 
    *   7   -0.047848  (   24,   12)  3A1X 4A1X 5A1X 1B1B 2B1A 1B2B 2B2A 
    *   8   -0.032264  (   30,   30)  3A1X 4A1X 1B1X 1B2X 2B2X 
    *   9   -0.032264  (   43,   43)  3A1X 4A1X 1B1X 2B1X 1B2X 
    *  10   -0.027682  (   14,   16)  3A1X 4A1B 5A1X 6A1A 1B1A 2B1B 1B2X 
    *  11   -0.027682  (   16,   14)  3A1X 4A1A 5A1X 6A1B 1B1B 2B1A 1B2X 
    *  12   -0.027682  (   14,   20)  3A1X 4A1B 5A1X 6A1A 1B1X 1B2A 2B2B 
    *  13   -0.027682  (   20,   14)  3A1X 4A1A 5A1X 6A1B 1B1X 1B2B 2B2A 
    *  14   -0.026396  (   15,   20)  3A1B 4A1X 5A1X 6A1A 1B1X 1B2A 2B2B 
    *  15   -0.026396  (   20,   15)  3A1A 4A1X 5A1X 6A1B 1B1X 1B2B 2B2A 
    *  16   -0.026396  (   15,   16)  3A1B 4A1X 5A1X 6A1A 1B1A 2B1B 1B2X 
    *  17   -0.026396  (   16,   15)  3A1A 4A1X 5A1X 6A1B 1B1B 2B1A 1B2X 
    *  18   -0.025230  (   31,   31)  3A1X 5A1X 1B1X 1B2X 2B2X 
    *  19   -0.025230  (   44,   44)  3A1X 5A1X 1B1X 2B1X 1B2X 
    *  20   -0.023787  (   14,   14)  3A1X 5A1X 6A1X 1B1X 1B2X 



Properties will be evaluated at   0.000000,   0.000000,   0.000000 [a0]

Properties computed using the CASSCF density matrix

  Nuclear Dipole Moment: [e a0]
     X:     0.0000      Y:     0.0000      Z:     0.0023

  Electronic Dipole Moment: [e a0]
     X:     0.0000      Y:     0.0000      Z:     0.1453

  Dipole Moment: [e a0]
     X:     0.0000      Y:     0.0000      Z:     0.1476     Total:     0.1476

  Dipole Moment: [D]
     X:     0.0000      Y:     0.0000      Z:     0.3752     Total:     0.3752

    CASSCF energy.....................................................PASSED

Scratch directory: /tmp/
   => Loading Basis Set <=

    Name: STO-3G
    Role: ORBITAL
    Keyword: MINAO_BASIS
    atoms 1 entry C          line    61 file /Users/fevange/Source/psi4/objdir-Debug/stage/share/psi4/basis/sto-3g.gbs 
    atoms 2 entry O          line    81 file /Users/fevange/Source/psi4/objdir-Debug/stage/share/psi4/basis/sto-3g.gbs 


  Forte
  ----------------------------------------------------------------------------
  A suite of quantum chemistry methods for strongly correlated electrons

    git branch: onedet - git commit: f245d93e

  Developed by:
    Francesco A. Evangelista, Chenyang Li, Kevin P. Hannon,
    Jeffrey B. Schriber, Tianyuan Zhang, Chenxi Cai,
    Nan He, Nicholas Stair, Shuhe Wang, Renke Huang
  ----------------------------------------------------------------------------

  Size of Determinant class: 256 bits
  Read options for space FROZEN_DOCC
  Read options for space RESTRICTED_DOCC
  Read options for space ACTIVE
  Read options for space FROZEN_UOCC

  ==> MO Space Information <==

  -------------------------------------------------
                       A1    A2    B1    B2   Sum
  -------------------------------------------------
    FROZEN_DOCC         0     0     0     0     0
    RESTRICTED_DOCC     2     0     0     0     2
    ACTIVE              4     0     2     2     8
    RESTRICTED_UOCC    12     2     6     6    26
    FROZEN_UOCC         0     0     0     0     0
    Total              18     2     8     8    36
  -------------------------------------------------

  ==> Integral Transformation <==

  Number of molecular orbitals:                    36
  Number of correlated molecular orbitals:         36
  Number of frozen occupied orbitals:               0
  Number of frozen unoccupied orbitals:             0
  Two-electron integral type:              Conventional


  Overall Conventional Integrals timings

	Presorting SO-basis two-electron integrals.
	Sorting File: SO Ints (nn|nn) nbuckets = 1
	Transforming the one-electron integrals and constructing Fock matrices
	Starting first half-transformation.
	Sorting half-transformed integrals.
	First half integral transformation complete.
	Starting second half-transformation.
	Two-electron integral transformation complete.

  Integral transformation done. 0.07906329 s
  Reading the two-electron integrals from disk
  Size of two-electron integrals:   0.037542 GB
  Timing for freezing core and virtual orbitals:              0.000 s.
  Conventional integrals take 0.50995802 s

  ==> Summary of Active Space Solver Input <==

    Irrep.  Multi.  Nstates
    -------------------------
      A1       1        1
    -------------------------
    Total number of states: 1
    -------------------------


              ---------------------------------------------------
                Complete Active Space Configuration Interaction
                                  Chenyang Li
              ---------------------------------------------------


  ==> Input Summary <==

    No. a electrons in active      =     5
    No. b electrons in active      =     5
    multiplicity                   =     1
    spin ms (2 * Sz)               =     0

  ==> Orbital Spaces <==

    TOTAL MO                      [   18     2     8     8 ]
    FROZEN CORE                   [    0     0     0     0 ]
    FROZEN VIRTUAL                [    0     0     0     0 ]
    CORRELATED MO                 [   18     2     8     8 ]
    CORE                          [    2     0     0     0 ]
    ACTIVE                        [    4     0     2     2 ]
    VIRTUAL                       [   12     2     6     6 ]
  Forming alpha and beta strings      ...  Done. Timing        0.000112 s
  Forming determinants                ...  Done. Timing        0.000354 s

  ==> Determinants Summary <==

    number of alpha active electrons         =     5
    number of beta active electrons          =     5
    root symmetry (zero based)               =     0
    number of determinants                   =   792

  Diagonalizing Hamiltonian           ...

  ==> Computing Coupling Lists <==
  --------------------------------
        α          0.004032 s
        β          0.004138 s
        αα         0.006303 s
        ββ         0.006480 s
        αβ         0.015970 s
  --------------------------------

  Davidson-Liu solver algorithm
  Using SPARSE sigma builder
  Initial guess space is incomplete!
  Trying to add 13 determinant(s).  13 determinant(s) added.
  Initial guess found 49 solutions with 2S+1 = 1 *
  Initial guess found 50 solutions with 2S+1 = 3  
  Initial guess found 13 solutions with 2S+1 = 5  
  Initial guess found 1 solutions with 2S+1 = 7  
  Adding guess 0 (multiplicity = 1.000000)
  Adding guess 1 (multiplicity = 1.000000)

  ==> Diagonalizing Hamiltonian <==

  -----------------------------------------------------
    Iter.      Avg. Energy       Delta_E     Res. Norm
  -----------------------------------------------------
      1      -32.767684998847  -3.277e+01  +3.195e-01
      2      -32.796079891829  -2.839e-02  +7.691e-02
      3      -32.797301613941  -1.222e-03  +2.213e-02
      4      -32.797417054242  -1.154e-04  +8.040e-03
      5      -32.797432801377  -1.575e-05  +3.407e-03
      6      -32.797436526135  -3.725e-06  +1.426e-03
      7      -32.797436994893  -4.688e-07  +3.544e-04
      8      -32.797437028972  -3.408e-08  +1.100e-04
      9      -32.797437032170  -3.198e-09  +3.596e-05
     10      -32.797437032561  -3.906e-10  +1.744e-05
     11      -32.797437032635  -7.388e-11  +6.994e-06
     12      -32.797437032651  -1.605e-11  +2.963e-06
     13      -32.797437032653  -2.274e-12  +8.796e-07
     14      -32.797437032653  -2.061e-13  +2.740e-07
     15      -32.797437032653  -2.132e-14  +8.949e-08
     16      -32.797437032653  -3.553e-14  +4.394e-08
     17      -32.797437032653  -7.105e-15  +1.775e-08
     18      -32.797437032653  +0.000e+00  +7.447e-09
     19      -32.797437032653  +1.421e-14  +2.253e-09
     20      -32.797437032653  -7.105e-15  +7.020e-10
  -----------------------------------------------------
  The Davidson-Liu algorithm converged in 21 iterations.
  Davidson-Liu procedure took  0.103044 s  Done. Timing        0.144235 s

  * * * * * * * * * * * * * * * * *
  *  CI Vectors & Configurations  *
  * * * * * * * * * * * * * * * * *

  ==> Root No. 0 <==

    2220 20 20         -0.9698919867
    2220 02 20          0.0998410361
    2220 20 02          0.0998410361
    2220 ab ba          0.0688955630
    2220 ba ab          0.0688955630

    Total Energy:   -112.881481489289456



  ==> Permanent Dipole Moments (A1) <==

  Only print nonzero (> 1.0e-5) elements.
  Permanent dipole moments (a.u.) 0 -> 0:  X:  0.0000  Y:  0.0000  Z:  0.1476  Total:  0.1476


  ==> Energy Summary <==

    Multi.  Irrep.  No.               Energy
    -----------------------------------------
       1      A1     0      -112.881481489289
    -----------------------------------------
 Computing  1RDMs (0 Singlet A1 - 0 Singlet A1) ... Done. Timing        0.008029 s
 Computing  2RDMs (0 Singlet A1 - 0 Singlet A1) ... Done. Timing        0.029638 s
 Computing  3RDMs (0 Singlet A1 - 0 Singlet A1) ... Done. Timing        0.145115 s

       -----------------------------------------------------------------
                            Semi-Canonical Orbitals
         Chenyang Li, Jeffrey B. Schriber and Francesco A. Evangelista
       -----------------------------------------------------------------

  Took 0.003109 s to build Fock matrix

  ==> Checking Fock Matrix Diagonal Blocks <==

    Off-Diag. Elements       Max           2-Norm
    ------------------------------------------------
    Fa actv              0.0000000001   0.0000000001
    Fb actv              0.0000000001   0.0000000001
    ------------------------------------------------
    Fa core              0.0000000000   0.0000000000
    Fb core              0.0000000000   0.0000000000
    ------------------------------------------------
    Fa virt              0.0000000000   0.0000000001
    Fb virt              0.0000000000   0.0000000001
    ------------------------------------------------
  Orbitals are already semicanonicalized.

  ==> Multireference Driven Similarity Renormalization Group <==

    Reading DSRG options ............................ Done
    Setting ambit MO space .......................... Done
    Preparing tensors for density cumulants ......... Done
    Building Fock matrix ............................ Done
    Preparing ambit tensors for dipole moments ...... Done

                  -------------------------------------------
                    MR-DSRG Third-Order Perturbation Theory
                                  Chenyang Li
                  -------------------------------------------

    Reference:
      J. Chem. Phys. 2017, 146, 124132.

  ==> Calculation Information <==

    ntamp                                                 15
    flow parameter                                 5.000e-01
    taylor expansion threshold                     1.000e-03
    intruder_tamp                                  1.000e-01
    int_type                                    CONVENTIONAL
    source operator                                 STANDARD
    reference relaxation                                ONCE
    state_type                                STATE-SPECIFIC

  ==> Memory Infomation <==

    Memory asigned                                 513.80 MB
    Memory used before DSRG                         49.38 MB
    Density Cumulants (1, 2)                       100.35 KB
    Asym MO tei (hhpp)                               2.77 MB
    Fock matrix                                     42.05 KB
    Hbar active (aa, aaaa)                          99.33 KB
    Amplitudes (hp, hhpp)                            2.68 MB
    O intermediates (hp, hhpp)                       2.68 MB
    Memory remaining                               456.05 MB
    Energy part 1 min                                2.69 MB
    Energy part 2 min                               16.12 MB

  ==> Checking Semicanonical Orbitals <==

    Abs. max of Fock core, active, virtual blocks (Fij, i != j)
                  core          active         virtual
    --------------------------------------------------
    Fα    0.0000000000    0.0000000001    0.0000000000
    Fβ    0.0000000000    0.0000000001    0.0000000000
    --------------------------------------------------

    1-Norm of Fock core, active, virtual blocks (Fij, i != j)
                  core          active         virtual
    --------------------------------------------------
    Fα    0.0000000000    0.0000000003    0.0000000006
    Fβ    0.0000000000    0.0000000003    0.0000000006
    --------------------------------------------------

    Orbitals are semi-canonicalized.

  ==> First-Order Amplitudes <==

    Computing T2 amplitudes                  ...  Done. Timing      0.056 s
    Computing T1 amplitudes                  ...  Done. Timing      0.005 s
    Active Indices:    2    3    4    5   20   21   28   29 
    Largest T1 amplitudes for spin case A:
       i       a                  i       a                  i       a               
    --------------------------------------------------------------------------------
    [  5      11    ] 0.177767 [ 29      31    ]-0.108810 [ 21      23    ]-0.108810 
    [  5       6    ]-0.069588 [ 29      32    ]-0.063235 [ 21      24    ]-0.063235 
    [  5      13    ] 0.052227 [  0       2    ]-0.041343 [  1       4    ]-0.035684 
    [  0       3    ]-0.033338 [ 29      30    ] 0.023244 [ 21      22    ] 0.023244 
    [  1       2    ]-0.021321 [  0       4    ]-0.013669 [ 28      31    ] 0.013608 
    --------------------------------------------------------------------------------
    Norm of T1A vector: (nonzero elements: 94)                    0.278048334735196.
    --------------------------------------------------------------------------------
    Largest T1 amplitudes for spin case B:
       _       _                  _       _                  _       _               
       i       a                  i       a                  i       a               
    --------------------------------------------------------------------------------
    [  5      11    ] 0.177767 [ 21      23    ]-0.108810 [ 29      31    ]-0.108810 
    [  5       6    ]-0.069588 [ 29      32    ]-0.063235 [ 21      24    ]-0.063235 
    [  5      13    ] 0.052227 [  0       2    ]-0.041343 [  1       4    ]-0.035684 
    [  0       3    ]-0.033338 [ 29      30    ] 0.023244 [ 21      22    ] 0.023244 
    [  1       2    ]-0.021321 [  0       4    ]-0.013669 [ 28      31    ] 0.013608 
    --------------------------------------------------------------------------------
    Norm of T1B vector: (nonzero elements: 94)                    0.278048334735195.
    --------------------------------------------------------------------------------
    Largest T2 amplitudes for spin case AA:
       i   j   a   b              i   j   a   b              i   j   a   b           
    --------------------------------------------------------------------------------
    [  5  28   5  31] 0.049982 [  5  20   5  23] 0.049982 [  3   5   5   8] 0.044883 
    [  4   5   5   7] 0.043577 [  2   3   2   8]-0.040177 [  3  21   8  21]-0.039718 
    [  3  29   8  29]-0.039718 [  2  28   2  31] 0.039240 [  2  20   2  23] 0.039240 
    [  3  28   8  28]-0.039069 [  3  20   8  20]-0.039069 [  4  21   7  21]-0.038960 
    [  4  29   7  29]-0.038960 [  2   5   2  11] 0.038312 [ 21  28  21  31] 0.037653 
    --------------------------------------------------------------------------------
    Norm of T2AA vector: (nonzero elements: 24660)                0.697142717669067.
    --------------------------------------------------------------------------------
    Largest T2 amplitudes for spin case AB:
           _       _                  _       _                  _       _           
       i   j   a   b              i   j   a   b              i   j   a   b           
    --------------------------------------------------------------------------------
    [  4   4   4   7]-0.062559 [  5  28   5  31] 0.058496 [  5  20   5  23] 0.058496 
    [  2   3   2   8]-0.057770 [  2   5   2  11] 0.050369 [  2  28   2  31] 0.049656 
    [  2  20   2  23] 0.049656 [  3  21   8  21]-0.046065 [  3  29   8  29]-0.046065 
    [  4  21   7  21]-0.045625 [  4  29   7  29]-0.045625 [  5   5   5  11] 0.045559 
    [ 20  21  21  23] 0.045387 [ 28  29  29  31] 0.045387 [  3  28   8  28]-0.044032 
    --------------------------------------------------------------------------------
    Norm of T2AB vector: (nonzero elements: 29264)                0.733526218798675.
    --------------------------------------------------------------------------------
    Largest T2 amplitudes for spin case BB:
       _   _   _   _              _   _   _   _              _   _   _   _           
       i   j   a   b              i   j   a   b              i   j   a   b           
    --------------------------------------------------------------------------------
    [  5  28   5  31] 0.049982 [  5  20   5  23] 0.049982 [  3   5   5   8] 0.044883 
    [  4   5   5   7] 0.043577 [  2   3   2   8]-0.040177 [  3  21   8  21]-0.039718 
    [  3  29   8  29]-0.039718 [  2  28   2  31] 0.039240 [  2  20   2  23] 0.039240 
    [  3  28   8  28]-0.039069 [  3  20   8  20]-0.039069 [  4  21   7  21]-0.038960 
    [  4  29   7  29]-0.038960 [  2   5   2  11] 0.038312 [ 21  28  21  31] 0.037653 
    --------------------------------------------------------------------------------
    Norm of T2BB vector: (nonzero elements: 24660)                0.697142717669067.
    --------------------------------------------------------------------------------

  ==> Possible Intruders <==

    T1 amplitudes larger than 0.1000 for spin case A:
        Amplitude         Value                  Denominator              
    ----------------------------------------------------------------------
    [  5      11    ]    0.17776687 (  1.183942 -   2.104593 =  -0.920651)
    [ 29      31    ]   -0.10881002 (  0.358698 -   1.071699 =  -0.713001)
    [ 21      23    ]   -0.10881002 (  0.358698 -   1.071699 =  -0.713001)
    ----------------------------------------------------------------------
    T1 amplitudes larger than 0.1000 for spin case B:
        Amplitude         Value                  Denominator              
    ----------------------------------------------------------------------
    [  5      11    ]    0.17776687 (  1.183942 -   2.104593 =  -0.920651)
    [ 21      23    ]   -0.10881002 (  0.358698 -   1.071699 =  -0.713001)
    [ 29      31    ]   -0.10881002 (  0.358698 -   1.071699 =  -0.713001)
    ----------------------------------------------------------------------
    T2 amplitudes larger than 0.1000 for spin case AA: NULL
    T2 amplitudes larger than 0.1000 for spin case AB: NULL
    T2 amplitudes larger than 0.1000 for spin case BB: NULL

  ==> Computing 3rd-Order Dipole Moment Contribution (1/2) <==

    Computing direction X                    ...  Done. Timing      0.000 s
    Computing direction Y                    ...  Done. Timing      0.000 s
    Computing direction Z                    ...  Done. Timing      4.984 s

  ==> Computing 3rd-Order Energy Contribution (1/3) <==

    Computing 3rd-order energy (1/3)         ...  Done. Timing      2.024 s
    Computing integrals for ref. relaxation  ...  Done. Timing      0.386 s

  ==> Computing 2nd-Order Correlation Energy <==

    Renormalizing two-electron integrals     ...  Done. Timing      0.051 s
    Renormalizing Fock matrix elements       ...  Done. Timing      0.004 s
    Computing 2nd-order energy               ...  Done. Timing      0.345 s
    Computing integrals for ref. relaxation  ...  Done. Timing      0.405 s

  ==> Computing 3rd-Order Energy Contribution (2/3) <==

    Preparing 2nd-order amplitudes           ...  Done. Timing      5.342 s
    Computing T2 amplitudes                  ...  Done. Timing      0.055 s
    Computing T1 amplitudes                  ...  Done. Timing      0.004 s
    Computing 3rd-order energy (2/3)         ...  Done. Timing      0.344 s
    Computing integrals for ref. relaxation  ...  Done. Timing      0.382 s

  ==> Second-Order Amplitudes Summary <==

    Active Indices:    2    3    4    5   20   21   28   29 
    Largest T1 amplitudes for spin case A:
       i       a                  i       a                  i       a               
    --------------------------------------------------------------------------------
    [  5      11    ]-0.010256 [  5      13    ]-0.008019 [ 29      31    ] 0.007026 
    [ 21      23    ] 0.007026 [ 28      31    ]-0.006000 [ 20      23    ]-0.006000 
    [ 20      22    ]-0.004211 [ 28      30    ]-0.004211 [  2       6    ] 0.002858 
    [  5       6    ] 0.002671 [ 21      22    ]-0.002664 [ 29      30    ]-0.002664 
    [  2       8    ]-0.002656 [  5      10    ]-0.002451 [ 29      33    ] 0.002447 
    --------------------------------------------------------------------------------
    Norm of T1A vector: (nonzero elements: 97)                    0.021483746382302.
    --------------------------------------------------------------------------------
    Largest T1 amplitudes for spin case B:
       _       _                  _       _                  _       _               
       i       a                  i       a                  i       a               
    --------------------------------------------------------------------------------
    [  5      11    ]-0.010256 [  5      13    ]-0.008019 [ 29      31    ] 0.007026 
    [ 21      23    ] 0.007026 [ 28      31    ]-0.006000 [ 20      23    ]-0.006000 
    [ 20      22    ]-0.004211 [ 28      30    ]-0.004211 [  2       6    ] 0.002858 
    [  5       6    ] 0.002671 [ 21      22    ]-0.002664 [ 29      30    ]-0.002664 
    [  2       8    ]-0.002656 [  5      10    ]-0.002451 [ 29      33    ] 0.002447 
    --------------------------------------------------------------------------------
    Norm of T1B vector: (nonzero elements: 97)                    0.021483746382302.
    --------------------------------------------------------------------------------
    Largest T2 amplitudes for spin case AA:
       i   j   a   b              i   j   a   b              i   j   a   b           
    --------------------------------------------------------------------------------
    [  3  29   3  31] 0.016126 [  3  21   3  23] 0.016126 [ 20  29  21  31]-0.015958 
    [ 21  28  23  29]-0.015958 [ 21  29  23  31] 0.015456 [  5  29   6  29] 0.014548 
    [  5  21   6  21] 0.014548 [  2  29   2  31] 0.012364 [  2  21   2  23] 0.012364 
    [  5  21  11  23]-0.011352 [  5  29  11  31]-0.011352 [ 20  29  20  31] 0.011229 
    [ 21  28  23  28] 0.011229 [  5  28  11  31] 0.011131 [  5  20  11  23] 0.011131 
    --------------------------------------------------------------------------------
    Norm of T2AA vector: (nonzero elements: 24660)                0.203752320538242.
    --------------------------------------------------------------------------------
    Largest T2 amplitudes for spin case AB:
           _       _                  _       _                  _       _           
       i   j   a   b              i   j   a   b              i   j   a   b           
    --------------------------------------------------------------------------------
    [  5   5   5   6] 0.022752 [ 20  29  21  31]-0.014673 [ 21  28  23  29]-0.014673 
    [  5  29   6  29] 0.014399 [  5  21   6  21] 0.014399 [  3  29   3  31] 0.014346 
    [  3  21   3  23] 0.014346 [ 21  29  23  31] 0.013900 [  2   5   2   6] 0.012475 
    [ 20  21  21  23]-0.012352 [ 28  29  29  31]-0.012352 [ 21  21  23  23] 0.012090 
    [ 29  29  31  31] 0.012090 [  2  29   2  31] 0.011153 [  2  21   2  23] 0.011153 
    --------------------------------------------------------------------------------
    Norm of T2AB vector: (nonzero elements: 29264)                0.168244803725843.
    --------------------------------------------------------------------------------
    Largest T2 amplitudes for spin case BB:
       _   _   _   _              _   _   _   _              _   _   _   _           
       i   j   a   b              i   j   a   b              i   j   a   b           
    --------------------------------------------------------------------------------
    [  3  29   3  31] 0.016126 [  3  21   3  23] 0.016126 [ 20  29  21  31]-0.015958 
    [ 21  28  23  29]-0.015958 [ 21  29  23  31] 0.015456 [  5  29   6  29] 0.014548 
    [  5  21   6  21] 0.014548 [  2  29   2  31] 0.012364 [  2  21   2  23] 0.012364 
    [  5  21  11  23]-0.011352 [  5  29  11  31]-0.011352 [ 20  29  20  31] 0.011229 
    [ 21  28  23  28] 0.011229 [  5  28  11  31] 0.011131 [  5  20  11  23] 0.011131 
    --------------------------------------------------------------------------------
    Norm of T2BB vector: (nonzero elements: 24660)                0.203752320538242.
    --------------------------------------------------------------------------------

  ==> Computing 3rd-Order Energy Contribution (3/3) <==

    Renormalizing Fock matrix elements       ...  Done. Timing      0.004 s
    Renormalizing two-electron integrals     ...  Done. Timing      0.051 s
    Computing 3rd-order energy (3/3)         ...  Done. Timing      0.351 s
    Computing integrals for ref. relaxation  ...  Done. Timing      0.404 s

  ==> DSRG-MRPT3 Energy Summary <==

    E0 (reference)                      =   -112.881481489289442
    2nd-order corr. energy              =     -0.224167881114513
    3rd-order corr. energy part 1       =     -0.000452296133339
    3rd-order corr. energy part 2       =     -0.016328981858658
    3rd-order corr. energy part 3       =     -0.001186088996661
    3rd-order corr. energy              =     -0.017967366988657
    DSRG-MRPT3 corr. energy             =     -0.242135248103171
    DSRG-MRPT3 total energy             =   -113.123616737392609

    Notes:
      3rd-order energy part 1: -1.0 / 12.0 * [[[H0th, A1st], A1st], A1st]
      3rd-order energy part 2: 0.5 * [H1st + Hbar1st, A2nd]
      3rd-order energy part 3: 0.5 * [Hbar2nd, A1st]
      Hbar1st = H1st + [H0th, A1st]
      Hbar2nd = 0.5 * [H1st + Hbar1st, A1st] + [H0th, A2nd]

  ==> Computing 3rd-Order Dipole Moment Contribution (2/2) <==

    Computing direction X                    ...  Done. Timing      0.000 s
    Computing direction Y                    ...  Done. Timing      0.000 s
    Computing direction Z                    ...  Done. Timing      3.475 s

  ==> DSRG-MRPT3 (unrelaxed) Dipole Moments (a.u.) <==

    Nuclear dipole moment:
      X:   0.000000  Y:   0.000000  Z:   0.002323

    Reference electronic dipole moment:
      X:   0.000000  Y:   0.000000  Z:   0.145293

    DSRG-MRPT2 electronic dipole moment:
      X:   0.000000  Y:   0.000000  Z:   0.075839

    DSRG-MRPT2 (2nd-order complete) electronic dipole moment:
      X:   0.000000  Y:   0.000000  Z:   0.110361

    DSRG-MRPT3 electronic dipole moment:
      X:   0.000000  Y:   0.000000  Z:   0.108063

    Reference dipole moment:
      X:   0.000000  Y:   0.000000  Z:   0.147616  Total:   0.147616

    DSRG-MRPT2 dipole moment:
      X:   0.000000  Y:   0.000000  Z:   0.078162  Total:   0.078162

    DSRG-MRPT2 (2nd-order complete) dipole moment:
      X:   0.000000  Y:   0.000000  Z:   0.112684  Total:   0.112684

    DSRG-MRPT3 dipole moment:
      X:   0.000000  Y:   0.000000  Z:   0.110386  Total:   0.110386


  ==> De-Normal-Order DSRG Transformed Hamiltonian <==

    Computing the scalar term                ... Done. Timing    0.002 s
    Computing the 1-body term                ... Done. Timing    0.001 s

  ==> Rotate DSRG Transformed Hamiltonian back to Original Basis <==

    Rotating 1-body term to original basis   ... Done. Timing    0.000 s
    Rotating 2-body term to original basis   ... Done. Timing    0.016 s

  ==> Summary of Active Space Solver Input <==

    Irrep.  Multi.  Nstates
    -------------------------
      A1       1        1
    -------------------------
    Total number of states: 1
    -------------------------


              ---------------------------------------------------
                Complete Active Space Configuration Interaction
                                  Chenyang Li
              ---------------------------------------------------


  ==> Input Summary <==

    No. a electrons in active      =     5
    No. b electrons in active      =     5
    multiplicity                   =     1
    spin ms (2 * Sz)               =     0

  ==> Orbital Spaces <==

    TOTAL MO                      [   18     2     8     8 ]
    FROZEN CORE                   [    0     0     0     0 ]
    FROZEN VIRTUAL                [    0     0     0     0 ]
    CORRELATED MO                 [   18     2     8     8 ]
    CORE                          [    2     0     0     0 ]
    ACTIVE                        [    4     0     2     2 ]
    VIRTUAL                       [   12     2     6     6 ]
  Forming alpha and beta strings      ...  Done. Timing        0.000196 s
  Forming determinants                ...  Done. Timing        0.000364 s

  ==> Determinants Summary <==

    number of alpha active electrons         =     5
    number of beta active electrons          =     5
    root symmetry (zero based)               =     0
    number of determinants                   =   792

  Diagonalizing Hamiltonian           ...

  ==> Computing Coupling Lists <==
  --------------------------------
        α          0.004028 s
        β          0.004100 s
        αα         0.006417 s
        ββ         0.006415 s
        αβ         0.016259 s
  --------------------------------

  Davidson-Liu solver algorithm
  Using SPARSE sigma builder
  Initial guess space is incomplete!
  Trying to add 16 determinant(s).  16 determinant(s) added.
  Initial guess found 50 solutions with 2S+1 = 1 *
  Initial guess found 51 solutions with 2S+1 = 3  
  Initial guess found 14 solutions with 2S+1 = 5  
  Initial guess found 1 solutions with 2S+1 = 7  
  Adding guess 0 (multiplicity = 1.000000)
  Adding guess 1 (multiplicity = 1.000000)

  ==> Diagonalizing Hamiltonian <==

  -----------------------------------------------------
    Iter.      Avg. Energy       Delta_E     Res. Norm
  -----------------------------------------------------
      1      -30.091102546689  -3.009e+01  +2.700e-01
      2      -30.113405134629  -2.230e-02  +6.383e-02
      3      -30.114338914443  -9.338e-04  +1.628e-02
      4      -30.114403577991  -6.466e-05  +6.060e-03
      5      -30.114413859699  -1.028e-05  +2.813e-03
      6      -30.114416928099  -3.068e-06  +1.080e-03
      7      -30.114417205290  -2.772e-07  +3.056e-04
      8      -30.114417230244  -2.495e-08  +1.015e-04
      9      -30.114417233237  -2.993e-09  +2.808e-05
     10      -30.114417233493  -2.562e-10  +1.425e-05
     11      -30.114417233550  -5.624e-11  +6.293e-06
     12      -30.114417233565  -1.527e-11  +2.419e-06
     13      -30.114417233567  -1.588e-12  +8.175e-07
     14      -30.114417233567  -1.918e-13  +2.678e-07
     15      -30.114417233567  -3.553e-15  +7.473e-08
     16      -30.114417233567  +4.974e-14  +3.850e-08
     17      -30.114417233567  +3.553e-15  +1.695e-08
     18      -30.114417233567  -7.105e-15  +6.465e-09
     19      -30.114417233567  -1.776e-14  +2.233e-09
     20      -30.114417233567  +0.000e+00  +7.275e-10
  -----------------------------------------------------
  The Davidson-Liu algorithm converged in 21 iterations.
  Davidson-Liu procedure took  0.102488 s  Done. Timing        0.144010 s

  * * * * * * * * * * * * * * * * *
  *  CI Vectors & Configurations  *
  * * * * * * * * * * * * * * * * *

  ==> Root No. 0 <==

    2220 20 20         -0.9710229257
    2220 02 20          0.0929123693
    2220 20 02          0.0929123693
    2220 ba ab          0.0652246065
    2220 ab ba          0.0652246065
    2200 20 22          0.0535075463
    2200 22 20          0.0535075463

    Total Energy:   -113.125830195297596



  ==> Permanent Dipole Moments (A1) <==

  Only print nonzero (> 1.0e-5) elements.
  Permanent dipole moments (a.u.) 0 -> 0:  X:  0.0000  Y:  0.0000  Z:  0.1019  Total:  0.1019


  ==> Energy Summary <==

    Multi.  Irrep.  No.               Energy
    -----------------------------------------
       1      A1     0      -113.125830195298
    -----------------------------------------
 Computing  1RDMs (0 Singlet A1 - 0 Singlet A1) ... Done. Timing        0.008117 s
 Computing  2RDMs (0 Singlet A1 - 0 Singlet A1) ... Done. Timing        0.029518 s
 Computing  3RDMs (0 Singlet A1 - 0 Singlet A1) ... Done. Timing        0.141171 s

  ==> De-Normal-Order DSRG Transformed Dipole Z Integrals <==

    Computing the scalar term                ... Done. Timing    0.002 s
    Computing the 1-body term                ... Done. Timing    0.001 s

  ==> Rotate DSRG Transformed Dipole Z Integrals back to Original Basis <==

    Rotating 1-body term to original basis   ... Done. Timing    0.000 s
    Rotating 2-body term to original basis   ... Done. Timing    0.016 s

    DSRG-MRPT3 partially relaxed dipole moment:
      X:   0.000000  Y:   0.000000  Z:   0.069269  Total:   0.069269


  => DSRG-MRPT3 Reference Relaxation Energy Summary <=

                         Fixed Ref. (a.u.)              Relaxed Ref. (a.u.)
           -------------------------------  -------------------------------
    Iter.          Total Energy      Delta          Total Energy      Delta
    -----------------------------------------------------------------------
        1     -113.123616737393 -1.131e+02     -113.125830195298 -1.131e+02
    -----------------------------------------------------------------------

  => DSRG-MRPT3 Reference Relaxation Dipole Summary <=

    DSRG-MRPT3 unrelaxed dipole moment:
      X:   0.000000  Y:   0.000000  Z:   0.110386  Total:   0.110386

    DSRG-MRPT3 partially relaxed dipole moment:
      X:   0.000000  Y:   0.000000  Z:   0.069269  Total:   0.069269


  ==> Total Timings (s) for Computing Commutators <==

             [H1, T1]    [H1, T2]    [H2, T1]    [H2, T2]
    -----------------------------------------------------
    -> C0       0.013       0.057       0.058       3.528
    -> C1       0.036       0.302       0.284       5.702
    -> C2                   1.135       0.720       5.106
    -----------------------------------------------------


  Time to prepare integrals: 0.5209939479827881 seconds
  Time to run job          : 19.734609127044678 seconds
  Total                    : 19.734609127044678 seconds    DSRG-MRPT3 unrelaxed energy.......................................PASSED
    DSRG-MRPT3 partially relaxed energy...............................PASSED
    DSRG-MRPT3 dipole moment unrelaxed ref............................PASSED
    DSRG-MRPT3 dipole moment partially relaxed ref....................PASSED

    Psi4 stopped on: Sunday, 19 January 2020 06:07PM
    Psi4 wall time for execution: 0:00:24.45

*** Psi4 exiting successfully. Buy a developer a beer!
