    -----------------------------------------------------------------------
          Psi4: An Open-Source Ab Initio Electronic Structure Package
                              Psi4 0.1.233 Driver

                          Git: Rev {detached?} ced593a dirty

    J. M. Turney, A. C. Simmonett, R. M. Parrish, E. G. Hohenstein,
    F. A. Evangelista, J. T. Fermann, B. J. Mintz, L. A. Burns, J. J. Wilke,
    M. L. Abrams, N. J. Russ, M. L. Leininger, C. L. Janssen, E. T. Seidl,
    W. D. Allen, H. F. Schaefer, R. A. King, E. F. Valeev, C. D. Sherrill,
    and T. D. Crawford, WIREs Comput. Mol. Sci. 2, 556-565 (2012)
    (doi: 10.1002/wcms.93)

                         Additional Contributions by
    A. E. DePrince, M. Saitow, U. Bozkaya, A. Yu. Sokolov
    -----------------------------------------------------------------------


    Psi4 started on: 11-25-2015  07:29:21 PM EST

    Process ID:  86780
    PSI4DATADIR: /Users/kevinhannon/Programs/psi4cmake/psi4/lib
    Memory level set to 256.000 MB

  ==> Input File <==

--------------------------------------------------------------------------
#! Generated using commit GITCOMMIT
#! Perform a DF-DSRG-MRPT2 on benzyne 

import forte


memory 500 mb

refmcscf   =  -225.76764656871
refdsrgpt2 =  -226.848938664950595

molecule mbenzyne{
  0 3
   C   0.0000000000  -2.5451795941   0.0000000000
   C   0.0000000000   2.5451795941   0.0000000000
   C  -2.2828001669  -1.3508352528   0.0000000000
   C   2.2828001669  -1.3508352528   0.0000000000
   C   2.2828001669   1.3508352528   0.0000000000
   C  -2.2828001669   1.3508352528   0.0000000000
   H  -4.0782187459  -2.3208602146   0.0000000000
   H   4.0782187459  -2.3208602146   0.0000000000
   H   4.0782187459   2.3208602146   0.0000000000
   H  -4.0782187459   2.3208602146   0.0000000000

  units bohr
}

set globals{
   basis                   sto-3g
   df_basis_mp2            cc-pvdz-ri
   df_basis_scf            cc-pvdz-jkfit
   scf_type                DF
   d_convergence           10
   e_convergence           12
   docc                   [5, 3, 1, 1, 0, 1, 4, 4]
   socc                   [1, 0, 0, 0, 0, 0, 1, 0]
   maxiter                 500
}

set forte {
   frozen_docc            [2, 1, 0, 0, 0, 0, 2, 1]
   restricted_docc        [3, 2, 1, 1, 0, 1, 2, 3]
   active                 [1, 0, 0, 0, 0, 0, 1, 0]
   root_sym                0
   nroot                   1
   multiplicity            1
#   dsrgpt                  false
   dsrg_s                  0.5
   int_type                DF
   job_type                three-dsrg-mrpt2
   cas_type                FCI
}

scf = energy('mcscf')
compare_values(refmcscf, scf,10,"SCF Energy")
set_num_threads(2)

energy('forte')
compare_values(refdsrgpt2, get_variable("CURRENT ENERGY"),10,"DSRG-MRPT2 energy")


--------------------------------------------------------------------------
/Users/kevinhannon/Programs/forte/forte.so loaded.

  Memory set to 500.000 MiB by Python script.

         ------------------------------------------
           MCSCF: a self-consistent field program
            written by Francesco A. Evangelista
         ------------------------------------------ MINTS: Wrapper to libmints.
   by Justin Turney

   Calculation information:
      Number of atoms:                  10
      Number of AO shells:              22
      Number of SO shells:               7
      Number of primitives:             66
      Number of atomic orbitals:        34
      Number of basis functions:        34

      Number of irreps:                  8
      Integral cutoff                 1.00e-12
      Number of functions per irrep: [   8    6    1    2    1    2    8    6 ]

 OEINTS: Overlap, kinetic, potential, dipole, and quadrupole integrals
         stored in file 35.

      Computing two-electron integrals...done
      Computed 26788 non-zero two-electron integrals.
        Stored in file 33.



  MOs per irrep:                  Ag  B1g  B2g  B3g  Au  B1u  B2u  B3u Total
  ----------------------------------------------------------------------------
  Total                            8    6    1    2    1    2    8    6    34
  Doubly Occupied                  5    3    1    1    0    1    4    4    19
  Active/Singly Occupied           1    0    0    0    0    0    1    0     2
  ----------------------------------------------------------------------------

  Running an SCF calculation

  Generated 595 pairs
  Distributed as [122 Ag][100 B1g][40 B2g][44 B3g][40 Au][44 B1u][105 B2u][100 B3u]
  batch   0 pq = [       0,     122] index = [               0,            7503]

  Allocated the PK matrix (7503 elements) 
  Reading the two-electron integrals to form PK ... 
  batch   0 ... done.


  =========================================================================================
         Cycle          Energy               D(Energy)            D(Density)            DIIS
  ===========================================================================================
  Setting level shift to 0.000 S
  @SCF    0     -212.591783893326    -212.591783893326       0.283940323457
  Setting level shift to 0.000 S
  @SCF    1     -223.551422907842     -10.959639014516       0.275117881171
  Setting level shift to 0.000 S
  @SCF    2     -225.634306679483      -2.082883771640       0.061051248309
  Setting level shift to 0.000 S
  @SCF    3     -225.741973038515      -0.107666359032       0.012962175269
  Setting level shift to 0.000 S
  @SCF    4     -225.762320410908      -0.020347372394       0.006354750064
  Setting level shift to 0.000 S
  @SCF    5     -225.766510671298      -0.004190260389       0.002840537282
  Setting level shift to 0.000 S
  @SCF    6     -225.767407075829      -0.000896404532       0.001383874861
  Setting level shift to 0.000 S/E
  @SCF    7     -225.767595763104      -0.000188687275       0.000620625385
  Setting level shift to 0.000 S/E
  @SCF    8     -225.767646508517      -0.000050745412       0.000258338706
  Setting level shift to 0.000 S/E
  @SCF    9     -225.767646565167      -0.000000056651       0.000009056861
  Setting level shift to 0.000 S/E
  @SCF   10     -225.767646568655      -0.000000003488       0.000002750341
  Setting level shift to 0.000 S/E
  @SCF   11     -225.767646568710      -0.000000000055       0.000000376130
  Setting level shift to 0.000 S/E
  @SCF   12     -225.767646568711      -0.000000000001       0.000000056393
  Setting level shift to 0.000 S/E
  @SCF   13     -225.767646568711       0.000000000000       0.000000006429
  Setting level shift to 0.000 S/E
  @SCF   14     -225.767646568711       0.000000000000       0.000000000707
  Setting level shift to 0.000 S/E
  @SCF   15     -225.767646568711      -0.000000000000       0.000000000212
  Setting level shift to 0.000 S/E
  @SCF   16     -225.767646568711       0.000000000000       0.000000000026
  =========================================================================================

      * SCF total energy   =    -225.767646568711


  End of SCF
  MOs orthonormality check passed.

  Orbitals are canonicalized as:
  inactive (docc + uocc) : Fock(core)
  active   (actv)        : Fock(core)

  =========================================================================
  Eigenvalues (Eh)
  -------------------------------------------------------------------------
  Doubly occupied orbitals
      1    -11.734921 B2u      2    -11.734814  Ag      3    -11.617672 B3u
      4    -11.617560 B2u      5    -11.617549  Ag      6    -11.617546 B1g
      7     -1.660065  Ag      8     -1.504736 B2u      9     -1.492338 B3u
     10     -1.316418 B1g     11     -1.247260  Ag     12     -1.119183 B3u
     13     -1.106923  Ag     14     -1.072355 B2u     15     -1.041836 B3u
     16     -1.013115 B1u     17     -0.978385 B1g     18     -0.877276 B3g
     19     -0.784949 B2g
  Active orbitals
     20     -0.466838 B2u     21     -0.404049  Ag
  Unoccupied orbitals
     22     -0.289647 B1u     23     -0.265999  Au     24     -0.043321 B3g
     25      0.145757  Ag     26      0.176088 B3u     27      0.176684 B2u
     28      0.193079 B1g     29      0.295933  Ag     30      0.307110 B2u
     31      0.344744 B1g     32      0.369222 B3u     33      0.538856 B1g
     34      0.561388 B2u
  =========================================================================


  MCSCF Execution Completed.


*** tstop() called on Kevins-MacBook-Pro-2.local at Wed Nov 25 19:29:21 2015
Module time:
	user time   =       0.61 seconds =       0.01 minutes
	system time =       0.06 seconds =       0.00 minutes
	total time  = 1448497761 seconds = 24141629.35 minutes
Total time:
	user time   =       0.61 seconds =       0.01 minutes
	system time =       0.06 seconds =       0.00 minutes
	total time  = 1448497761 seconds = 24141629.35 minutes
Reading options from the FORTE block
Calling plugin /Users/kevinhannon/Programs/forte/forte.so.


  ==> MO Space Information <==

  Read options for space FROZEN_DOCC
  Read options for space RESTRICTED_DOCC
  Read options for space ACTIVE
 Removing orbital 0
 Removing orbital 1
 Removing orbital 8
 Removing orbital 20
 Removing orbital 21
 Removing orbital 28
  -------------------------------------------------------------------------
                       Ag   B1g   B2g   B3g    Au   B1u   B2u   B3u   Sum
  -------------------------------------------------------------------------
    FROZEN_DOCC         2     1     0     0     0     0     2     1     6
    RESTRICTED_DOCC     3     2     1     1     0     1     2     3    13
    ACTIVE              1     0     0     0     0     0     1     0     2
    RESTRICTED_UOCC     2     3     0     1     1     1     3     2    13
    FROZEN_UOCC         0     0     0     0     0     0     0     0     0
    Total               8     6     1     2     1     2     8     6    34
  -------------------------------------------------------------------------

  ==> Integral Transformation <==

  Number of molecular orbitals:               34
  Number of correlated molecular orbitals:    28
  Number of frozen occupied orbitals:          6
  Number of frozen unoccupied orbitals:        0


  DFIntegrals overall time
 Computing Density fitted integrals 

 Number of auxiliary basis functions:  392
 Need 0.003376 GB to store DF integrals

    Computing DF Integrals               ......Done. Timing        0.457167 s
    Seeking DF Integrals                 ......Done. Timing        0.457940 s
   Reading DF Integrals                 . . ....Done. Timing        0.458529 s
  Frozen-core energy              0.000000000000 a.u.

 FrozenOneBody Operator takes  0.69434300 s
  Resorting integrals after freezing core.
 Done with resorting
 Resorting integrals takes   0.01203900s
  DFIntegrals take      1.28475800 s
 scalar_energy_ = -18.72102701

                -----------------------------------------------
                  String-based Full Configuration Interaction
                          by Francesco A. Evangelista
                -----------------------------------------------

  Number of electrons: 40
  Charge: 0
  Multiplicity: 1
  Davidson subspace max dim: 8
  Davidson subspace min dim: 2
  M_s: 0

  ==> String Lists <==

  Number of alpha electrons     = 1
  Number of beta electrons      = 1
  Number of alpha strings       = 2
  Number of beta strings        = 2
  Timing for strings        =      0.000 s
  Timing for NN strings     =      0.000 s
  Timing for VO strings     =      0.000 s
  Timing for OO strings     =      0.000 s
  Timing for Knowles-Handy  =      0.000 s
  Timing for VVOO strings   =      0.000 s
  Timing for VOVO strings   =      0.000 s
  Timing for 1-hole strings =      0.000 s
  Timing for 2-hole strings =      0.000 s
  Timing for 3-hole strings =      0.000 s
  Total timing              =      0.000 s

  ==> FCI Solver <==

    Number of determinants                           2
    Symmetry                                         0
    Multiplicity                                     1
    Number of roots                                  1
    Target root                                      0
    Trial vectors per root                          10
Calling ints, mospace, Ative Contruct
 scalar_energy_ = -18.72102701
  Allocating memory for the Hamiltonian algorithm. Size: 2 x 1 x 1.   Memory: 0.000000 GB

  Determinant space is spin complete.

  ==> FCI Initial Guess <==

  ---------------------------------------------
    Root            Energy     <S^2>   Spin
  ---------------------------------------------
      0     -120.763092866881  0.000  singlet
      1     -120.635016631819  0.000  singlet
  ---------------------------------------------
  Timing for initial guess  =      0.000 s

  ==> Diagonalizing Hamiltonian <==

  ----------------------------------------
    Iter.      Avg. Energy       Delta_E
  ----------------------------------------
      1     -120.781880608251  -1.208e+02
      2     -120.769602955048  +1.228e-02
      3     -120.768423842308  +1.179e-03
      4     -120.768413814406  +1.003e-05
      5     -120.768413813681  +7.249e-10
      6     -120.768413813681  +0.000e+00
  ----------------------------------------
  The Davidson-Liu algorithm converged in 7 iterations.

  ==> Root No. 0 <==

    0 2     -0.90666190
    2 0      0.42185803

    Total Energy:      -120.768413813681008

  ==> RDMs for Root No. 0 <==

                          ----------------------------
                            Semi-Canonical Orbitals
                            Francesco A. Evangelista
                          ----------------------------


  ==> Integral transformation <==

 Computing Density fitted integrals 

 Number of auxiliary basis functions:  392
 Need 0.003376 GB to store DF integrals

    Computing DF Integrals               ......Done. Timing        0.448127 s
    Seeking DF Integrals                 ......Done. Timing        0.448916 s
   Reading DF Integrals                 . . ....Done. Timing        0.449772 s
  Frozen-core energy           -287.156267807164 a.u.

 FrozenOneBody Operator takes  0.69041100 s
  Resorting integrals after freezing core.
 Done with resorting
 Resorting integrals takes   0.01095800s
 Frozen Orbitals takes 0.70307000 s

                -----------------------------------------------
                  String-based Full Configuration Interaction
                          by Francesco A. Evangelista
                -----------------------------------------------

  Number of electrons: 40
  Charge: 0
  Multiplicity: 1
  Davidson subspace max dim: 8
  Davidson subspace min dim: 2
  M_s: 0

  ==> String Lists <==

  Number of alpha electrons     = 1
  Number of beta electrons      = 1
  Number of alpha strings       = 2
  Number of beta strings        = 2
  Timing for strings        =      0.000 s
  Timing for NN strings     =      0.000 s
  Timing for VO strings     =      0.000 s
  Timing for OO strings     =      0.000 s
  Timing for Knowles-Handy  =      0.000 s
  Timing for VVOO strings   =      0.000 s
  Timing for VOVO strings   =      0.000 s
  Timing for 1-hole strings =      0.000 s
  Timing for 2-hole strings =      0.000 s
  Timing for 3-hole strings =      0.000 s
  Total timing              =      0.000 s

  ==> FCI Solver <==

    Number of determinants                           2
    Symmetry                                         0
    Multiplicity                                     1
    Number of roots                                  1
    Target root                                      0
    Trial vectors per root                          10
Calling ints, mospace, Ative Contruct
 scalar_energy_ = -124.63349385
  Allocating memory for the Hamiltonian algorithm. Size: 2 x 1 x 1.   Memory: 0.000000 GB

  Determinant space is spin complete.

  ==> FCI Initial Guess <==

  ---------------------------------------------
    Root            Energy     <S^2>   Spin
  ---------------------------------------------
      0     -226.675559702551  0.000  singlet
      1     -226.547483467489  0.000  singlet
  ---------------------------------------------
  Timing for initial guess  =      0.000 s

  ==> Diagonalizing Hamiltonian <==

  ----------------------------------------
    Iter.      Avg. Energy       Delta_E
  ----------------------------------------
      1     -226.448925801974  -2.264e+02
      2     -226.448925801974  -5.684e-14
  ----------------------------------------
  The Davidson-Liu algorithm converged in 3 iterations.

  ==> Root No. 0 <==

    0 2     -0.77097638
    2 0      0.63686373

    Total Energy:      -226.448925801974241

  ==> RDMs for Root No. 0 <==

	  ---------------------------------------------------------
	      DF/CD - Driven Similarity Renormalization Group MBPT2
	                   Kevin Hannon and Chenyang (York) Li
	                       1 thread(s) 
	  ---------------------------------------------------------
 Reference = RHF
  Reference Energy = -226.448925801974241

  ==> Calculation Information <==

    Flow parameter                           5.000e-01
    Cholesky Tolerance                       1.000e-06
    Taylor expansion threshold               1.000e-03
    int_type                                        DF
    ccvv_algorithm                           FLY_AMBIT
    ccvv_source                                 NORMAL
    Computing T2                         ......Done. Timing        0.013452 s
    Renormalizing V                      ......Done. Timing        0.009793 s
    Computing T1                         ......Done. Timing        0.001627 s
    Renormalizing F                      ......Done. Timing        0.002530 s
    Computing <[F, T1]>                  ......Done. Timing        0.002648 s
    Computing <[F, T2]>                  ......Done. Timing        0.001543 s
    Computing <[V, T1]>                  ......Done. Timing        0.001474 s
    Computing <[V, T2]> (C_2)^4 (no ccvv) ......Done. Timing        0.010221 s
    Computing <[V, T2]> (C_2)^4 ccvv     ......Done. Timing        0.075241 s
    Computing <[V, T2]> 4HH              ......Done. Timing        0.007404 s
    Computing <V, T2]> 4PP               ...  Done. Timing        0.007113 s
    Computing [V, T2] 4PH                ...  Done. Timing        0.025806 s
    Computing [V, T2] λ3                ......Done. Timing        0.006140 s

  ==> DSRG-MRPT2 Energy Summary <==

    E0 (reference)                 =   -226.448925801974241
    <[F, T1]>                      =     -0.078211657400316
    <[F, T2]>                      =      0.000481172391943
    <[V, T1]>                      =     -0.000028998929730
    <[V, T2]> (C_2)^4              =     -0.367812312350803
    <[V, T2]> C_4 (C_2)^2 HH       =      0.005774657617618
    <[V, T2]> C_4 (C_2)^2 PP       =      0.004095198924736
    <[V, T2]> C_4 (C_2)^2 PH       =      0.036842549073951
    <[V, T2]> C_6 C_2              =     -0.001153472303752
    <[V, T2]>                      =     -0.322253379038250
    DSRG-MRPT2 correlation energy  =     -0.400012862976352
    DSRG-MRPT2 total energy        =   -226.848938664950595
    max(T1)                        =      0.038014363756555
    ||T1||                         =      0.151797636180008


    CD/DF-DSRG-MRPT2 took   0.16538900 s.

  Your calculation took 5.65231000 seconds

*** PSI4 exiting successfully. Buy a developer a beer!
