
    -----------------------------------------------------------------------
          Psi4: An Open-Source Ab Initio Electronic Structure Package
                               Psi4 undefined 

                         Git: Rev {master} 3c26e8e 


    R. M. Parrish, L. A. Burns, D. G. A. Smith, A. C. Simmonett,
    A. E. DePrince III, E. G. Hohenstein, U. Bozkaya, A. Yu. Sokolov,
    R. Di Remigio, R. M. Richard, J. F. Gonthier, A. M. James,
    H. R. McAlexander, A. Kumar, M. Saitow, X. Wang, B. P. Pritchard,
    P. Verma, H. F. Schaefer III, K. Patkowski, R. A. King, E. F. Valeev,
    F. A. Evangelista, J. M. Turney, T. D. Crawford, and C. D. Sherrill,
    J. Chem. Theory Comput. 13(7) pp 3185--3197 (2017).
    (doi: 10.1021/acs.jctc.7b00174)


                         Additional Contributions by
    P. Kraus, H. Kruse, M. H. Lechner, M. C. Schieber, and R. A. Shaw

    -----------------------------------------------------------------------


    Psi4 started on: Thursday, 25 October 2018 03:59PM

    Process ID: 92786
    Host:       jeffschriber
    PSIDATADIR: /Users/jeffschriber/src/psi4-debug-install/share/psi4
    Memory:     500.0 MiB
    Threads:    1
    
  ==> Input File <==

--------------------------------------------------------------------------
#! Generated using commit GITCOMMIT
# Tests mp2_nos with spin projected system for multiple roots


import forte

refscf = -75.0525898286472284 
refaci = -75.383717530874
refacipt2  = -75.439721740377

molecule N2{
C 
C 1 2.6
units angstrom
}

set {
  basis dz 
  scf_type pk
  freeze_core true
  reference rhf 
  e_convergence 10
  d_convergence 10
  r_convergence 10
  docc [2,0,0,0,0,2,1,1]
  guess gwh
}



set forte {
  job_type = aci
  multiplicity 1
  aci_SELECT_TYPE aimed_energy
  frozen_docc [1,0,0,0,0,1,0,0]
  aci_excited_algorithm average
  sigma 0.05
  aci_nroot 3
  charge 0
  aci_enforce_spin_complete true
  aci_n_average 3
  aci_average_offset 0
  diag_algorithm sparse
  active_ref_type hf
}

energy('scf')
compare_values(refscf, get_variable("CURRENT ENERGY"),9, "SCF energy") #TEST

energy('forte')
compare_values(refaci, get_variable("ACI ENERGY"),9, "ACI energy") #TEST
compare_values(refacipt2, get_variable("ACI+PT2 ENERGY"),8, "ACI+PT2 energy") #TEST
--------------------------------------------------------------------------

*** tstart() called on jeffschriber
*** at Thu Oct 25 15:59:47 2018

   => Loading Basis Set <=

    Name: DZ
    Role: ORBITAL
    Keyword: BASIS
    atoms 1-2 entry C          line    63 file /Users/jeffschriber/src/psi4-debug-install/share/psi4/basis/dz.gbs 


         ---------------------------------------------------------
                                   SCF
            by Justin Turney, Rob Parrish, Andy Simmonett
                             and Daniel Smith
                              RHF Reference
                        1 Threads,    500 MiB Core
         ---------------------------------------------------------

  ==> Geometry <==

    Molecular point group: d2h
    Full point group: D_inf_h

    Geometry (in Angstrom), charge = 0, multiplicity = 1:

       Center              X                  Y                   Z               Mass       
    ------------   -----------------  -----------------  -----------------  -----------------
         C            0.000000000000     0.000000000000    -1.300000000000    12.000000000000
         C            0.000000000000     0.000000000000     1.300000000000    12.000000000000

  Running in d2h symmetry.

  Rotational constants: A = ************  B =      0.41562  C =      0.41562 [cm^-1]
  Rotational constants: A = ************  B =  12460.03473  C =  12460.03473 [MHz]
  Nuclear repulsion =    7.327069070815384

  Charge       = 0
  Multiplicity = 1
  Electrons    = 12
  Nalpha       = 6
  Nbeta        = 6

  ==> Algorithm <==

  SCF Algorithm Type is PK.
  DIIS enabled.
  MOM disabled.
  Fractional occupation disabled.
  Guess Type is GWH.
  Energy threshold   = 1.00e-10
  Density threshold  = 1.00e-10
  Integral threshold = 0.00e+00

  ==> Primary Basis <==

  Basis Set: DZ
    Blend: DZ
    Number of shells: 12
    Number of basis function: 20
    Number of Cartesian functions: 20
    Spherical Harmonics?: false
    Max angular momentum: 1

  ==> Pre-Iterations <==

   -------------------------------------------------------
    Irrep   Nso     Nmo     Nalpha   Nbeta   Ndocc  Nsocc
   -------------------------------------------------------
     Ag         6       6       2       2       2       0
     B1g        0       0       0       0       0       0
     B2g        2       2       0       0       0       0
     B3g        2       2       0       0       0       0
     Au         0       0       0       0       0       0
     B1u        6       6       2       2       2       0
     B2u        2       2       1       1       1       0
     B3u        2       2       1       1       1       0
   -------------------------------------------------------
    Total      20      20       6       6       6       0
   -------------------------------------------------------

  ==> Integral Setup <==

  Using in-core PK algorithm.
   Calculation information:
      Number of atoms:                   2
      Number of AO shells:              12
      Number of primitives:             28
      Number of atomic orbitals:        20
      Number of basis functions:        20

      Integral cutoff                 1.00e-12
      Number of threads:                 1

  Performing in-core PK
  Using 44310 doubles for integral storage.
  We computed 2802 shell quartets total.
  Whereas there are 3081 unique shell quartets.

  ==> DiskJK: Disk-Based J/K Matrices <==

    J tasked:                  Yes
    K tasked:                  Yes
    wK tasked:                  No
    Memory [MiB]:              375
    Schwarz Cutoff:          1E-12

    OpenMP threads:              1

  Minimum eigenvalue in the overlap matrix is 8.6152175042E-02.
  Using Symmetric Orthogonalization.

  SCF Guess: Generalized Wolfsberg-Helmholtz.

  ==> Iterations <==

                        Total Energy        Delta E     RMS |[F,P]|

   @RHF iter   1:   -74.80224379612915   -7.48022e+01   2.02732e-01 
   @RHF iter   2:   -75.04695491619879   -2.44711e-01   9.65271e-03 DIIS
   @RHF iter   3:   -75.05228353805541   -5.32862e-03   1.56241e-03 DIIS
   @RHF iter   4:   -75.05257448252475   -2.90944e-04   3.69937e-04 DIIS
   @RHF iter   5:   -75.05258968037711   -1.51979e-05   3.50547e-05 DIIS
   @RHF iter   6:   -75.05258982678285   -1.46406e-07   4.71036e-06 DIIS
   @RHF iter   7:   -75.05258982862107   -1.83822e-09   5.29384e-07 DIIS
   @RHF iter   8:   -75.05258982864717   -2.61053e-11   2.55079e-08 DIIS
   @RHF iter   9:   -75.05258982864724   -7.10543e-14   1.84991e-09 DIIS
   @RHF iter  10:   -75.05258982864726   -1.42109e-14   1.69001e-10 DIIS
   @RHF iter  11:   -75.05258982864730   -4.26326e-14   1.20215e-11 DIIS
  Energy converged.


  ==> Post-Iterations <==

    Orbital Energies [Eh]
    ---------------------

    Doubly Occupied:                                                      

       1Ag   -11.470404     1B1u  -11.470326     2Ag    -0.810058  
       2B1u   -0.745371     1B3u   -0.300980     1B2u   -0.300980  

    Virtual:                                                              

       1B2g   -0.073394     1B3g   -0.073394     3Ag    -0.047958  
       3B1u    0.077537     2B3u    0.444580     2B2u    0.444580  
       4B1u    0.446484     2B2g    0.507663     2B3g    0.507663  
       4Ag     0.549709     5Ag     0.613210     5B1u    0.857554  
       6Ag    23.510751     6B1u   23.582909  

    Final Occupation by Irrep:
             Ag   B1g   B2g   B3g    Au   B1u   B2u   B3u 
    DOCC [     2,    0,    0,    0,    0,    2,    1,    1 ]

  @RHF Final Energy:   -75.05258982864730

   => Energetics <=

    Nuclear Repulsion Energy =              7.3270690708153845
    One-Electron Energy =                -114.5630794461351201
    Two-Electron Energy =                  32.1834205466724441
    Total Energy =                        -75.0525898286472852

Computation Completed


Properties will be evaluated at   0.000000,   0.000000,   0.000000 [a0]

Properties computed using the SCF density matrix

  Nuclear Dipole Moment: [e a0]
     X:     0.0000      Y:     0.0000      Z:     0.0000

  Electronic Dipole Moment: [e a0]
     X:     0.0000      Y:     0.0000      Z:     0.0000

  Dipole Moment: [e a0]
     X:     0.0000      Y:     0.0000      Z:     0.0000     Total:     0.0000

  Dipole Moment: [D]
     X:     0.0000      Y:     0.0000      Z:     0.0000     Total:     0.0000


*** tstop() called on jeffschriber at Thu Oct 25 15:59:47 2018
Module time:
	user time   =       0.22 seconds =       0.00 minutes
	system time =       0.02 seconds =       0.00 minutes
	total time  =          0 seconds =       0.00 minutes
Total time:
	user time   =       0.22 seconds =       0.00 minutes
	system time =       0.02 seconds =       0.00 minutes
	total time  =          0 seconds =       0.00 minutes
	SCF energy........................................................PASSED

*** tstart() called on jeffschriber
*** at Thu Oct 25 15:59:47 2018

   => Loading Basis Set <=

    Name: DZ
    Role: ORBITAL
    Keyword: BASIS
    atoms 1-2 entry C          line    63 file /Users/jeffschriber/src/psi4-debug-install/share/psi4/basis/dz.gbs 


         ---------------------------------------------------------
                                   SCF
            by Justin Turney, Rob Parrish, Andy Simmonett
                             and Daniel Smith
                              RHF Reference
                        1 Threads,    500 MiB Core
         ---------------------------------------------------------

  ==> Geometry <==

    Molecular point group: d2h
    Full point group: D_inf_h

    Geometry (in Angstrom), charge = 0, multiplicity = 1:

       Center              X                  Y                   Z               Mass       
    ------------   -----------------  -----------------  -----------------  -----------------
         C            0.000000000000     0.000000000000    -1.300000000000    12.000000000000
         C            0.000000000000     0.000000000000     1.300000000000    12.000000000000

  Running in d2h symmetry.

  Rotational constants: A = ************  B =      0.41562  C =      0.41562 [cm^-1]
  Rotational constants: A = ************  B =  12460.03473  C =  12460.03473 [MHz]
  Nuclear repulsion =    7.327069070815384

  Charge       = 0
  Multiplicity = 1
  Electrons    = 12
  Nalpha       = 6
  Nbeta        = 6

  ==> Algorithm <==

  SCF Algorithm Type is PK.
  DIIS enabled.
  MOM disabled.
  Fractional occupation disabled.
  Guess Type is GWH.
  Energy threshold   = 1.00e-10
  Density threshold  = 1.00e-10
  Integral threshold = 0.00e+00

  ==> Primary Basis <==

  Basis Set: DZ
    Blend: DZ
    Number of shells: 12
    Number of basis function: 20
    Number of Cartesian functions: 20
    Spherical Harmonics?: false
    Max angular momentum: 1

  ==> Pre-Iterations <==

   -------------------------------------------------------
    Irrep   Nso     Nmo     Nalpha   Nbeta   Ndocc  Nsocc
   -------------------------------------------------------
     Ag         6       6       2       2       2       0
     B1g        0       0       0       0       0       0
     B2g        2       2       0       0       0       0
     B3g        2       2       0       0       0       0
     Au         0       0       0       0       0       0
     B1u        6       6       2       2       2       0
     B2u        2       2       1       1       1       0
     B3u        2       2       1       1       1       0
   -------------------------------------------------------
    Total      20      20       6       6       6       0
   -------------------------------------------------------

  ==> Integral Setup <==

  Using in-core PK algorithm.
   Calculation information:
      Number of atoms:                   2
      Number of AO shells:              12
      Number of primitives:             28
      Number of atomic orbitals:        20
      Number of basis functions:        20

      Integral cutoff                 1.00e-12
      Number of threads:                 1

  Performing in-core PK
  Using 44310 doubles for integral storage.
  We computed 2802 shell quartets total.
  Whereas there are 3081 unique shell quartets.

  ==> DiskJK: Disk-Based J/K Matrices <==

    J tasked:                  Yes
    K tasked:                  Yes
    wK tasked:                  No
    Memory [MiB]:              375
    Schwarz Cutoff:          1E-12

    OpenMP threads:              1

  Minimum eigenvalue in the overlap matrix is 8.6152175042E-02.
  Using Symmetric Orthogonalization.

  SCF Guess: Generalized Wolfsberg-Helmholtz.

  ==> Iterations <==

                        Total Energy        Delta E     RMS |[F,P]|

   @RHF iter   1:   -74.80224379612915   -7.48022e+01   2.02732e-01 
   @RHF iter   2:   -75.04695491619879   -2.44711e-01   9.65271e-03 DIIS
   @RHF iter   3:   -75.05228353805543   -5.32862e-03   1.56241e-03 DIIS
   @RHF iter   4:   -75.05257448252473   -2.90944e-04   3.69937e-04 DIIS
   @RHF iter   5:   -75.05258968037715   -1.51979e-05   3.50547e-05 DIIS
   @RHF iter   6:   -75.05258982678285   -1.46406e-07   4.71036e-06 DIIS
   @RHF iter   7:   -75.05258982862107   -1.83822e-09   5.29384e-07 DIIS
   @RHF iter   8:   -75.05258982864720   -2.61338e-11   2.55079e-08 DIIS
   @RHF iter   9:   -75.05258982864727   -7.10543e-14   1.84991e-09 DIIS
   @RHF iter  10:   -75.05258982864729   -1.42109e-14   1.69000e-10 DIIS
   @RHF iter  11:   -75.05258982864724    4.26326e-14   1.20211e-11 DIIS
  Energy converged.


  ==> Post-Iterations <==

    Orbital Energies [Eh]
    ---------------------

    Doubly Occupied:                                                      

       1Ag   -11.470404     1B1u  -11.470326     2Ag    -0.810058  
       2B1u   -0.745371     1B3u   -0.300980     1B2u   -0.300980  

    Virtual:                                                              

       1B2g   -0.073394     1B3g   -0.073394     3Ag    -0.047958  
       3B1u    0.077537     2B3u    0.444580     2B2u    0.444580  
       4B1u    0.446484     2B2g    0.507663     2B3g    0.507663  
       4Ag     0.549709     5Ag     0.613210     5B1u    0.857554  
       6Ag    23.510751     6B1u   23.582909  

    Final Occupation by Irrep:
             Ag   B1g   B2g   B3g    Au   B1u   B2u   B3u 
    DOCC [     2,    0,    0,    0,    0,    2,    1,    1 ]

  @RHF Final Energy:   -75.05258982864724

   => Energetics <=

    Nuclear Repulsion Energy =              7.3270690708153845
    One-Electron Energy =                -114.5630794461350490
    Two-Electron Energy =                  32.1834205466724228
    Total Energy =                        -75.0525898286472426

Computation Completed


Properties will be evaluated at   0.000000,   0.000000,   0.000000 [a0]

Properties computed using the SCF density matrix

  Nuclear Dipole Moment: [e a0]
     X:     0.0000      Y:     0.0000      Z:     0.0000

  Electronic Dipole Moment: [e a0]
     X:     0.0000      Y:     0.0000      Z:     0.0000

  Dipole Moment: [e a0]
     X:     0.0000      Y:     0.0000      Z:     0.0000     Total:     0.0000

  Dipole Moment: [D]
     X:     0.0000      Y:     0.0000      Z:     0.0000     Total:     0.0000


*** tstop() called on jeffschriber at Thu Oct 25 15:59:48 2018
Module time:
	user time   =       0.21 seconds =       0.00 minutes
	system time =       0.02 seconds =       0.00 minutes
	total time  =          1 seconds =       0.02 minutes
Total time:
	user time   =       0.44 seconds =       0.01 minutes
	system time =       0.04 seconds =       0.00 minutes
	total time  =          1 seconds =       0.02 minutes
   => Loading Basis Set <=

    Name: STO-3G
    Role: ORBITAL
    Keyword: MINAO_BASIS
    atoms 1-2 entry C          line    61 file /Users/jeffschriber/src/psi4-debug-install/share/psi4/basis/sto-3g.gbs 


Reading options from the FORTE block
Calling plugin forte.so.



  Forte
  ----------------------------------------------------------------------------
  A suite of quantum chemistry methods for strongly correlated electrons

    git branch: master - git commit: 9480afcf

  Developed by:
    Francesco A. Evangelista, Chenyang Li, Kevin P. Hannon,
    Jeffrey B. Schriber, Tianyuan Zhang, Chenxi Cai
  ----------------------------------------------------------------------------

  Size of Determinant class: 16

  ==> MO Space Information <==

  Read options for space FROZEN_DOCC
  -------------------------------------------------------------------------
                       Ag   B1g   B2g   B3g    Au   B1u   B2u   B3u   Sum
  -------------------------------------------------------------------------
    FROZEN_DOCC         1     0     0     0     0     1     0     0     2
    RESTRICTED_DOCC     0     0     0     0     0     0     0     0     0
    ACTIVE              5     0     2     2     0     5     2     2    18
    RESTRICTED_UOCC     0     0     0     0     0     0     0     0     0
    FROZEN_UOCC         0     0     0     0     0     0     0     0     0
    Total               6     0     2     2     0     6     2     2    20
  -------------------------------------------------------------------------

  ==> Integral Transformation <==

  Number of molecular orbitals:                    20
  Number of correlated molecular orbitals:         18
  Number of frozen occupied orbitals:               2
  Number of frozen unoccupied orbitals:             0
  Two-electron integral type:              Conventional


  Overall Conventional Integrals timings

	Presorting SO-basis two-electron integrals.
	Sorting File: SO Ints (nn|nn) nbuckets = 1
	Transforming the one-electron integrals and constructing Fock matrices
	Starting first half-transformation.
	Sorting half-transformed integrals.
	First half integral transformation complete.
	Starting second half-transformation.
	Two-electron integral transformation complete.

  Integral transformation done. 0.01532007 s
  Reading the two-electron integrals from disk
  Size of two-electron integrals:   0.003576 GB  Using in-core PK algorithm.
   Calculation information:
      Number of atoms:                   2
      Number of AO shells:              12
      Number of primitives:             28
      Number of atomic orbitals:        20
      Number of basis functions:        20

      Integral cutoff                 1.00e-12
      Number of threads:                 1

  Performing in-core PK
  Using 44310 doubles for integral storage.
  We computed 2802 shell quartets total.
  Whereas there are 3081 unique shell quartets.


  Frozen-core energy            -68.788158074678 a.u.
  Timing for frozen one-body operator:                        0.053 s.
  Resorting integrals after freezing core.
  Timing for freezing core and virtual orbitals:              0.066 s.
  Conventional integrals take 0.14024048 s
  Number of active alpha electrons: 4
  Number of active beta electrons: 4
  Maximum reference space size: 1000
  |200000000200002020>

        ---------------------------------------------------------------
                      Adaptive Configuration Interaction
          written by Jeffrey B. Schriber and Francesco A. Evangelista
        ---------------------------------------------------------------

  ==> Reference Information <==

  There are 2 frozen orbitals.
  There are 18 active orbitals.

  ==> Calculation Information <==

  -----------------------------------------------------------------
    Multiplicity                             1    
    Symmetry                                 0    
    Number of roots                          3    
    Root used for properties                 0    
    Sigma (Eh)                               5.00e-02
    Gamma (Eh^(-1))                          1.00e+00
    Convergence threshold                    1.00e-09
    Ms                                       0
    Diagonalization algorithm                SPARSE
    Determinant selection criterion          Second-order Energy
    Selection criterion                      Aimed selection
    Excited Algorithm                        AVERAGE
    Project out spin contaminants            True
    Enforce spin completeness of basis       True
    Enforce complete aimed selection         True
  -----------------------------------------------------------------
  Using 1 threads
  Computing wavefunction for root 0

  ==> Cycle 0 <==

  Initial P space dimension: 1
  Spin-complete dimension of the P space: 1 determinants

  ==> Computing Coupling Lists <==
  --------------------------------
        α          0.000032 s
        β          0.000012 s
        αα         0.000023 s
        ββ         0.000016 s
        αβ         0.000036 s
  --------------------------------
  Time spent diagonalizing H:   0.000087 s

    P-space  CI Energy Root   0        = -75.052589828647 Eh =   0.0000 eV

  Using 1 threads.
  Dimension of the SD space: 612 determinants
  Time spent building the external space: 0.001122 s

  Added 1 missing determinants in aimed selection.
  Dimension of the P + Q space: 83 determinants
  Time spent screening the model space: 0.000958 s
  Time spent building the model space: 0.002266
  Spin-complete dimension of the PQ space: 121

  ==> Computing Coupling Lists <==
  --------------------------------
        α          0.000658 s
        β          0.000645 s
        αα         0.000892 s
        ββ         0.000885 s
        αβ         0.002170 s
  --------------------------------
  Total time spent diagonalizing H:   0.010157 s

    PQ-space CI Energy Root   0        = -75.347590222231 Eh =   0.0000 eV
    PQ-space CI Energy + EPT2 Root   0 = -75.397083695967 Eh =   0.0000 eV

  Added 1 missing determinants in aimed selection.

  Most important contributions to root   0:
    0   0.403428 0.162753780          80 |20000-0+020000+0-0>
    1  -0.403428 0.162753780          75 |20000+0-020000+0-0>
    2  -0.403428 0.162753780          74 |20000-0+020000-0+0>
    3   0.403428 0.162753780          72 |20000-0-020000+0+0>
    4   0.403428 0.162753780          73 |20000+0+020000-0-0>
    5   0.403428 0.162753780          81 |20000+0-020000-0+0>
    6   0.041779 0.001745514         119 |200000-+020000+0-0>
    7   0.041779 0.001745514         117 |20000-00+20000+0-0>
    8  -0.041779 0.001745514          60 |20000+00-20000+0-0>
    9  -0.041779 0.001745514          62 |200000+-020000+0-0>

  Spin state for root 0: S^2 = 2.000000, S = 6.000, quintet

  Most important contributions to root   1:
    0  -0.546218 0.298354476           0 |200000000200002020>
    1   0.390771 0.152702160          78 |200002000200002000>
    2   0.390771 0.152702160          79 |200000020200000020>
    3  -0.341510 0.116628976          80 |20000-0+020000+0-0>
    4  -0.341510 0.116628976          81 |20000+0-020000-0+0>
    5   0.231649 0.053661054          72 |20000-0-020000+0+0>
    6   0.231649 0.053661054          73 |20000+0+020000-0-0>
    7  -0.109861 0.012069503          74 |20000-0+020000-0+0>
    8  -0.109861 0.012069503          75 |20000+0-020000+0-0>
    9  -0.050504 0.002550636          76 |200002000200000020>

  Spin state for root 1: S^2 = 0.000000, S = 0.000, singlet

  Most important contributions to root   2:
    0   0.699800 0.489719981          81 |20000+0-020000-0+0>
    1  -0.699800 0.489719981          80 |20000-0+020000+0-0>
    2   0.066255 0.004389676         120 |200000+-020000-0+0>
    3   0.066255 0.004389676         118 |20000+00-20000-0+0>
    4  -0.066255 0.004389676         119 |200000-+020000+0-0>
    5  -0.066255 0.004389676         117 |20000-00+20000+0-0>
    6  -0.032215 0.001037781         105 |20000000020000--++>
    7   0.032215 0.001037781         106 |20000000020000++-->
    8  -0.010744 0.000115424          84 |200000+0-20000-0+0>
    9   0.010744 0.000115424          83 |200000-0+20000+0-0>

  Spin state for root 2: S^2 = 1.000000, S = 2.000, triplet
  Cycle 0 took: 0.020242 s

  ==> Cycle 1 <==

  Initial P space dimension: 9
  Spin-complete dimension of the P space: 9 determinants

  ==> Computing Coupling Lists <==
  --------------------------------
        α          0.000079 s
        β          0.000070 s
        αα         0.000107 s
        ββ         0.000101 s
        αβ         0.000259 s
  --------------------------------
  Time spent diagonalizing H:   0.000218 s

    P-space  CI Energy Root   0        = -75.330448929086 Eh =   0.0000 eV
    P-space  CI Energy Root   1        = -75.293903076454 Eh =   0.9945 eV
    P-space  CI Energy Root   2        = -75.278469215573 Eh =   1.4144 eV

  Using 1 threads.
  Dimension of the SD space: 4397 determinants
  Time spent building the external space: 0.011051 s

  Added 3 missing determinants in aimed selection.
  Dimension of the P + Q space: 124 determinants
  Time spent screening the model space: 0.063355 s
  Time spent building the model space: 0.075555
  Spin-complete dimension of the PQ space: 442

  ==> Computing Coupling Lists <==
  --------------------------------
        α          0.002135 s
        β          0.002135 s
        αα         0.003054 s
        ββ         0.003062 s
        αβ         0.007193 s
  --------------------------------

  Davidson-liu sparse algorithm
  Time spent building H:   0.003186 s
  H contains 12050 nonzero elements (0.184 MB)
  Initial guess space is incomplete!
  Trying to add 50 determinant(s).  50 determinant(s) added.
  Initial guess found 102 solutions with 2S+1 = 1 *
  Initial guess found 155 solutions with 2S+1 = 3  
  Initial guess found 77 solutions with 2S+1 = 5  
  Initial guess found 15 solutions with 2S+1 = 7  
  Initial guess found 1 solutions with 2S+1 = 9  
  Adding guess 0 (multiplicity = 1.000000)
  Adding guess 1 (multiplicity = 1.000000)
  Adding guess 2 (multiplicity = 1.000000)
  Adding guess 3 (multiplicity = 1.000000)
  Adding guess 4 (multiplicity = 1.000000)
  Adding guess 5 (multiplicity = 1.000000)

  ==> Diagonalizing Hamiltonian <==

  ----------------------------------------
    Iter.      Avg. Energy       Delta_E
  ----------------------------------------
      1      -82.625741263505  -8.263e+01
      2      -82.627560067073  -1.819e-03
      3      -82.627569011938  -8.945e-06
      4      -82.627569868433  -8.565e-07
      5      -82.627570193446  -3.250e-07
      6      -82.627570209945  -1.650e-08
      7      -82.627570211877  -1.933e-09
      8      -82.627570212471  -5.932e-10
      9      -82.627570212819  -3.488e-10
     10      -82.627570212875  -5.537e-11
     11      -82.627570212882  -7.617e-12
  ----------------------------------------
  The Davidson-Liu algorithm converged in 12 iterations.
  Davidson-Liu procedure took  0.247087 s
  Total time spent diagonalizing H:   0.251908 s

    PQ-space CI Energy Root   0        = -75.373281118755 Eh =   0.0000 eV
    PQ-space CI Energy + EPT2 Root   0 = -75.422910085926 Eh =   0.0000 eV
    PQ-space CI Energy Root   1        = -75.284115589481 Eh =   2.4263 eV
    PQ-space CI Energy + EPT2 Root   1 = -75.345072443206 Eh =   2.1181 eV
    PQ-space CI Energy Root   2        = -75.244106717964 Eh =   3.5150 eV
    PQ-space CI Energy + EPT2 Root   2 = -75.283045316675 Eh =   3.8059 eV


  Most important contributions to root   0:
    0  -0.491667 0.241736780           3 |200000000200002020>
    1   0.368063 0.135470029           0 |200002000200002000>
    2   0.368063 0.135470029           8 |200000020200000020>
    3  -0.346603 0.120133452           7 |20000-0+020000+0-0>
    4  -0.346603 0.120133452           6 |20000+0-020000-0+0>
    5  -0.292017 0.085273901         120 |200002020200000000>
    6  -0.185134 0.034274724           2 |20000-0+020000-0+0>
    7  -0.185134 0.034274724           1 |20000+0-020000+0-0>
    8   0.161468 0.026072041           4 |20000+0+020000-0-0>
    9   0.161468 0.026072041           5 |20000-0-020000+0+0>

  Spin state for root 0: S^2 = 0.000000, S = 0.000, singlet

  Most important contributions to root   1:
    0   0.445349 0.198335820           3 |200000000200002020>
    1  -0.436511 0.190541708           7 |20000-0+020000+0-0>
    2  -0.436511 0.190541708           6 |20000+0-020000-0+0>
    3   0.259265 0.067218091           5 |20000-0-020000+0+0>
    4   0.259265 0.067218091           4 |20000+0+020000-0-0>
    5  -0.249624 0.062312305           0 |200002000200002000>
    6  -0.249624 0.062312305           8 |200000020200000020>
    7   0.220877 0.048786763         120 |200002020200000000>
    8  -0.177246 0.031416256           2 |20000-0+020000-0+0>
    9  -0.177246 0.031416256           1 |20000+0-020000+0-0>

  Spin state for root 1: S^2 = 0.000000, S = 0.000, singlet

  Most important contributions to root   2:
    0  -0.410821 0.168773976          26 |200000020200002000>
    1  -0.410821 0.168773976          25 |200002000200000020>
    2   0.339158 0.115028451           8 |200000020200000020>
    3   0.339158 0.115028451           0 |200002000200002000>
    4   0.300390 0.090234102           1 |20000+0-020000+0-0>
    5   0.300390 0.090234102           2 |20000-0+020000-0+0>
    6   0.278739 0.077695306           3 |200000000200002020>
    7   0.256873 0.065983708           5 |20000-0-020000+0+0>
    8   0.256873 0.065983708           4 |20000+0+020000-0-0>
    9   0.151139 0.022843033         120 |200002020200000000>

  Spin state for root 2: S^2 = 0.000000, S = 0.000, singlet
  Cycle 1 took: 0.350807 s

  ==> Cycle 2 <==

  Initial P space dimension: 12
  Spin-complete dimension of the P space: 12 determinants

  ==> Computing Coupling Lists <==
  --------------------------------
        α          0.000070 s
        β          0.000065 s
        αα         0.000093 s
        ββ         0.000088 s
        αβ         0.000230 s
  --------------------------------
  Time spent diagonalizing H:   0.000183 s

    P-space  CI Energy Root   0        = -75.335753035160 Eh =   0.0000 eV
    P-space  CI Energy Root   1        = -75.330448929086 Eh =   0.1443 eV
    P-space  CI Energy Root   2        = -75.278469215573 Eh =   1.5588 eV

  Using 1 threads.
  Dimension of the SD space: 5618 determinants
  Time spent building the external space: 0.009590 s

  Dimension of the P + Q space: 117 determinants
  Time spent screening the model space: 0.070151 s
  Time spent building the model space: 0.081319
  Spin-complete dimension of the PQ space: 377

  ==> Computing Coupling Lists <==
  --------------------------------
        α          0.001854 s
        β          0.001814 s
        αα         0.002504 s
        ββ         0.002485 s
        αβ         0.006328 s
  --------------------------------

  Davidson-liu sparse algorithm
  Time spent building H:   0.002513 s
  H contains 10163 nonzero elements (0.155 MB)
  Initial guess space is incomplete!
  Trying to add 65 determinant(s).  65 determinant(s) added.
  Initial guess found 109 solutions with 2S+1 = 1 *
  Initial guess found 162 solutions with 2S+1 = 3  
  Initial guess found 78 solutions with 2S+1 = 5  
  Initial guess found 15 solutions with 2S+1 = 7  
  Initial guess found 1 solutions with 2S+1 = 9  
  Adding guess 0 (multiplicity = 1.000000)
  Adding guess 1 (multiplicity = 1.000000)
  Adding guess 2 (multiplicity = 1.000000)
  Adding guess 3 (multiplicity = 1.000000)
  Adding guess 4 (multiplicity = 1.000000)
  Adding guess 5 (multiplicity = 1.000000)

  ==> Diagonalizing Hamiltonian <==

  ----------------------------------------
    Iter.      Avg. Energy       Delta_E
  ----------------------------------------
      1      -82.633372629695  -8.263e+01
      2      -82.633753293701  -3.807e-04
      3      -82.633755373448  -2.080e-06
      4      -82.633755475699  -1.023e-07
      5      -82.633755509636  -3.394e-08
      6      -82.633755510847  -1.211e-09
      7      -82.633755511061  -2.146e-10
      8      -82.633755511115  -5.387e-11
      9      -82.633755511136  -2.052e-11
  ----------------------------------------
  The Davidson-Liu algorithm converged in 10 iterations.
  Davidson-Liu procedure took  0.266329 s
  Total time spent diagonalizing H:   0.270475 s

    PQ-space CI Energy Root   0        = -75.383717530874 Eh =   0.0000 eV
    PQ-space CI Energy + EPT2 Root   0 = -75.439721740377 Eh =   0.0000 eV
    PQ-space CI Energy Root   1        = -75.285980215933 Eh =   2.6596 eV
    PQ-space CI Energy + EPT2 Root   1 = -75.339314850658 Eh =   2.7322 eV
    PQ-space CI Energy Root   2        = -75.250361574153 Eh =   3.6288 eV
    PQ-space CI Energy + EPT2 Root   2 = -75.290739421498 Eh =   4.0540 eV


  Most important contributions to root   0:
    0   0.517924 0.268245384          11 |200000000200002020>
    1  -0.382486 0.146295421           9 |200000020200000020>
    2  -0.382486 0.146295421          10 |200002000200002000>
    3   0.318756 0.101605464           4 |200002020200000000>
    4   0.306562 0.093980278           8 |20000-0+020000+0-0>
    5   0.306562 0.093980278           7 |20000+0-020000-0+0>
    6   0.169396 0.028694952           2 |20000-0+020000-0+0>
    7   0.169396 0.028694952           3 |20000+0-020000+0-0>
    8  -0.137166 0.018814562           6 |20000+0+020000-0-0>
    9  -0.137166 0.018814562           5 |20000-0-020000+0+0>

  Spin state for root 0: S^2 = 0.000000, S = 0.000, singlet

  Most important contributions to root   1:
    0  -0.462099 0.213535892           8 |20000-0+020000+0-0>
    1  -0.462099 0.213535892           7 |20000+0-020000-0+0>
    2   0.418341 0.175009148          11 |200000000200002020>
    3   0.288232 0.083077595           6 |20000+0+020000-0-0>
    4   0.288232 0.083077595           5 |20000-0-020000+0+0>
    5   0.199796 0.039918621           4 |200002020200000000>
    6  -0.192294 0.036977078           9 |200000020200000020>
    7  -0.192294 0.036977078          10 |200002000200002000>
    8  -0.173868 0.030229941           2 |20000-0+020000-0+0>
    9  -0.173868 0.030229941           3 |20000+0-020000+0-0>

  Spin state for root 1: S^2 = 0.000000, S = 0.000, singlet

  Most important contributions to root   2:
    0  -0.386012 0.149005067           1 |200000020200002000>
    1  -0.386012 0.149005067           0 |200002000200000020>
    2   0.357912 0.128100903          10 |200002000200002000>
    3   0.357912 0.128100903           9 |200000020200000020>
    4   0.315262 0.099390283           3 |20000+0-020000+0-0>
    5   0.315262 0.099390283           2 |20000-0+020000-0+0>
    6   0.281139 0.079038886          11 |200000000200002020>
    7   0.244108 0.059588959           5 |20000-0-020000+0+0>
    8   0.244108 0.059588959           6 |20000+0+020000-0-0>
    9   0.109622 0.012017085           4 |200002020200000000>

  Spin state for root 2: S^2 = 0.000000, S = 0.000, singlet
  Cycle 2 took: 0.372016 s

  ==> Cycle 3 <==

  Initial P space dimension: 12
  Spin-complete dimension of the P space: 12 determinants

  ==> Computing Coupling Lists <==
  --------------------------------
        α          0.000072 s
        β          0.000066 s
        αα         0.000097 s
        ββ         0.000091 s
        αβ         0.000235 s
  --------------------------------
  Time spent diagonalizing H:   0.000182 s

    P-space  CI Energy Root   0        = -75.335753035160 Eh =   0.0000 eV
    P-space  CI Energy Root   1        = -75.330448929086 Eh =   0.1443 eV
    P-space  CI Energy Root   2        = -75.278469215573 Eh =   1.5588 eV

  Using 1 threads.
  Dimension of the SD space: 5618 determinants
  Time spent building the external space: 0.009844 s

  Dimension of the P + Q space: 117 determinants
  Time spent screening the model space: 0.070148 s
  Time spent building the model space: 0.081103
  Spin-complete dimension of the PQ space: 377

  ==> Computing Coupling Lists <==
  --------------------------------
        α          0.001884 s
        β          0.001820 s
        αα         0.002509 s
        ββ         0.002488 s
        αβ         0.006226 s
  --------------------------------

  Davidson-liu sparse algorithm
  Time spent building H:   0.002615 s
  H contains 10163 nonzero elements (0.155 MB)
  Initial guess space is incomplete!
  Trying to add 65 determinant(s).  65 determinant(s) added.
  Initial guess found 109 solutions with 2S+1 = 1 *
  Initial guess found 162 solutions with 2S+1 = 3  
  Initial guess found 78 solutions with 2S+1 = 5  
  Initial guess found 15 solutions with 2S+1 = 7  
  Initial guess found 1 solutions with 2S+1 = 9  
  Adding guess 0 (multiplicity = 1.000000)
  Adding guess 1 (multiplicity = 1.000000)
  Adding guess 2 (multiplicity = 1.000000)
  Adding guess 3 (multiplicity = 1.000000)
  Adding guess 4 (multiplicity = 1.000000)
  Adding guess 5 (multiplicity = 1.000000)

  ==> Diagonalizing Hamiltonian <==

  ----------------------------------------
    Iter.      Avg. Energy       Delta_E
  ----------------------------------------
      1      -82.633372629695  -8.263e+01
      2      -82.633753293701  -3.807e-04
      3      -82.633755373448  -2.080e-06
      4      -82.633755475699  -1.023e-07
      5      -82.633755509636  -3.394e-08
      6      -82.633755510847  -1.211e-09
      7      -82.633755511061  -2.147e-10
      8      -82.633755511115  -5.392e-11
      9      -82.633755511136  -2.052e-11
  ----------------------------------------
  The Davidson-Liu algorithm converged in 10 iterations.
  Davidson-Liu procedure took  0.268927 s
  Total time spent diagonalizing H:   0.273180 s

    PQ-space CI Energy Root   0        = -75.383717530875 Eh =   0.0000 eV
    PQ-space CI Energy + EPT2 Root   0 = -75.439721740377 Eh =   0.0000 eV
    PQ-space CI Energy Root   1        = -75.285980215933 Eh =   2.6596 eV
    PQ-space CI Energy + EPT2 Root   1 = -75.339314850658 Eh =   2.7322 eV
    PQ-space CI Energy Root   2        = -75.250361574153 Eh =   3.6288 eV
    PQ-space CI Energy + EPT2 Root   2 = -75.290739421498 Eh =   4.0540 eV

  ***** Calculation Converged *****

  ==> ACI Summary <==

  Iterations required:                         3
  Dimension of optimized determinant space:    377

  * Adaptive-CI Energy Root   0        = -75.383717530875 Eh =   0.0000 eV
  * Adaptive-CI Energy Root   0 + EPT2 = -75.439721740377 Eh =   0.0000 eV
  * Adaptive-CI Energy Root   1        = -75.285980215933 Eh =   2.6596 eV
  * Adaptive-CI Energy Root   1 + EPT2 = -75.339314850658 Eh =   2.7322 eV
  * Adaptive-CI Energy Root   2        = -75.250361574153 Eh =   3.6288 eV
  * Adaptive-CI Energy Root   2 + EPT2 = -75.290739421498 Eh =   4.0540 eV

  ==> Wavefunction Information <==

  Most important contributions to root   0:
    0  -0.517924 0.268245384          11 |200000000200002020>
    1   0.382486 0.146295421          10 |200002000200002000>
    2   0.382486 0.146295421           9 |200000020200000020>
    3  -0.318756 0.101605464           2 |200002020200000000>
    4  -0.306562 0.093980278           8 |20000-0+020000+0-0>
    5  -0.306562 0.093980278           7 |20000+0-020000-0+0>
    6  -0.169396 0.028694952           3 |20000-0+020000-0+0>
    7  -0.169396 0.028694952           4 |20000+0-020000+0-0>
    8   0.137166 0.018814562           6 |20000+0+020000-0-0>
    9   0.137166 0.018814562           5 |20000-0-020000+0+0>

  Spin state for root 0: S^2 = 0.000000, S = 0.000, singlet

  Most important contributions to root   1:
    0  -0.462099 0.213535892           8 |20000-0+020000+0-0>
    1  -0.462099 0.213535892           7 |20000+0-020000-0+0>
    2   0.418341 0.175009148          11 |200000000200002020>
    3   0.288232 0.083077595           6 |20000+0+020000-0-0>
    4   0.288232 0.083077595           5 |20000-0-020000+0+0>
    5   0.199796 0.039918621           2 |200002020200000000>
    6  -0.192294 0.036977078           9 |200000020200000020>
    7  -0.192294 0.036977078          10 |200002000200002000>
    8  -0.173868 0.030229941           3 |20000-0+020000-0+0>
    9  -0.173868 0.030229941           4 |20000+0-020000+0-0>

  Spin state for root 1: S^2 = 0.000000, S = 0.000, singlet

  Most important contributions to root   2:
    0  -0.386012 0.149005067           0 |200000020200002000>
    1  -0.386012 0.149005067           1 |200002000200000020>
    2   0.357912 0.128100903           9 |200000020200000020>
    3   0.357912 0.128100903          10 |200002000200002000>
    4   0.315262 0.099390283           4 |20000+0-020000+0-0>
    5   0.315262 0.099390283           3 |20000-0+020000-0+0>
    6   0.281139 0.079038886          11 |200000000200002020>
    7   0.244108 0.059588959           5 |20000-0-020000+0+0>
    8   0.244108 0.059588959           6 |20000+0+020000-0-0>
    9   0.109622 0.012017085           2 |200002020200000000>

  Spin state for root 2: S^2 = 0.000000, S = 0.000, singlet

  ==> Computing Coupling Lists <==
  --------------------------------
        α          0.001837 s
        β          0.001821 s
        αα         0.002578 s
        ββ         0.002560 s
        αβ         0.006217 s
  --------------------------------
  1-RDM  took 0.001798 s (determinant)

  ==> NATURAL ORBITALS <==

        1B1u    1.986881      1Ag     1.986137      1B2u    1.173249  
        1B3u    1.173249      1B2g    0.820602      1B3g    0.820602  
        2Ag     0.016153      2B1u    0.009459      2B3u    0.003574  
        2B2u    0.003574      2B2g    0.002574      2B3g    0.002574  
        3Ag     0.001371      5B1u    0.000000      4B1u    0.000000  
        3B1u    0.000000      5Ag     0.000000      4Ag     0.000000  


  RDMS took 0.017611

  Adaptive-CI ran in : 1.135804 s

  Saving information for root: 0	ACI energy........................................................PASSED
	ACI+PT2 energy....................................................PASSED

    Psi4 stopped on: Thursday, 25 October 2018 03:59PM
    Psi4 wall time for execution: 0:00:01.95

*** Psi4 exiting successfully. Buy a developer a beer!
