    -----------------------------------------------------------------------
          Psi4: An Open-Source Ab Initio Electronic Structure Package
                              Psi4 (no tag) Driver

                          Git: Rev {master} d8d4a3e 

    J. M. Turney, A. C. Simmonett, R. M. Parrish, E. G. Hohenstein,
    F. A. Evangelista, J. T. Fermann, B. J. Mintz, L. A. Burns, J. J. Wilke,
    M. L. Abrams, N. J. Russ, M. L. Leininger, C. L. Janssen, E. T. Seidl,
    W. D. Allen, H. F. Schaefer, R. A. King, E. F. Valeev, C. D. Sherrill,
    and T. D. Crawford, WIREs Comput. Mol. Sci. 2, 556-565 (2012)
    (doi: 10.1002/wcms.93)

                         Additional Contributions by
    A. E. DePrince, M. Saitow, U. Bozkaya, A. Yu. Sokolov
    -----------------------------------------------------------------------


    Psi4 started on: Sat Oct  3 22:12:46 2015

    Process ID:  52413
    PSI4DATADIR: /Users/jeffschriber/Source/psi4/lib
    Memory level set to 256.000 MB

  ==> Input File <==

--------------------------------------------------------------------------
#! Generated using commit GITCOMMIT
#Tests spin projection for a spin-contaminated system

import forte 

refscf = -37.97186042031555  
refaci = -38.893283747776 
refacipt2 = -38.962172189030

molecule CH2{
0 1
C  0.000000 0.00000 0.00000
H  1.644403 0.00000 1.32213
H -1.644403 0.00000 1.32213
units bohr
symmetry c2v
}

set {
  basis DZ
  scf_type pk
  reference rohf
  e_convergence 11
  d_convergence 11
  r_convergence 11
  multiplicity 1
  docc [2,0,2,0]
}


set forte {
  JOB_TYPE aci
  multiplicity 1
  SELECT_TYPE aimed_energy
  TAUP 0.07
  TAUQ 0.07
  nroot 1
  charge 0
  spin_projection 1
  enforce_spin_complete false
}

energy('scf')

compare_values(refscf, get_variable("CURRENT ENERGY"),9, "SCF energy")

energy('forte')
compare_values(refaci, get_variable("ACI ENERGY"),7, "EX-ACI energy")
compare_values(refacipt2, get_variable("ACI+PT2 ENERGY"),7, "EX_ACI+PT2 energy")

--------------------------------------------------------------------------
/Users/jeffschriber/Source/forte/forte.so loaded.

*** tstart() called on Jeffs-MacBook-Pro.local
*** at Sat Oct  3 22:12:46 2015


         ---------------------------------------------------------
                                   SCF
            by Justin Turney, Rob Parrish, and Andy Simmonett
                             ROHF Reference
                        1 Threads,    256 MiB Core
         ---------------------------------------------------------

  ==> Geometry <==

    Molecular point group: c2v
    Full point group: C2v

    Geometry (in Bohr), charge = 0, multiplicity = 1:

       Center              X                  Y                   Z               Mass       
    ------------   -----------------  -----------------  -----------------  -----------------
           C          0.000000000000     0.000000000000    -0.190141121326    12.000000000000
           H          1.644403000000     0.000000000000     1.131988878674     1.007825032070
           H         -1.644403000000    -0.000000000000     1.131988878674     1.007825032070

  Running in c2v symmetry.

  Rotational constants: A =     19.95551  B =     11.04492  C =      7.10980 [cm^-1]
  Rotational constants: A = 598251.06074  B = 331118.37066  C = 213146.58067 [MHz]
  Nuclear repulsion =    5.991272557961065

  Charge       = 0
  Multiplicity = 1
  Electrons    = 8
  Nalpha       = 4
  Nbeta        = 4

  ==> Algorithm <==

  SCF Algorithm Type is PK.
  DIIS enabled.
  MOM disabled.
  Fractional occupation disabled.
  Guess Type is CORE.
  Energy threshold   = 1.00e-11
  Density threshold  = 1.00e-11
  Integral threshold = 0.00e+00

  ==> Primary Basis <==

  Basis Set: DZ
    Number of shells: 10
    Number of basis function: 14
    Number of Cartesian functions: 14
    Spherical Harmonics?: false
    Max angular momentum: 1

  ==> Pre-Iterations <==

   -------------------------------------------------------
    Irrep   Nso     Nmo     Nalpha   Nbeta   Ndocc  Nsocc
   -------------------------------------------------------
     A1         8       8       2       2       2       0
     A2         0       0       0       0       0       0
     B1         4       4       2       2       2       0
     B2         2       2       0       0       0       0
   -------------------------------------------------------
    Total      14      14       4       4       4       0
   -------------------------------------------------------

  Starting with a DF guess...

 OEINTS: Overlap, kinetic, potential, dipole, and quadrupole integrals
         stored in file 35.

  ==> Integral Setup <==

  ==> DFJK: Density-Fitted J/K Matrices <==

    J tasked:                  Yes
    K tasked:                  Yes
    wK tasked:                  No
    OpenMP threads:              1
    Integrals threads:           1
    Memory (MB):               183
    Algorithm:                Core
    Integral Cache:           NONE
    Schwarz Cutoff:          1E-12
    Fitting Condition:       1E-12

   => Auxiliary Basis Set <=

  Basis Set: 
    Number of shells: 37
    Number of basis function: 129
    Number of Cartesian functions: 129
    Spherical Harmonics?: false
    Max angular momentum: 4

  Minimum eigenvalue in the overlap matrix is 2.8833212087E-02.
  Using Symmetric Orthogonalization.
  SCF Guess: Core (One-Electron) Hamiltonian.

  ==> Iterations <==

                           Total Energy        Delta E     RMS |[F,P]|

   @DF-ROHF iter   1:   -36.37618654746220   -3.63762e+01   3.36197e-01 
   @DF-ROHF iter   2:   -37.94140168086236   -1.56522e+00   6.11623e-02 DIIS
   @DF-ROHF iter   3:   -37.97041876603783   -2.90171e-02   6.41504e-03 DIIS
   @DF-ROHF iter   4:   -37.97178059495790   -1.36183e-03   1.45592e-03 DIIS
   @DF-ROHF iter   5:   -37.97194062556247   -1.60031e-04   2.20800e-04 DIIS
   @DF-ROHF iter   6:   -37.97194615350544   -5.52794e-06   5.92733e-05 DIIS
   @DF-ROHF iter   7:   -37.97194709892822   -9.45423e-07   2.14476e-05 DIIS
   @DF-ROHF iter   8:   -37.97194727040328   -1.71475e-07   3.68881e-06 DIIS
   @DF-ROHF iter   9:   -37.97194727461671   -4.21343e-09   3.02478e-07 DIIS
   @DF-ROHF iter  10:   -37.97194727462212   -5.41434e-12   3.51286e-08 DIIS
   @DF-ROHF iter  11:   -37.97194727462220   -7.81597e-14   3.55337e-09 DIIS
   @DF-ROHF iter  12:   -37.97194727462222   -2.13163e-14   1.92978e-10 DIIS
   @DF-ROHF iter  13:   -37.97194727462222    7.10543e-15   2.93077e-11 DIIS
   @DF-ROHF iter  14:   -37.97194727462217    4.26326e-14   2.40958e-12 DIIS

  DF guess converged.

  ==> Integral Setup <==

 MINTS: Wrapper to libmints.
   by Justin Turney

   Calculation information:
      Number of atoms:                   3
      Number of AO shells:              10
      Number of SO shells:               8
      Number of primitives:             22
      Number of atomic orbitals:        14
      Number of basis functions:        14

      Number of irreps:                  4
      Integral cutoff                 0.00e+00
      Number of functions per irrep: [   8    0    4    2 ]

 OEINTS: Overlap, kinetic, potential, dipole, and quadrupole integrals
         stored in file 35.

      Computing two-electron integrals...done
      Computed 1709 non-zero two-electron integrals.
        Stored in file 33.

	Batch   1 pq = [       0,      49] index = [             0,1225]
  ==> DiskJK: Disk-Based J/K Matrices <==

    J tasked:                  Yes
    K tasked:                  Yes
    wK tasked:                  No
    Memory (MB):               183
    Schwarz Cutoff:          1E-12

   @ROHF iter  15:   -37.97186034050385    8.69341e-05   3.72679e-05 DIIS
   @ROHF iter  16:   -37.97186039764565   -5.71418e-08   1.17868e-05 DIIS
   @ROHF iter  17:   -37.97186041177311   -1.41275e-08   4.47266e-06 DIIS
   @ROHF iter  18:   -37.97186041799561   -6.22251e-09   2.58752e-06 DIIS
   @ROHF iter  19:   -37.97186042026117   -2.26556e-09   4.50022e-07 DIIS
   @ROHF iter  20:   -37.97186042031549   -5.43210e-11   1.29736e-08 DIIS
   @ROHF iter  21:   -37.97186042031552   -2.13163e-14   2.64912e-09 DIIS
   @ROHF iter  22:   -37.97186042031555   -3.55271e-14   1.16350e-10 DIIS
   @ROHF iter  23:   -37.97186042031548    7.10543e-14   2.28274e-11 DIIS
   @ROHF iter  24:   -37.97186042031551   -2.84217e-14   2.38365e-12 DIIS

  ==> Post-Iterations <==

    Orbital Energies (a.u.)
    -----------------------

    Doubly Occupied:                                                      

       1A1   -11.541317     2A1    -0.979197     1B1    -0.688399  
       2B1     0.014347  

    Singly Occupied:                                                      

    

    Virtual:                                                              

       3A1    -0.161041     1B2    -0.074056     4A1     0.263290  
       3B1     0.348939     5A1     0.394599     2B2     0.417738  
       6A1     0.697875     7A1     1.265107     4B1     1.271017  
       8A1    23.537237  

    Final Occupation by Irrep:
             A1    A2    B1    B2 
    DOCC [     2,    0,    2,    0 ]
    SOCC [     0,    0,    0,    0 ]

  Energy converged.

  @ROHF Final Energy:   -37.97186042031551

   => Energetics <=

    Nuclear Repulsion Energy =              5.9912725579610653
    One-Electron Energy =                 -61.5371340934949274
    Two-Electron Energy =                  17.5740011152183442
    DFT Exchange-Correlation Energy =       0.0000000000000000
    Empirical Dispersion Energy =           0.0000000000000000
    PCM Polarization Energy =               0.0000000000000000
    EFP Energy =                            0.0000000000000000
    Total Energy =                        -37.9718604203155152

    Alert: EFP and PCM quantities not currently incorporated into SCF psivars.

Properties will be evaluated at   0.000000,   0.000000,   0.000000 Bohr
  ==> Properties <==


Properties computed using the SCF density matrix

  Nuclear Dipole Moment: (a.u.)
     X:     0.0000      Y:     0.0000      Z:     1.1231

  Electronic Dipole Moment: (a.u.)
     X:     0.0000      Y:     0.0000      Z:    -1.6265

  Dipole Moment: (a.u.)
     X:     0.0000      Y:     0.0000      Z:    -0.5034     Total:     0.5034

  Dipole Moment: (Debye)
     X:     0.0000      Y:     0.0000      Z:    -1.2794     Total:     1.2794


  Saving occupied orbitals to File 180.

*** tstop() called on Jeffs-MacBook-Pro.local at Sat Oct  3 22:12:46 2015
Module time:
	user time   =       0.29 seconds =       0.00 minutes
	system time =       0.02 seconds =       0.00 minutes
	total time  =          0 seconds =       0.00 minutes
Total time:
	user time   =       0.29 seconds =       0.00 minutes
	system time =       0.02 seconds =       0.00 minutes
	total time  =          0 seconds =       0.00 minutes
Reading options from the FORTE block
Calling plugin /Users/jeffschriber/Source/forte/forte.so.


  ==> MO Space Information <==

  -------------------------------------------------
                       A1    A2    B1    B2   Sum
  -------------------------------------------------
    FROZEN_DOCC         0     0     0     0     0
    RESTRICTED_DOCC     0     0     0     0     0
    ACTIVE              8     0     4     2    14
    RESTRICTED_UOCC     0     0     0     0     0
    FROZEN_UOCC         0     0     0     0     0
    Total               8     0     4     2    14
  -------------------------------------------------

  ==> Integral Transformation <==

  Number of molecular orbitals:               14
  Number of correlated molecular orbitals:    14
  Number of frozen occupied orbitals:          0
  Number of frozen unoccupied orbitals:        0


 Overall Conventional Integrals timings	Presorting SO-basis two-electron integrals.
	Sorting File: SO Ints (nn|nn) nbuckets = 1
	Transforming the one-electron integrals and constructing Fock matrices
	Starting first half-transformation.
	Sorting half-transformed integrals.
	First half integral transformation complete.
	Starting second half-transformation.
	Two-electron integral transformation complete.

  Integral transformation done. 0.00817000 s
  Reading the two-electron integrals from disk
  Size of two-electron integrals:   0.000859 GB
 Conventional integrals take 0.01023600 s
  Total electrons: 8
  Number of active electrons: 8
  nalpha: 4
  nbeta:  4 

  There are 0 frozen orbitals.
  There are 14 active orbitals.
  Using ROHF reference.

  Electron removed from 2, out of 8
  Need orbital of symmetry 0
  Added electron to 2
  The reference determinant is:

  |1110000010000011100000100000>
  The reference energy is -38.78581106

  ==> Calculation Information <==

  ----------------------------------------------------
    Symmetry                                       0
    Number of roots                                1
    Root used for properties                       0
    P-threshold                             7.00e-02
    Q-threshold                             7.00e-02
    Convergence threshold                   1.00e-11
    Determinant selection criterion         Second-order Energy
    Selection criterion                     Aimed selection
    PQ Function                             AVERAGE
    Q Type                                  Absolute Energy
    PT2 Parameters                          False
  ----------------------------------------------------

  Iterative Adaptive CI
  The model space contains 1 determinants

  ==> Cycle 0 <==

  Initial P space dimension: 1
 Not checking for spin-completeness.
  Time spent diagonalizing H using Full: 0.000008 s
  Average spin contamination (0.00000) is less than tolerance (0.01000)
  No need to perform spin projection.

    P-space  CI Energy Root   1        = -38.785811055117 Eh =   0.0000 eV

  Dimension of the SD space: 770 determinants
  Time spent building the model space: 0.000327 s

  Using non-perturbative energy estimates
  Dimension of the P + Q space: 28 determinants
  Time spent screening the model space: 0.001833 s

  Davidson-liu sparse algorithm
  Building H using OpenMP-take2
  The sparse Hamiltonian matrix contains 374 nonzero elements out of 784 (0.477041)
  Time spent building H (openmp): 0.000206 s
  The Davidson-Liu algorithm converged in 10 iterations.
  Time spent diagonalizing H: 0.000138 s
 Average spin contamination (0.00846) is less than tolerance (0.01000)
 No need to perform spin projection.

    PQ-space CI Energy Root   1        = -38.903971339137 Eh =   0.0000 eV
    PQ-space CI Energy + EPT2 Root   1 = -38.972781461523 Eh =   0.0000 eV
AIMED SELECTION

  Most important contributions to root   0:
    0  -0.947053 0.896908724           0 |11100000100000|11100000100000>
    1   0.159985 0.025595224          27 |11100000010000|11100000100000>
    2   0.159985 0.025595224          26 |11100000100000|11100000010000>
    3   0.094943 0.009014115          22 |11000000100010|11000000100010>
    4   0.081837 0.006697227          24 |11100000001000|11100000100000>
    5   0.081837 0.006697227          25 |11100000100000|11100000001000>
    6  -0.062741 0.003936461          20 |11100000100000|10110000100000>
    7  -0.062741 0.003936461          21 |10110000100000|11100000100000>
    8   0.057627 0.003320900          19 |11001000100000|11001000100000>
    9   0.051359 0.002637699          18 |10100000100010|10100000100010>

 Spin state for root 0: S^2 = 0.008, S = 0.008, singlet (from 28 determinants, 100.00)

  ==> Cycle 1 <==

  Initial P space dimension: 3
 Not checking for spin-completeness.
  Time spent diagonalizing H using Full: 0.000007 s
  Average spin contamination (0.00000) is less than tolerance (0.01000)
  No need to perform spin projection.

    P-space  CI Energy Root   1        = -38.837485465256 Eh =   0.0000 eV

  Dimension of the SD space: 1764 determinants
  Time spent building the model space: 0.000792 s

  Using non-perturbative energy estimates
  Dimension of the P + Q space: 23 determinants
  Time spent screening the model space: 0.004142 s

  Davidson-liu sparse algorithm
  Building H using OpenMP-take2
  The sparse Hamiltonian matrix contains 269 nonzero elements out of 529 (0.508507)
  Time spent building H (openmp): 0.000157 s
  The Davidson-Liu algorithm converged in 10 iterations.
  Time spent diagonalizing H: 0.000106 s
  Average spin contamination per root is 0.03978
  Performing spin projection...
  Number of CSFs: 13
  Time spent performing spin transformation: 0.000071
  Using full algorithm

    PQ-space CI Energy Root   1        = -38.893283747776 Eh =   0.0000 eV
    PQ-space CI Energy + EPT2 Root   1 = -38.962172189030 Eh =   0.0000 eV
AIMED SELECTION

  Most important contributions to root   0:
    0   0.948328 0.899326336           2 |11100000100000|11100000100000>
    1  -0.168298 0.028324114           1 |11100000010000|11100000100000>
    2  -0.168298 0.028324114           0 |11100000100000|11100000010000>
    3  -0.096376 0.009288369          15 |11000000100010|11000000100010>
    4  -0.081872 0.006703079          21 |11100000100000|11100000001000>
    5  -0.081872 0.006703079          20 |11100000001000|11100000100000>
    6   0.061848 0.003825156          17 |10110000100000|11100000100000>
    7   0.061848 0.003825156          16 |11100000100000|10110000100000>
    8  -0.059778 0.003573460          19 |11001000100000|11001000100000>
    9  -0.051113 0.002612541          18 |10100000100010|10100000100010>

 Spin state for root 0: S^2 = 0.000, S = 0.000, singlet (from 23 determinants, 100.00)

  ==> Cycle 2 <==

  Initial P space dimension: 3
 Not checking for spin-completeness.
  Time spent diagonalizing H using Full: 0.000005 s
  Average spin contamination (0.00000) is less than tolerance (0.01000)
  No need to perform spin projection.

    P-space  CI Energy Root   1        = -38.837485465256 Eh =   0.0000 eV

  Dimension of the SD space: 1764 determinants
  Time spent building the model space: 0.000998 s

  Using non-perturbative energy estimates
  Dimension of the P + Q space: 23 determinants
  Time spent screening the model space: 0.004342 s

  Davidson-liu sparse algorithm
  Building H using OpenMP-take2
  The sparse Hamiltonian matrix contains 269 nonzero elements out of 529 (0.508507)
  Time spent building H (openmp): 0.000160 s
  The Davidson-Liu algorithm converged in 10 iterations.
  Time spent diagonalizing H: 0.000110 s
  Average spin contamination per root is 0.03978
  Performing spin projection...
  Number of CSFs: 13
  Time spent performing spin transformation: 0.000055
  Using full algorithm

    PQ-space CI Energy Root   1        = -38.893283747776 Eh =   0.0000 eV
    PQ-space CI Energy + EPT2 Root   1 = -38.962172189030 Eh =   0.0000 eV


  ==> Post-Iterations <==

  Not performing spin projection.
  Printing Wavefunction Information

  Most important contributions to root   0:
    0   0.948328 0.899326336           2 |11100000100000|11100000100000>
    1  -0.168298 0.028324114           1 |11100000010000|11100000100000>
    2  -0.168298 0.028324114           0 |11100000100000|11100000010000>
    3  -0.096376 0.009288369          15 |11000000100010|11000000100010>
    4  -0.081872 0.006703079          21 |11100000100000|11100000001000>
    5  -0.081872 0.006703079          20 |11100000001000|11100000100000>
    6   0.061848 0.003825156          17 |10110000100000|11100000100000>
    7   0.061848 0.003825156          16 |11100000100000|10110000100000>
    8  -0.059778 0.003573460          19 |11001000100000|11001000100000>
    9  -0.051113 0.002612541          18 |10100000100010|10100000100010>

 Spin state for root 0: S^2 = 0.000, S = 0.000, singlet (from 23 determinants, 100.00)

     Order		 # of Dets        Total |c^2|   
  __________ 	____________   ________________ 
      0			       6		0.94031833015
      1			      17		0.05968166985

 Highest-order excitation searched:     6  

  * Adaptive-CI Energy Root   1        = -38.893283747776 Eh =   0.0000 eV
  * Adaptive-CI Energy Root   1 + EPT2 = -38.962172189030 Eh =   0.0000 eV

  Adaptive-CI (bitset) ran in : 0.015478 s

  Saving information for root: 1
 Your calculation took 0.08126400 seconds
*** PSI4 exiting successfully. Buy a developer a beer!
