
    -----------------------------------------------------------------------
          Psi4: An Open-Source Ab Initio Electronic Structure Package
                               Psi4 undefined 

                         Git: Rev {HEAD} f016cba 


    D. G. A. Smith, L. A. Burns, A. C. Simmonett, R. M. Parrish,
    M. C. Schieber, R. Galvelis, P. Kraus, H. Kruse, R. Di Remigio,
    A. Alenaizan, A. M. James, S. Lehtola, J. P. Misiewicz, M. Scheurer,
    R. A. Shaw, J. B. Schriber, Y. Xie, Z. L. Glick, D. A. Sirianni,
    J. S. O'Brien, J. M. Waldrop, A. Kumar, E. G. Hohenstein,
    B. P. Pritchard, B. R. Brooks, H. F. Schaefer III, A. Yu. Sokolov,
    K. Patkowski, A. E. DePrince III, U. Bozkaya, R. A. King,
    F. A. Evangelista, J. M. Turney, T. D. Crawford, C. D. Sherrill,
    J. Chem. Phys. 152(18) 184108 (2020). https://doi.org/10.1063/5.0006002

                            Additional Code Authors
    E. T. Seidl, C. L. Janssen, E. F. Valeev, M. L. Leininger,
    J. F. Gonthier, R. M. Richard, H. R. McAlexander, M. Saitow, X. Wang,
    P. Verma, M. H. Lechner, and A. Jiang

             Previous Authors, Complete List of Code Contributors,
                       and Citations for Specific Modules
    https://github.com/psi4/psi4/blob/master/codemeta.json
    https://github.com/psi4/psi4/graphs/contributors
    http://psicode.org/psi4manual/master/introduction.html#citing-psifour

    -----------------------------------------------------------------------


    Psi4 started on: Monday, 17 January 2022 01:03AM

    Process ID: 27823
    Host:       Yorks-Mac.local
    PSIDATADIR: /Users/york/src/psi4new/psi4/share/psi4
    Memory:     500.0 MiB
    Threads:    1
    
  ==> Input File <==

--------------------------------------------------------------------------
# SA-DMRG-SCF(8e,9o) on water

import forte
ref_1A1 = -76.093220338666
ref_2A1 = -75.709001355141
ref_1A2 = -75.741268753755
ref_1B1 = -75.655824601687

molecule H2O {
0 1
O   0.000000000   0.00   0.000000000
H   0.790689766   0.00   0.612217330
H  -0.790689766   0.00   0.612217330
units angstrom
}

set {
basis          cc-pvdz
reference      rhf
scf_type       direct
e_convergence  1e-12
d_convergence  1e-8
ints_tolerance 0.0
}

set forte{
job_type                  mcscf_two_step
casscf_ci_solver          dmrg
avg_state                 [[0,1,2], [1,1,1], [2,1,1]]
restricted_docc           [    1,    0,    0,    0 ]
active                    [    3,    0,    4,    2 ]
dmrg_sweep_states         [  200,  500, 1000, 1000 ]
dmrg_sweep_energy_conv    [ 1e-8, 1e-8, 1e-8, 1e-8 ]
dmrg_sweep_max_sweeps     [    5,    5,    5,  100 ]
dmrg_sweep_noise_prefac   [ 0.03, 0.03, 0.03,  0.0 ]
dmrg_sweep_dvdson_rtol    [ 1e-6, 1e-6, 1e-6, 1e-6 ]
}

dmrgscf = energy('forte')
#psi4.core.print_variables()
compare_values(ref_1A1, variable("ENERGY ROOT 0 1A1"), 7, "DMRG-SCF Energy on Root 0 of Singlet A1 State")
compare_values(ref_2A1, variable("ENERGY ROOT 1 1A1"), 7, "DMRG-SCF Energy on Root 1 of Singlet A1 State")
compare_values(ref_1A2, variable("ENERGY ROOT 0 1A2"), 7, "DMRG-SCF Energy on Root 0 of Singlet A2 State")
compare_values(ref_1B1, variable("ENERGY ROOT 0 1B1"), 7, "DMRG-SCF Energy on Root 0 of Singlet B1 State")
--------------------------------------------------------------------------

Scratch directory: /Users/york/scratch/psi4/

 Data is an array -> call again
 Data is an array -> call again
 Data is an array -> call again
  Forte
  ----------------------------------------------------------------------------
  A suite of quantum chemistry methods for strongly correlated electrons

    git branch: dmrg-york - git commit: efc3d7bd

  Developed by:
    Francesco A. Evangelista, Chenyang Li, Kevin P. Hannon,
    Jeffrey B. Schriber, Tianyuan Zhang, Chenxi Cai,
    Nan He, Nicholas Stair, Shuhe Wang, Renke Huang
  ----------------------------------------------------------------------------

  Size of Determinant class: 128 bits

  Preparing forte objects from a Psi4 Wavefunction object
  No reference wave function provided for Forte. Computing SCF orbitals using Psi4 ...

*** tstart() called on Yorks-Mac.local
*** at Mon Jan 17 01:03:24 2022

   => Loading Basis Set <=

    Name: CC-PVDZ
    Role: ORBITAL
    Keyword: BASIS
    atoms 1   entry O          line   198 file /Users/york/src/psi4new/psi4/share/psi4/basis/cc-pvdz.gbs 
    atoms 2-3 entry H          line    22 file /Users/york/src/psi4new/psi4/share/psi4/basis/cc-pvdz.gbs 


         ---------------------------------------------------------
                                   SCF
               by Justin Turney, Rob Parrish, Andy Simmonett
                          and Daniel G. A. Smith
                              RHF Reference
                        1 Threads,    500 MiB Core
         ---------------------------------------------------------

  ==> Geometry <==

    Molecular point group: c2v
    Full point group: C2v

    Geometry (in Angstrom), charge = 0, multiplicity = 1:

       Center              X                  Y                   Z               Mass       
    ------------   -----------------  -----------------  -----------------  -----------------
         O            0.000000000000     0.000000000000    -0.068516224912    15.994914619570
         H            0.790689766000     0.000000000000     0.543701105088     1.007825032230
         H           -0.790689766000    -0.000000000000     0.543701105088     1.007825032230

  Running in c2v symmetry.

  Rotational constants: A =     25.12555  B =     13.37732  C =      8.72954 [cm^-1]
  Rotational constants: A = 753244.94854  B = 401041.97204  C = 261705.15684 [MHz]
  Nuclear repulsion =    8.801463937118291

  Charge       = 0
  Multiplicity = 1
  Electrons    = 10
  Nalpha       = 5
  Nbeta        = 5

  ==> Algorithm <==

  SCF Algorithm Type is DIRECT.
  DIIS enabled.
  MOM disabled.
  Fractional occupation disabled.
  Guess Type is SAD.
  Energy threshold   = 1.00e-12
  Density threshold  = 1.00e-08
  Integral threshold = 0.00e+00

  ==> Primary Basis <==

  Basis Set: CC-PVDZ
    Blend: CC-PVDZ
    Number of shells: 12
    Number of basis functions: 24
    Number of Cartesian functions: 25
    Spherical Harmonics?: true
    Max angular momentum: 2

   => Loading Basis Set <=

    Name: (CC-PVDZ AUX)
    Role: JKFIT
    Keyword: DF_BASIS_SCF
    atoms 1   entry O          line   221 file /Users/york/src/psi4new/psi4/share/psi4/basis/cc-pvdz-jkfit.gbs 
    atoms 2-3 entry H          line    51 file /Users/york/src/psi4new/psi4/share/psi4/basis/cc-pvdz-jkfit.gbs 

  Starting with a DF guess...

  ==> Integral Setup <==

  DFHelper Memory: AOs need 0.001 GiB; user supplied 0.366 GiB. Using in-core AOs.

  ==> MemDFJK: Density-Fitted J/K Matrices <==

    J tasked:                   Yes
    K tasked:                   Yes
    wK tasked:                   No
    OpenMP threads:               1
    Memory [MiB]:               375
    Algorithm:                 Core
    Schwarz Cutoff:           0E+00
    Mask sparsity (%):       0.0000
    Fitting Condition:        1E-10

   => Auxiliary Basis Set <=

  Basis Set: (CC-PVDZ AUX)
    Blend: CC-PVDZ-JKFIT
    Number of shells: 42
    Number of basis functions: 116
    Number of Cartesian functions: 131
    Spherical Harmonics?: true
    Max angular momentum: 3

  Minimum eigenvalue in the overlap matrix is 3.5782946599E-02.
  Reciprocal condition number of the overlap matrix is 1.1524666283E-02.
    Using symmetric orthogonalization.

  ==> Pre-Iterations <==

  SCF Guess: Superposition of Atomic Densities via on-the-fly atomic UHF (no occupation information).

   -------------------------
    Irrep   Nso     Nmo    
   -------------------------
     A1        11      11 
     A2         2       2 
     B1         7       7 
     B2         4       4 
   -------------------------
    Total      24      24
   -------------------------

  ==> Iterations <==

                           Total Energy        Delta E     RMS |[F,P]|

   @DF-RHF iter SAD:   -75.45137216481574   -7.54514e+01   0.00000e+00 
   @DF-RHF iter   1:   -75.94580094160710   -4.94429e-01   3.03025e-02 DIIS
   @DF-RHF iter   2:   -75.99964862373015   -5.38477e-02   1.81940e-02 DIIS
   @DF-RHF iter   3:   -76.02091627032485   -2.12676e-02   1.67012e-03 DIIS
   @DF-RHF iter   4:   -76.02136937397435   -4.53104e-04   4.20110e-04 DIIS
   @DF-RHF iter   5:   -76.02139620073667   -2.68268e-05   7.52795e-05 DIIS
   @DF-RHF iter   6:   -76.02139739512371   -1.19439e-06   1.16774e-05 DIIS
   @DF-RHF iter   7:   -76.02139742678243   -3.16587e-08   1.86515e-06 DIIS
   @DF-RHF iter   8:   -76.02139742769012   -9.07690e-10   4.57981e-07 DIIS
   @DF-RHF iter   9:   -76.02139742775216   -6.20446e-11   7.24940e-08 DIIS
   @DF-RHF iter  10:   -76.02139742775348   -1.32161e-12   6.28035e-09 DIIS
   @DF-RHF iter  11:   -76.02139742775346    2.84217e-14   1.03626e-09 DIIS

  DF guess converged.

  ==> DirectJK: Integral-Direct J/K Matrices <==

    J tasked:                  Yes
    K tasked:                  Yes
    wK tasked:                  No
    Integrals threads:           1
    Screening Type:           CSAM
    Screening Cutoff:        0E+00
    Incremental Fock:           No

   @RHF iter  12:   -76.02141839534082   -7.60214e+01   1.26595e-05 DIIS
   @RHF iter  13:   -76.02141840860727   -1.32665e-08   2.00575e-06 DIIS
   @RHF iter  14:   -76.02141840900961   -4.02338e-10   4.20326e-07 DIIS
   @RHF iter  15:   -76.02141840902483   -1.52198e-11   1.34677e-07 DIIS
   @RHF iter  16:   -76.02141840902654   -1.70530e-12   4.82097e-08 DIIS
   @RHF iter  17:   -76.02141840902667   -1.27898e-13   4.68464e-09 DIIS
  Energy and wave function converged.


  ==> Post-Iterations <==

    Orbital Energies [Eh]
    ---------------------

    Doubly Occupied:                                                      

       1A1   -20.557846     2A1    -1.316180     1B1    -0.677073  
       3A1    -0.558726     1B2    -0.490383  

    Virtual:                                                              

       4A1     0.178011     2B1     0.249490     3B1     0.760274  
       5A1     0.816118     6A1     1.166182     2B2     1.198611  
       4B1     1.256467     7A1     1.452518     1A2     1.466082  
       3B2     1.667951     8A1     1.877149     5B1     1.889827  
       6B1     2.354901     9A1     2.388286     4B2     3.248785  
       2A2     3.297833    10A1     3.453879    11A1     3.821364  
       7B1     4.099041  

    Final Occupation by Irrep:
             A1    A2    B1    B2 
    DOCC [     3,    0,    1,    1 ]

  @RHF Final Energy:   -76.02141840902667

   => Energetics <=

    Nuclear Repulsion Energy =              8.8014639371182906
    One-Electron Energy =                -122.4453487519649144
    Two-Electron Energy =                  37.6224664058199565
    Total Energy =                        -76.0214184090266656

Computation Completed


Properties will be evaluated at   0.000000,   0.000000,   0.000000 [a0]

Properties computed using the SCF density matrix

  Nuclear Dipole Moment: [e a0]
     X:     0.0000      Y:     0.0000      Z:     1.0191

  Electronic Dipole Moment: [e a0]
     X:     0.0000      Y:     0.0000      Z:    -0.1947

  Dipole Moment: [e a0]
     X:     0.0000      Y:     0.0000      Z:     0.8244     Total:     0.8244

  Dipole Moment: [D]
     X:     0.0000      Y:     0.0000      Z:     2.0955     Total:     2.0955


*** tstop() called on Yorks-Mac.local at Mon Jan 17 01:03:25 2022
Module time:
	user time   =       0.79 seconds =       0.01 minutes
	system time =       0.04 seconds =       0.00 minutes
	total time  =          1 seconds =       0.02 minutes
Total time:
	user time   =       0.79 seconds =       0.01 minutes
	system time =       0.04 seconds =       0.00 minutes
	total time  =          1 seconds =       0.02 minutes

  Read options for space RESTRICTED_DOCC
  Read options for space ACTIVE
  Read options for space RESTRICTED_DOCC

  ==> MO Space Information <==

  -------------------------------------------------
                       A1    A2    B1    B2   Sum
  -------------------------------------------------
    FROZEN_DOCC         0     0     0     0     0
    RESTRICTED_DOCC     1     0     0     0     1
    GAS1                3     0     4     2     9
    GAS2                0     0     0     0     0
    GAS3                0     0     0     0     0
    GAS4                0     0     0     0     0
    GAS5                0     0     0     0     0
    GAS6                0     0     0     0     0
    RESTRICTED_UOCC     7     2     3     2    14
    FROZEN_UOCC         0     0     0     0     0
    Total              11     2     7     4    24
  -------------------------------------------------   => Loading Basis Set <=

    Name: STO-3G
    Role: ORBITAL
    Keyword: MINAO_BASIS
    atoms 1   entry O          line    81 file /Users/york/src/psi4new/psi4/share/psi4/basis/sto-3g.gbs 
    atoms 2-3 entry H          line    19 file /Users/york/src/psi4new/psi4/share/psi4/basis/sto-3g.gbs 


  Forte will use psi4 integrals

  ==> Primary Basis Set Summary <==

  Basis Set: CC-PVDZ
    Blend: CC-PVDZ
    Number of shells: 12
    Number of basis functions: 24
    Number of Cartesian functions: 25
    Spherical Harmonics?: true
    Max angular momentum: 2


  JK created using conventional PK integrals
  Using in-core PK algorithm.
   Calculation information:
      Number of atoms:                   3
      Number of AO shells:              12
      Number of primitives:             32
      Number of atomic orbitals:        25
      Number of basis functions:        24

      Integral cutoff                 0.00e+00
      Number of threads:                 1

  Performing in-core PK
  Using 90300 doubles for integral storage.
  We computed 3081 shell quartets total.
  Whereas there are 3081 unique shell quartets.

  ==> DiskJK: Disk-Based J/K Matrices <==

    J tasked:                  Yes
    K tasked:                  Yes
    wK tasked:                  No
    Memory [MiB]:              400
    Schwarz Cutoff:          0E+00

    OpenMP threads:              1



  ==> Integral Transformation <==

  Number of molecular orbitals:                         24
  Number of correlated molecular orbitals:              24
  Number of frozen occupied orbitals:                    0
  Number of frozen unoccupied orbitals:                  0
  Two-electron integral type:                 Conventional


  Skip integral allocation and transformation for AO-driven CASSCF.

          -----------------------------------------------------------
                  Multi-Configurational Self Consistent Field
                Two-Step Approximate Second-Order AO Algorithm
            written by Chenyang Li, Kevin P. Hannon, and Shuhe Wang
          -----------------------------------------------------------


  ==> Calculation Information <==

    Integral type                               CONVENTIONAL
    CI solver type                                      DMRG
    Final orbital type                             CANONICAL
    Derivative type                                     NONE
    Optimize orbitals                                   TRUE
    Include internal rotations                         FALSE
    Debug printing                                     FALSE
    Energy convergence                             1.000e-08
    Gradient convergence                           1.000e-07
    Max value for rotation                         2.000e-01
    Printing level                                         1
    Max number of macro iterations                       100
    Max number of micro iterations                        40
    Min number of micro iterations                         6
    DIIS start                                            15
    Min DIIS vectors                                       3
    Max DIIS vectors                                       8
    Frequency of DIIS extrapolation                        1


  ==> Independent Orbital Rotations <==

    ORBITAL SPACES                        A1     A2     B1     B2
    -------------------------------------------------------------
             ACTIVE / RESTRICTED_DOCC      3      0      0      0
    RESTRICTED_UOCC /          ACTIVE     21      0     12      4
    RESTRICTED_UOCC / RESTRICTED_DOCC      7      0      0      0
    -------------------------------------------------------------

  ==> Summary of Active Space Solver Input <==

    Irrep.  Multi.(2ms)      N
    --------------------------
       A1      1  (  0)      2
       A2      1  (  0)      1
       B1      1  (  0)      1
    --------------------------
    N: number of roots
    ms: spin z component
    Total number of roots:   4
    --------------------------


                    ----------------------------------------
                      Density Matrix Renormalization Group
                               Sebastian Wouters
                    ----------------------------------------
MPS files will be dumped to "/Users/york/src/forte/tests/methods/dmrgscf-2/1A1_CAS9"

   CheMPS2: a spin-adapted implementation of DMRG for ab initio quantum chemistry
   Copyright (C) 2013-2021 Sebastian Wouters

   This program is free software; you can redistribute it and/or modify
   it under the terms of the GNU General Public License as published by
   the Free Software Foundation; either version 2 of the License, or
   (at your option) any later version.

   This program is distributed in the hope that it will be useful,
   but WITHOUT ANY WARRANTY; without even the implied warranty of
   MERCHANTABILITY or FITNESS FOR A PARTICULAR PURPOSE.  See the
   GNU General Public License for more details.

   You should have received a copy of the GNU General Public License along
   with this program; if not, write to the Free Software Foundation, Inc.,
   51 Franklin Street, Fifth Floor, Boston, MA 02110-1301 USA.


  ==> Computing Energy for Singlet (Ms = 0) A1 <==

   Stats: nIt(DAVIDSON) = 11
Energy at sites (7, 8) is -71.9452634921685
   Stats: nIt(DAVIDSON) = 14
Energy at sites (6, 7) is -73.2477342604474
   Stats: nIt(DAVIDSON) = 16
Energy at sites (5, 6) is -74.619553324808
   Stats: nIt(DAVIDSON) = 21
Energy at sites (4, 5) is -76.0784263954389
   Stats: nIt(DAVIDSON) = 1
Energy at sites (3, 4) is -76.0784263954389
   Stats: nIt(DAVIDSON) = 1
Energy at sites (2, 3) is -76.0784263954389
   Stats: nIt(DAVIDSON) = 1
Energy at sites (1, 2) is -76.0784263954389
******************************************************************
***  Information on left sweep 0 of instruction 0:
***     Elapsed wall time        = 0.282485 seconds
***       |--> S.join            = 0.000223 seconds
***       |--> S.solve           = 0.259564 seconds
***       |--> S.split           = 0.000626 seconds
***       |--> Tensor update     = 0.02193 seconds
***              |--> create     = 0.001453 seconds
***              |--> destroy    = 0.00041 seconds
***              |--> disk write = 0.009602 seconds
***              |--> disk read  = 0.007088 seconds
***              |--> calc       = 0.003368 seconds
***     Disk write bandwidth     = 58.9367152005279 MB/s
***     Disk read  bandwidth     = 80.2130516172801 MB/s
***     Minimum energy           = -76.0784263954389
***     Maximum discarded weight = 0
******************************************************************
   Stats: nIt(DAVIDSON) = 1
Energy at sites (0, 1) is -76.0784263954389
   Stats: nIt(DAVIDSON) = 1
Energy at sites (1, 2) is -76.0784263954389
   Stats: nIt(DAVIDSON) = 1
Energy at sites (2, 3) is -76.0784263954389
   Stats: nIt(DAVIDSON) = 1
Energy at sites (3, 4) is -76.0784263954389
   Stats: nIt(DAVIDSON) = 1
Energy at sites (4, 5) is -76.0784263954389
   Stats: nIt(DAVIDSON) = 1
Energy at sites (5, 6) is -76.0784263954389
   Stats: nIt(DAVIDSON) = 1
Energy at sites (6, 7) is -76.0784263954389
******************************************************************
***  Information on right sweep 0 of instruction 0:
***     Elapsed wall time        = 0.044208 seconds
***       |--> S.join            = 0.000263 seconds
***       |--> S.solve           = 0.020578 seconds
***       |--> S.split           = 0.000603 seconds
***       |--> Tensor update     = 0.022668 seconds
***              |--> create     = 0.001463 seconds
***              |--> destroy    = 0.000458 seconds
***              |--> disk write = 0.009527 seconds
***              |--> disk read  = 0.00733 seconds
***              |--> calc       = 0.003876 seconds
***     Disk write bandwidth     = 59.6777694828678 MB/s
***     Disk read  bandwidth     = 77.2046847688225 MB/s
***     Minimum energy           = -76.0784263954389
***     Maximum discarded weight = 0
***     Energy difference with respect to previous leftright sweep = 76.0784263954389
******************************************************************
   Stats: nIt(DAVIDSON) = 1
Energy at sites (7, 8) is -76.0784263954389
   Stats: nIt(DAVIDSON) = 1
Energy at sites (6, 7) is -76.0784263954389
   Stats: nIt(DAVIDSON) = 1
Energy at sites (5, 6) is -76.0784263954389
   Stats: nIt(DAVIDSON) = 1
Energy at sites (4, 5) is -76.0784263954389
   Stats: nIt(DAVIDSON) = 1
Energy at sites (3, 4) is -76.078426395439
   Stats: nIt(DAVIDSON) = 1
Energy at sites (2, 3) is -76.0784263954389
   Stats: nIt(DAVIDSON) = 1
Energy at sites (1, 2) is -76.0784263954389
******************************************************************
***  Information on left sweep 1 of instruction 0:
***     Elapsed wall time        = 0.041079 seconds
***       |--> S.join            = 0.000216 seconds
***       |--> S.solve           = 0.020281 seconds
***       |--> S.split           = 0.000597 seconds
***       |--> Tensor update     = 0.019886 seconds
***              |--> create     = 0.001195 seconds
***              |--> destroy    = 0.000379 seconds
***              |--> disk write = 0.007801 seconds
***              |--> disk read  = 0.006775 seconds
***              |--> calc       = 0.003727 seconds
***     Disk write bandwidth     = 72.5433071856773 MB/s
***     Disk read  bandwidth     = 83.9188354041744 MB/s
***     Minimum energy           = -76.078426395439
***     Maximum discarded weight = 0
******************************************************************
   Stats: nIt(DAVIDSON) = 1
Energy at sites (0, 1) is -76.0784263954389
   Stats: nIt(DAVIDSON) = 1
Energy at sites (1, 2) is -76.0784263954389
   Stats: nIt(DAVIDSON) = 1
Energy at sites (2, 3) is -76.0784263954389
   Stats: nIt(DAVIDSON) = 1
Energy at sites (3, 4) is -76.078426395439
   Stats: nIt(DAVIDSON) = 1
Energy at sites (4, 5) is -76.0784263954389
   Stats: nIt(DAVIDSON) = 1
Energy at sites (5, 6) is -76.078426395439
   Stats: nIt(DAVIDSON) = 1
Energy at sites (6, 7) is -76.078426395439
******************************************************************
***  Information on right sweep 1 of instruction 0:
***     Elapsed wall time        = 0.040602 seconds
***       |--> S.join            = 0.000207 seconds
***       |--> S.solve           = 0.020382 seconds
***       |--> S.split           = 0.00059 seconds
***       |--> Tensor update     = 0.019356 seconds
***              |--> create     = 0.001238 seconds
***              |--> destroy    = 0.000436 seconds
***              |--> disk write = 0.007473 seconds
***              |--> disk read  = 0.006254 seconds
***              |--> calc       = 0.003945 seconds
***     Disk write bandwidth     = 76.0805713720435 MB/s
***     Disk read  bandwidth     = 90.4877421419042 MB/s
***     Minimum energy           = -76.078426395439
***     Maximum discarded weight = 0
***     Energy difference with respect to previous leftright sweep = 2.8421709430404e-14
******************************************************************
***  Information on completed instruction 0:
***     The reduced virtual dimension DSU(2)               = 200
***     The total number of reduced MPS variables          = 2565
***     Minimum energy encountered during all instructions = -76.078426395439
***     Minimum energy encountered during the last sweep   = -76.078426395439
***     Maximum discarded weight during the last sweep     = 0
******************************************************************
   Stats: nIt(DAVIDSON) = 1
Energy at sites (7, 8) is -76.078426395439
   Stats: nIt(DAVIDSON) = 1
Energy at sites (6, 7) is -76.078426395439
   Stats: nIt(DAVIDSON) = 1
Energy at sites (5, 6) is -76.0784263954389
   Stats: nIt(DAVIDSON) = 1
Energy at sites (4, 5) is -76.0784263954389
   Stats: nIt(DAVIDSON) = 1
Energy at sites (3, 4) is -76.078426395439
   Stats: nIt(DAVIDSON) = 1
Energy at sites (2, 3) is -76.0784263954389
   Stats: nIt(DAVIDSON) = 1
Energy at sites (1, 2) is -76.0784263954389
******************************************************************
***  Information on left sweep 0 of instruction 1:
***     Elapsed wall time        = 0.041031 seconds
***       |--> S.join            = 0.000222 seconds
***       |--> S.solve           = 0.02032 seconds
***       |--> S.split           = 0.000619 seconds
***       |--> Tensor update     = 0.019801 seconds
***              |--> create     = 0.001223 seconds
***              |--> destroy    = 0.000415 seconds
***              |--> disk write = 0.008568 seconds
***              |--> disk read  = 0.006448 seconds
***              |--> calc       = 0.003138 seconds
***     Disk write bandwidth     = 66.0492926418614 MB/s
***     Disk read  bandwidth     = 88.1746448299134 MB/s
***     Minimum energy           = -76.078426395439
***     Maximum discarded weight = 0
******************************************************************
   Stats: nIt(DAVIDSON) = 1
Energy at sites (0, 1) is -76.0784263954389
   Stats: nIt(DAVIDSON) = 1
Energy at sites (1, 2) is -76.0784263954389
   Stats: nIt(DAVIDSON) = 1
Energy at sites (2, 3) is -76.0784263954389
   Stats: nIt(DAVIDSON) = 1
Energy at sites (3, 4) is -76.078426395439
   Stats: nIt(DAVIDSON) = 1
Energy at sites (4, 5) is -76.0784263954389
   Stats: nIt(DAVIDSON) = 1
Energy at sites (5, 6) is -76.078426395439
   Stats: nIt(DAVIDSON) = 1
Energy at sites (6, 7) is -76.078426395439
******************************************************************
***  Information on right sweep 0 of instruction 1:
***     Elapsed wall time        = 0.040918 seconds
***       |--> S.join            = 0.000211 seconds
***       |--> S.solve           = 0.020406 seconds
***       |--> S.split           = 0.000706 seconds
***       |--> Tensor update     = 0.019503 seconds
***              |--> create     = 0.00134 seconds
***              |--> destroy    = 0.000409 seconds
***              |--> disk write = 0.007947 seconds
***              |--> disk read  = 0.006459 seconds
***              |--> calc       = 0.003337 seconds
***     Disk write bandwidth     = 71.5427343479654 MB/s
***     Disk read  bandwidth     = 87.6157825291018 MB/s
***     Minimum energy           = -76.078426395439
***     Maximum discarded weight = 0
***     Energy difference with respect to previous leftright sweep = 0
******************************************************************
***  Information on completed instruction 1:
***     The reduced virtual dimension DSU(2)               = 500
***     The total number of reduced MPS variables          = 2565
***     Minimum energy encountered during all instructions = -76.078426395439
***     Minimum energy encountered during the last sweep   = -76.078426395439
***     Maximum discarded weight during the last sweep     = 0
******************************************************************
   Stats: nIt(DAVIDSON) = 1
Energy at sites (7, 8) is -76.078426395439
   Stats: nIt(DAVIDSON) = 1
Energy at sites (6, 7) is -76.078426395439
   Stats: nIt(DAVIDSON) = 1
Energy at sites (5, 6) is -76.0784263954389
   Stats: nIt(DAVIDSON) = 1
Energy at sites (4, 5) is -76.0784263954389
   Stats: nIt(DAVIDSON) = 1
Energy at sites (3, 4) is -76.078426395439
   Stats: nIt(DAVIDSON) = 1
Energy at sites (2, 3) is -76.0784263954389
   Stats: nIt(DAVIDSON) = 1
Energy at sites (1, 2) is -76.0784263954389
******************************************************************
***  Information on left sweep 0 of instruction 2:
***     Elapsed wall time        = 0.039172 seconds
***       |--> S.join            = 0.00021 seconds
***       |--> S.solve           = 0.019901 seconds
***       |--> S.split           = 0.000578 seconds
***       |--> Tensor update     = 0.01842 seconds
***              |--> create     = 0.001181 seconds
***              |--> destroy    = 0.0004 seconds
***              |--> disk write = 0.007736 seconds
***              |--> disk read  = 0.006131 seconds
***              |--> calc       = 0.002962 seconds
***     Disk write bandwidth     = 73.1528360076873 MB/s
***     Disk read  bandwidth     = 92.7336665899986 MB/s
***     Minimum energy           = -76.078426395439
***     Maximum discarded weight = 0
******************************************************************
   Stats: nIt(DAVIDSON) = 1
Energy at sites (0, 1) is -76.0784263954389
   Stats: nIt(DAVIDSON) = 1
Energy at sites (1, 2) is -76.0784263954389
   Stats: nIt(DAVIDSON) = 1
Energy at sites (2, 3) is -76.0784263954389
   Stats: nIt(DAVIDSON) = 1
Energy at sites (3, 4) is -76.078426395439
   Stats: nIt(DAVIDSON) = 1
Energy at sites (4, 5) is -76.0784263954389
   Stats: nIt(DAVIDSON) = 1
Energy at sites (5, 6) is -76.0784263954389
   Stats: nIt(DAVIDSON) = 1
Energy at sites (6, 7) is -76.078426395439
******************************************************************
***  Information on right sweep 0 of instruction 2:
***     Elapsed wall time        = 0.039457 seconds
***       |--> S.join            = 0.000201 seconds
***       |--> S.solve           = 0.020122 seconds
***       |--> S.split           = 0.000571 seconds
***       |--> Tensor update     = 0.018492 seconds
***              |--> create     = 0.001189 seconds
***              |--> destroy    = 0.000378 seconds
***              |--> disk write = 0.007398 seconds
***              |--> disk read  = 0.006237 seconds
***              |--> calc       = 0.003279 seconds
***     Disk write bandwidth     = 76.8518667022548 MB/s
***     Disk read  bandwidth     = 90.734381811042 MB/s
***     Minimum energy           = -76.078426395439
***     Maximum discarded weight = 0
***     Energy difference with respect to previous leftright sweep = 0
******************************************************************
***  Information on completed instruction 2:
***     The reduced virtual dimension DSU(2)               = 1000
***     The total number of reduced MPS variables          = 2565
***     Minimum energy encountered during all instructions = -76.078426395439
***     Minimum energy encountered during the last sweep   = -76.078426395439
***     Maximum discarded weight during the last sweep     = 0
******************************************************************
   Stats: nIt(DAVIDSON) = 1
Energy at sites (7, 8) is -76.078426395439
   Stats: nIt(DAVIDSON) = 1
Energy at sites (6, 7) is -76.078426395439
   Stats: nIt(DAVIDSON) = 1
Energy at sites (5, 6) is -76.0784263954389
   Stats: nIt(DAVIDSON) = 1
Energy at sites (4, 5) is -76.0784263954389
   Stats: nIt(DAVIDSON) = 1
Energy at sites (3, 4) is -76.078426395439
   Stats: nIt(DAVIDSON) = 1
Energy at sites (2, 3) is -76.0784263954389
   Stats: nIt(DAVIDSON) = 1
Energy at sites (1, 2) is -76.0784263954389
******************************************************************
***  Information on left sweep 0 of instruction 3:
***     Elapsed wall time        = 0.039704 seconds
***       |--> S.join            = 0.000208 seconds
***       |--> S.solve           = 0.019921 seconds
***       |--> S.split           = 0.000565 seconds
***       |--> Tensor update     = 0.018947 seconds
***              |--> create     = 0.001167 seconds
***              |--> destroy    = 0.000388 seconds
***              |--> disk write = 0.007466 seconds
***              |--> disk read  = 0.006423 seconds
***              |--> calc       = 0.003496 seconds
***     Disk write bandwidth     = 75.7983310146623 MB/s
***     Disk read  bandwidth     = 88.5178436654649 MB/s
***     Minimum energy           = -76.078426395439
***     Maximum discarded weight = 0
******************************************************************
   Stats: nIt(DAVIDSON) = 1
Energy at sites (0, 1) is -76.0784263954389
   Stats: nIt(DAVIDSON) = 1
Energy at sites (1, 2) is -76.0784263954389
   Stats: nIt(DAVIDSON) = 1
Energy at sites (2, 3) is -76.0784263954389
   Stats: nIt(DAVIDSON) = 1
Energy at sites (3, 4) is -76.078426395439
   Stats: nIt(DAVIDSON) = 1
Energy at sites (4, 5) is -76.0784263954389
   Stats: nIt(DAVIDSON) = 1
Energy at sites (5, 6) is -76.0784263954389
   Stats: nIt(DAVIDSON) = 1
Energy at sites (6, 7) is -76.0784263954389
******************************************************************
***  Information on right sweep 0 of instruction 3:
***     Elapsed wall time        = 0.04106 seconds
***       |--> S.join            = 0.000208 seconds
***       |--> S.solve           = 0.020223 seconds
***       |--> S.split           = 0.000631 seconds
***       |--> Tensor update     = 0.019937 seconds
***              |--> create     = 0.001167 seconds
***              |--> destroy    = 0.000365 seconds
***              |--> disk write = 0.008024 seconds
***              |--> disk read  = 0.005935 seconds
***              |--> calc       = 0.004433 seconds
***     Disk write bandwidth     = 70.8561951474678 MB/s
***     Disk read  bandwidth     = 95.3513629916544 MB/s
***     Minimum energy           = -76.078426395439
***     Maximum discarded weight = 0
***     Energy difference with respect to previous leftright sweep = 1.4210854715202e-14
******************************************************************
***  Information on completed instruction 3:
***     The reduced virtual dimension DSU(2)               = 1000
***     The total number of reduced MPS variables          = 2565
***     Minimum energy encountered during all instructions = -76.078426395439
***     Minimum energy encountered during the last sweep   = -76.078426395439
***     Maximum discarded weight during the last sweep     = 0
******************************************************************

  ==> Computing Energy for Singlet (Ms = 0) A1 <==

   Stats: nIt(DAVIDSON) = 12
Energy at sites (7, 8) is -71.8436278315401
   Stats: nIt(DAVIDSON) = 13
Energy at sites (6, 7) is -73.0545069090695
   Stats: nIt(DAVIDSON) = 20
Energy at sites (5, 6) is -74.5538425651987
   Stats: nIt(DAVIDSON) = 40
Energy at sites (4, 5) is -75.6897746558306
   Stats: nIt(DAVIDSON) = 1
Energy at sites (3, 4) is -75.6897746558306
   Stats: nIt(DAVIDSON) = 1
Energy at sites (2, 3) is -75.6897746558306
   Stats: nIt(DAVIDSON) = 1
Energy at sites (1, 2) is -75.6897746558306
******************************************************************
***  Information on left sweep 0 of instruction 0:
***     Elapsed wall time        = 0.477585 seconds
***       |--> S.join            = 0.000205 seconds
***       |--> S.solve           = 0.455432 seconds
***       |--> S.split           = 0.0006 seconds
***       |--> Tensor update     = 0.021275 seconds
***              |--> create     = 0.001292 seconds
***              |--> destroy    = 0.0004 seconds
***              |--> disk write = 0.009191 seconds
***              |--> disk read  = 0.006945 seconds
***              |--> calc       = 0.003435 seconds
***     Disk write bandwidth     = 62.5135537758575 MB/s
***     Disk read  bandwidth     = 83.119204955791 MB/s
***     Minimum energy           = -75.6897746558306
***     Maximum discarded weight = 0
***     The overlap < 1 | 0 > = -1.21171631907967e-09
******************************************************************
   Stats: nIt(DAVIDSON) = 1
Energy at sites (0, 1) is -75.6897746558306
   Stats: nIt(DAVIDSON) = 1
Energy at sites (1, 2) is -75.6897746558306
   Stats: nIt(DAVIDSON) = 1
Energy at sites (2, 3) is -75.6897746558306
   Stats: nIt(DAVIDSON) = 1
Energy at sites (3, 4) is -75.6897746558305
   Stats: nIt(DAVIDSON) = 1
Energy at sites (4, 5) is -75.6897746558306
   Stats: nIt(DAVIDSON) = 1
Energy at sites (5, 6) is -75.6897746558306
   Stats: nIt(DAVIDSON) = 1
Energy at sites (6, 7) is -75.6897746558306
******************************************************************
***  Information on right sweep 0 of instruction 0:
***     Elapsed wall time        = 0.043762 seconds
***       |--> S.join            = 0.000244 seconds
***       |--> S.solve           = 0.020852 seconds
***       |--> S.split           = 0.000605 seconds
***       |--> Tensor update     = 0.021992 seconds
***              |--> create     = 0.001344 seconds
***              |--> destroy    = 0.000452 seconds
***              |--> disk write = 0.008033 seconds
***              |--> disk read  = 0.008779 seconds
***              |--> calc       = 0.003372 seconds
***     Disk write bandwidth     = 71.8614313977305 MB/s
***     Disk read  bandwidth     = 65.4473257493913 MB/s
***     Minimum energy           = -75.6897746558306
***     Maximum discarded weight = 0
***     Energy difference with respect to previous leftright sweep = 75.6897746558306
***     The overlap < 1 | 0 > = -1.21171613986105e-09
******************************************************************
   Stats: nIt(DAVIDSON) = 1
Energy at sites (7, 8) is -75.6897746558306
   Stats: nIt(DAVIDSON) = 1
Energy at sites (6, 7) is -75.6897746558306
   Stats: nIt(DAVIDSON) = 1
Energy at sites (5, 6) is -75.6897746558306
   Stats: nIt(DAVIDSON) = 1
Energy at sites (4, 5) is -75.6897746558306
   Stats: nIt(DAVIDSON) = 1
Energy at sites (3, 4) is -75.6897746558305
   Stats: nIt(DAVIDSON) = 1
Energy at sites (2, 3) is -75.6897746558306
   Stats: nIt(DAVIDSON) = 1
Energy at sites (1, 2) is -75.6897746558306
******************************************************************
***  Information on left sweep 1 of instruction 0:
***     Elapsed wall time        = 0.042454 seconds
***       |--> S.join            = 0.00021 seconds
***       |--> S.solve           = 0.02126 seconds
***       |--> S.split           = 0.000628 seconds
***       |--> Tensor update     = 0.020276 seconds
***              |--> create     = 0.001306 seconds
***              |--> destroy    = 0.000381 seconds
***              |--> disk write = 0.008446 seconds
***              |--> disk read  = 0.006559 seconds
***              |--> calc       = 0.003575 seconds
***     Disk write bandwidth     = 68.0277140366927 MB/s
***     Disk read  bandwidth     = 88.0108062841849 MB/s
***     Minimum energy           = -75.6897746558306
***     Maximum discarded weight = 0
***     The overlap < 1 | 0 > = -1.21171637372346e-09
******************************************************************
   Stats: nIt(DAVIDSON) = 1
Energy at sites (0, 1) is -75.6897746558306
   Stats: nIt(DAVIDSON) = 1
Energy at sites (1, 2) is -75.6897746558306
   Stats: nIt(DAVIDSON) = 1
Energy at sites (2, 3) is -75.6897746558306
   Stats: nIt(DAVIDSON) = 1
Energy at sites (3, 4) is -75.6897746558305
   Stats: nIt(DAVIDSON) = 1
Energy at sites (4, 5) is -75.6897746558306
   Stats: nIt(DAVIDSON) = 1
Energy at sites (5, 6) is -75.6897746558306
   Stats: nIt(DAVIDSON) = 1
Energy at sites (6, 7) is -75.6897746558306
******************************************************************
***  Information on right sweep 1 of instruction 0:
***     Elapsed wall time        = 0.041729 seconds
***       |--> S.join            = 0.00021 seconds
***       |--> S.solve           = 0.020869 seconds
***       |--> S.split           = 0.000674 seconds
***       |--> Tensor update     = 0.019901 seconds
***              |--> create     = 0.001213 seconds
***              |--> destroy    = 0.000382 seconds
***              |--> disk write = 0.008095 seconds
***              |--> disk read  = 0.006604 seconds
***              |--> calc       = 0.003593 seconds
***     Disk write bandwidth     = 71.311041188137 MB/s
***     Disk read  bandwidth     = 87.0021309439592 MB/s
***     Minimum energy           = -75.6897746558306
***     Maximum discarded weight = 0
***     Energy difference with respect to previous leftright sweep = 1.4210854715202e-14
***     The overlap < 1 | 0 > = -1.21171669237048e-09
******************************************************************
***  Information on completed instruction 0:
***     The reduced virtual dimension DSU(2)               = 200
***     The total number of reduced MPS variables          = 2565
***     Minimum energy encountered during all instructions = -75.6897746558306
***     Minimum energy encountered during the last sweep   = -75.6897746558306
***     Maximum discarded weight during the last sweep     = 0
******************************************************************
   Stats: nIt(DAVIDSON) = 1
Energy at sites (7, 8) is -75.6897746558306
   Stats: nIt(DAVIDSON) = 1
Energy at sites (6, 7) is -75.6897746558306
   Stats: nIt(DAVIDSON) = 1
Energy at sites (5, 6) is -75.6897746558306
   Stats: nIt(DAVIDSON) = 1
Energy at sites (4, 5) is -75.6897746558306
   Stats: nIt(DAVIDSON) = 1
Energy at sites (3, 4) is -75.6897746558305
   Stats: nIt(DAVIDSON) = 1
Energy at sites (2, 3) is -75.6897746558306
   Stats: nIt(DAVIDSON) = 1
Energy at sites (1, 2) is -75.6897746558305
******************************************************************
***  Information on left sweep 0 of instruction 1:
***     Elapsed wall time        = 0.040885 seconds
***       |--> S.join            = 0.000209 seconds
***       |--> S.solve           = 0.020386 seconds
***       |--> S.split           = 0.00059 seconds
***       |--> Tensor update     = 0.019638 seconds
***              |--> create     = 0.001209 seconds
***              |--> destroy    = 0.000409 seconds
***              |--> disk write = 0.008089 seconds
***              |--> disk read  = 0.006817 seconds
***              |--> calc       = 0.003107 seconds
***     Disk write bandwidth     = 71.030049790321 MB/s
***     Disk read  bandwidth     = 84.6799000173051 MB/s
***     Minimum energy           = -75.6897746558306
***     Maximum discarded weight = 0
***     The overlap < 1 | 0 > = -1.21171696569784e-09
******************************************************************
   Stats: nIt(DAVIDSON) = 1
Energy at sites (0, 1) is -75.6897746558306
   Stats: nIt(DAVIDSON) = 1
Energy at sites (1, 2) is -75.6897746558306
   Stats: nIt(DAVIDSON) = 1
Energy at sites (2, 3) is -75.6897746558306
   Stats: nIt(DAVIDSON) = 1
Energy at sites (3, 4) is -75.6897746558305
   Stats: nIt(DAVIDSON) = 1
Energy at sites (4, 5) is -75.6897746558306
   Stats: nIt(DAVIDSON) = 1
Energy at sites (5, 6) is -75.6897746558306
   Stats: nIt(DAVIDSON) = 1
Energy at sites (6, 7) is -75.6897746558306
******************************************************************
***  Information on right sweep 0 of instruction 1:
***     Elapsed wall time        = 0.041859 seconds
***       |--> S.join            = 0.000201 seconds
***       |--> S.solve           = 0.020335 seconds
***       |--> S.split           = 0.000592 seconds
***       |--> Tensor update     = 0.020666 seconds
***              |--> create     = 0.001235 seconds
***              |--> destroy    = 0.000377 seconds
***              |--> disk write = 0.00862 seconds
***              |--> disk read  = 0.006271 seconds
***              |--> calc       = 0.004155 seconds
***     Disk write bandwidth     = 66.9678513245903 MB/s
***     Disk read  bandwidth     = 91.6220814469632 MB/s
***     Minimum energy           = -75.6897746558306
***     Maximum discarded weight = 0
***     Energy difference with respect to previous leftright sweep = 2.8421709430404e-14
***     The overlap < 1 | 0 > = -1.21171727653861e-09
******************************************************************
***  Information on completed instruction 1:
***     The reduced virtual dimension DSU(2)               = 500
***     The total number of reduced MPS variables          = 2565
***     Minimum energy encountered during all instructions = -75.6897746558306
***     Minimum energy encountered during the last sweep   = -75.6897746558306
***     Maximum discarded weight during the last sweep     = 0
******************************************************************
   Stats: nIt(DAVIDSON) = 1
Energy at sites (7, 8) is -75.6897746558306
   Stats: nIt(DAVIDSON) = 1
Energy at sites (6, 7) is -75.6897746558306
   Stats: nIt(DAVIDSON) = 1
Energy at sites (5, 6) is -75.6897746558306
   Stats: nIt(DAVIDSON) = 1
Energy at sites (4, 5) is -75.6897746558306
   Stats: nIt(DAVIDSON) = 1
Energy at sites (3, 4) is -75.6897746558305
   Stats: nIt(DAVIDSON) = 1
Energy at sites (2, 3) is -75.6897746558306
   Stats: nIt(DAVIDSON) = 1
Energy at sites (1, 2) is -75.6897746558306
******************************************************************
***  Information on left sweep 0 of instruction 2:
***     Elapsed wall time        = 0.043149 seconds
***       |--> S.join            = 0.000223 seconds
***       |--> S.solve           = 0.021292 seconds
***       |--> S.split           = 0.000634 seconds
***       |--> Tensor update     = 0.020925 seconds
***              |--> create     = 0.001287 seconds
***              |--> destroy    = 0.000557 seconds
***              |--> disk write = 0.008416 seconds
***              |--> disk read  = 0.006886 seconds
***              |--> calc       = 0.00377 seconds
***     Disk write bandwidth     = 68.2702082644851 MB/s
***     Disk read  bandwidth     = 83.8313793810585 MB/s
***     Minimum energy           = -75.6897746558306
***     Maximum discarded weight = 0
***     The overlap < 1 | 0 > = -1.21171762966325e-09
******************************************************************
   Stats: nIt(DAVIDSON) = 1
Energy at sites (0, 1) is -75.6897746558306
   Stats: nIt(DAVIDSON) = 1
Energy at sites (1, 2) is -75.6897746558306
   Stats: nIt(DAVIDSON) = 1
Energy at sites (2, 3) is -75.6897746558306
   Stats: nIt(DAVIDSON) = 1
Energy at sites (3, 4) is -75.6897746558305
   Stats: nIt(DAVIDSON) = 1
Energy at sites (4, 5) is -75.6897746558306
   Stats: nIt(DAVIDSON) = 1
Energy at sites (5, 6) is -75.6897746558306
   Stats: nIt(DAVIDSON) = 1
Energy at sites (6, 7) is -75.6897746558306
******************************************************************
***  Information on right sweep 0 of instruction 2:
***     Elapsed wall time        = 0.048184 seconds
***       |--> S.join            = 0.000214 seconds
***       |--> S.solve           = 0.023973 seconds
***       |--> S.split           = 0.000671 seconds
***       |--> Tensor update     = 0.023249 seconds
***              |--> create     = 0.001403 seconds
***              |--> destroy    = 0.00045 seconds
***              |--> disk write = 0.00871 seconds
***              |--> disk read  = 0.007124 seconds
***              |--> calc       = 0.005549 seconds
***     Disk write bandwidth     = 66.2758758229585 MB/s
***     Disk read  bandwidth     = 80.6516104371008 MB/s
***     Minimum energy           = -75.6897746558306
***     Maximum discarded weight = 0
***     Energy difference with respect to previous leftright sweep = 1.4210854715202e-14
***     The overlap < 1 | 0 > = -1.21171798820891e-09
******************************************************************
***  Information on completed instruction 2:
***     The reduced virtual dimension DSU(2)               = 1000
***     The total number of reduced MPS variables          = 2565
***     Minimum energy encountered during all instructions = -75.6897746558306
***     Minimum energy encountered during the last sweep   = -75.6897746558306
***     Maximum discarded weight during the last sweep     = 0
******************************************************************
   Stats: nIt(DAVIDSON) = 1
Energy at sites (7, 8) is -75.6897746558306
   Stats: nIt(DAVIDSON) = 1
Energy at sites (6, 7) is -75.6897746558306
   Stats: nIt(DAVIDSON) = 1
Energy at sites (5, 6) is -75.6897746558306
   Stats: nIt(DAVIDSON) = 1
Energy at sites (4, 5) is -75.6897746558306
   Stats: nIt(DAVIDSON) = 1
Energy at sites (3, 4) is -75.6897746558305
   Stats: nIt(DAVIDSON) = 1
Energy at sites (2, 3) is -75.6897746558306
   Stats: nIt(DAVIDSON) = 1
Energy at sites (1, 2) is -75.6897746558306
******************************************************************
***  Information on left sweep 0 of instruction 3:
***     Elapsed wall time        = 0.045475 seconds
***       |--> S.join            = 0.000243 seconds
***       |--> S.solve           = 0.022201 seconds
***       |--> S.split           = 0.000647 seconds
***       |--> Tensor update     = 0.022311 seconds
***              |--> create     = 0.001326 seconds
***              |--> destroy    = 0.000453 seconds
***              |--> disk write = 0.009157 seconds
***              |--> disk read  = 0.007913 seconds
***              |--> calc       = 0.003446 seconds
***     Disk write bandwidth     = 62.745667003812 MB/s
***     Disk read  bandwidth     = 72.9512041473485 MB/s
***     Minimum energy           = -75.6897746558306
***     Maximum discarded weight = 0
***     The overlap < 1 | 0 > = -1.21171820277252e-09
******************************************************************
   Stats: nIt(DAVIDSON) = 1
Energy at sites (0, 1) is -75.6897746558306
   Stats: nIt(DAVIDSON) = 1
Energy at sites (1, 2) is -75.6897746558306
   Stats: nIt(DAVIDSON) = 1
Energy at sites (2, 3) is -75.6897746558306
   Stats: nIt(DAVIDSON) = 1
Energy at sites (3, 4) is -75.6897746558305
   Stats: nIt(DAVIDSON) = 1
Energy at sites (4, 5) is -75.6897746558306
   Stats: nIt(DAVIDSON) = 1
Energy at sites (5, 6) is -75.6897746558306
   Stats: nIt(DAVIDSON) = 1
Energy at sites (6, 7) is -75.6897746558306
******************************************************************
***  Information on right sweep 0 of instruction 3:
***     Elapsed wall time        = 0.044191 seconds
***       |--> S.join            = 0.000226 seconds
***       |--> S.solve           = 0.021992 seconds
***       |--> S.split           = 0.00062 seconds
***       |--> Tensor update     = 0.021281 seconds
***              |--> create     = 0.001316 seconds
***              |--> destroy    = 0.000412 seconds
***              |--> disk write = 0.009051 seconds
***              |--> disk read  = 0.007013 seconds
***              |--> calc       = 0.003479 seconds
***     Disk write bandwidth     = 63.7789060234194 MB/s
***     Disk read  bandwidth     = 81.9281438405684 MB/s
***     Minimum energy           = -75.6897746558306
***     Maximum discarded weight = 0
***     Energy difference with respect to previous leftright sweep = 1.4210854715202e-14
***     The overlap < 1 | 0 > = -1.21171849431449e-09
******************************************************************
***  Information on completed instruction 3:
***     The reduced virtual dimension DSU(2)               = 1000
***     The total number of reduced MPS variables          = 2565
***     Minimum energy encountered during all instructions = -75.6897746558306
***     Minimum energy encountered during the last sweep   = -75.6897746558306
***     Maximum discarded weight during the last sweep     = 0
******************************************************************


                    ----------------------------------------
                      Density Matrix Renormalization Group
                               Sebastian Wouters
                    ----------------------------------------
MPS files will be dumped to "/Users/york/src/forte/tests/methods/dmrgscf-2/1A2_CAS9"

   CheMPS2: a spin-adapted implementation of DMRG for ab initio quantum chemistry
   Copyright (C) 2013-2021 Sebastian Wouters

   This program is free software; you can redistribute it and/or modify
   it under the terms of the GNU General Public License as published by
   the Free Software Foundation; either version 2 of the License, or
   (at your option) any later version.

   This program is distributed in the hope that it will be useful,
   but WITHOUT ANY WARRANTY; without even the implied warranty of
   MERCHANTABILITY or FITNESS FOR A PARTICULAR PURPOSE.  See the
   GNU General Public License for more details.

   You should have received a copy of the GNU General Public License along
   with this program; if not, write to the Free Software Foundation, Inc.,
   51 Franklin Street, Fifth Floor, Boston, MA 02110-1301 USA.


  ==> Computing Energy for Singlet (Ms = 0) A2 <==

   Stats: nIt(DAVIDSON) = 8
Energy at sites (7, 8) is -71.4553853784869
   Stats: nIt(DAVIDSON) = 13
Energy at sites (6, 7) is -72.3557959560191
   Stats: nIt(DAVIDSON) = 20
Energy at sites (5, 6) is -73.8792173576922
   Stats: nIt(DAVIDSON) = 27
Energy at sites (4, 5) is -75.711047876416
   Stats: nIt(DAVIDSON) = 16
Energy at sites (3, 4) is -75.7118839932853
   Stats: nIt(DAVIDSON) = 1
Energy at sites (2, 3) is -75.7118839932853
   Stats: nIt(DAVIDSON) = 1
Energy at sites (1, 2) is -75.7118839932853
******************************************************************
***  Information on left sweep 0 of instruction 0:
***     Elapsed wall time        = 0.302122 seconds
***       |--> S.join            = 0.000169 seconds
***       |--> S.solve           = 0.283472 seconds
***       |--> S.split           = 0.000532 seconds
***       |--> Tensor update     = 0.01785 seconds
***              |--> create     = 0.001226 seconds
***              |--> destroy    = 0.000408 seconds
***              |--> disk write = 0.007693 seconds
***              |--> disk read  = 0.006038 seconds
***              |--> calc       = 0.002478 seconds
***     Disk write bandwidth     = 66.6414174335638 MB/s
***     Disk read  bandwidth     = 85.7845684201878 MB/s
***     Minimum energy           = -75.7118839932853
***     Maximum discarded weight = 0
******************************************************************
   Stats: nIt(DAVIDSON) = 1
Energy at sites (0, 1) is -75.7118839932853
   Stats: nIt(DAVIDSON) = 1
Energy at sites (1, 2) is -75.7118839932853
   Stats: nIt(DAVIDSON) = 1
Energy at sites (2, 3) is -75.7118839932853
   Stats: nIt(DAVIDSON) = 1
Energy at sites (3, 4) is -75.7118839932854
   Stats: nIt(DAVIDSON) = 1
Energy at sites (4, 5) is -75.7118839932853
   Stats: nIt(DAVIDSON) = 1
Energy at sites (5, 6) is -75.7118839932853
   Stats: nIt(DAVIDSON) = 1
Energy at sites (6, 7) is -75.7118839932853
******************************************************************
***  Information on right sweep 0 of instruction 0:
***     Elapsed wall time        = 0.045367 seconds
***       |--> S.join            = 0.000243 seconds
***       |--> S.solve           = 0.01956 seconds
***       |--> S.split           = 0.000717 seconds
***       |--> Tensor update     = 0.024714 seconds
***              |--> create     = 0.001386 seconds
***              |--> destroy    = 0.000567 seconds
***              |--> disk write = 0.011462 seconds
***              |--> disk read  = 0.00802 seconds
***              |--> calc       = 0.003261 seconds
***     Disk write bandwidth     = 45.189951502451 MB/s
***     Disk read  bandwidth     = 63.9242424334671 MB/s
***     Minimum energy           = -75.7118839932854
***     Maximum discarded weight = 0
***     Energy difference with respect to previous leftright sweep = 75.7118839932853
******************************************************************
   Stats: nIt(DAVIDSON) = 1
Energy at sites (7, 8) is -75.7118839932853
   Stats: nIt(DAVIDSON) = 1
Energy at sites (6, 7) is -75.7118839932853
   Stats: nIt(DAVIDSON) = 1
Energy at sites (5, 6) is -75.7118839932853
   Stats: nIt(DAVIDSON) = 1
Energy at sites (4, 5) is -75.7118839932853
   Stats: nIt(DAVIDSON) = 1
Energy at sites (3, 4) is -75.7118839932853
   Stats: nIt(DAVIDSON) = 1
Energy at sites (2, 3) is -75.7118839932853
   Stats: nIt(DAVIDSON) = 1
Energy at sites (1, 2) is -75.7118839932853
******************************************************************
***  Information on left sweep 1 of instruction 0:
***     Elapsed wall time        = 0.036362 seconds
***       |--> S.join            = 0.000202 seconds
***       |--> S.solve           = 0.016552 seconds
***       |--> S.split           = 0.00056 seconds
***       |--> Tensor update     = 0.018946 seconds
***              |--> create     = 0.001273 seconds
***              |--> destroy    = 0.00041 seconds
***              |--> disk write = 0.007802 seconds
***              |--> disk read  = 0.006955 seconds
***              |--> calc       = 0.002498 seconds
***     Disk write bandwidth     = 65.7103850700341 MB/s
***     Disk read  bandwidth     = 74.4740796723356 MB/s
***     Minimum energy           = -75.7118839932853
***     Maximum discarded weight = 0
******************************************************************
   Stats: nIt(DAVIDSON) = 1
Energy at sites (0, 1) is -75.7118839932853
   Stats: nIt(DAVIDSON) = 1
Energy at sites (1, 2) is -75.7118839932853
   Stats: nIt(DAVIDSON) = 1
Energy at sites (2, 3) is -75.7118839932853
   Stats: nIt(DAVIDSON) = 1
Energy at sites (3, 4) is -75.7118839932853
   Stats: nIt(DAVIDSON) = 1
Energy at sites (4, 5) is -75.7118839932853
   Stats: nIt(DAVIDSON) = 1
Energy at sites (5, 6) is -75.7118839932853
   Stats: nIt(DAVIDSON) = 1
Energy at sites (6, 7) is -75.7118839932853
******************************************************************
***  Information on right sweep 1 of instruction 0:
***     Elapsed wall time        = 0.033937 seconds
***       |--> S.join            = 0.000165 seconds
***       |--> S.solve           = 0.015854 seconds
***       |--> S.split           = 0.000532 seconds
***       |--> Tensor update     = 0.017315 seconds
***              |--> create     = 0.001146 seconds
***              |--> destroy    = 0.000361 seconds
***              |--> disk write = 0.007155 seconds
***              |--> disk read  = 0.005997 seconds
***              |--> calc       = 0.002647 seconds
***     Disk write bandwidth     = 72.3923443914876 MB/s
***     Disk read  bandwidth     = 85.4881481267978 MB/s
***     Minimum energy           = -75.7118839932853
***     Maximum discarded weight = 0
***     Energy difference with respect to previous leftright sweep = 2.8421709430404e-14
******************************************************************
***  Information on completed instruction 0:
***     The reduced virtual dimension DSU(2)               = 200
***     The total number of reduced MPS variables          = 2320
***     Minimum energy encountered during all instructions = -75.7118839932854
***     Minimum energy encountered during the last sweep   = -75.7118839932853
***     Maximum discarded weight during the last sweep     = 0
******************************************************************
   Stats: nIt(DAVIDSON) = 1
Energy at sites (7, 8) is -75.7118839932853
   Stats: nIt(DAVIDSON) = 1
Energy at sites (6, 7) is -75.7118839932853
   Stats: nIt(DAVIDSON) = 1
Energy at sites (5, 6) is -75.7118839932853
   Stats: nIt(DAVIDSON) = 1
Energy at sites (4, 5) is -75.7118839932853
   Stats: nIt(DAVIDSON) = 1
Energy at sites (3, 4) is -75.7118839932853
   Stats: nIt(DAVIDSON) = 1
Energy at sites (2, 3) is -75.7118839932853
   Stats: nIt(DAVIDSON) = 1
Energy at sites (1, 2) is -75.7118839932853
******************************************************************
***  Information on left sweep 0 of instruction 1:
***     Elapsed wall time        = 0.033143 seconds
***       |--> S.join            = 0.000164 seconds
***       |--> S.solve           = 0.015653 seconds
***       |--> S.split           = 0.000518 seconds
***       |--> Tensor update     = 0.016751 seconds
***              |--> create     = 0.001138 seconds
***              |--> destroy    = 0.000365 seconds
***              |--> disk write = 0.006927 seconds
***              |--> disk read  = 0.005961 seconds
***              |--> calc       = 0.002356 seconds
***     Disk write bandwidth     = 74.0107440907184 MB/s
***     Disk read  bandwidth     = 86.8926730617503 MB/s
***     Minimum energy           = -75.7118839932853
***     Maximum discarded weight = 0
******************************************************************
   Stats: nIt(DAVIDSON) = 1
Energy at sites (0, 1) is -75.7118839932853
   Stats: nIt(DAVIDSON) = 1
Energy at sites (1, 2) is -75.7118839932853
   Stats: nIt(DAVIDSON) = 1
Energy at sites (2, 3) is -75.7118839932853
   Stats: nIt(DAVIDSON) = 1
Energy at sites (3, 4) is -75.7118839932853
   Stats: nIt(DAVIDSON) = 1
Energy at sites (4, 5) is -75.7118839932853
   Stats: nIt(DAVIDSON) = 1
Energy at sites (5, 6) is -75.7118839932853
   Stats: nIt(DAVIDSON) = 1
Energy at sites (6, 7) is -75.7118839932853
******************************************************************
***  Information on right sweep 0 of instruction 1:
***     Elapsed wall time        = 0.03329 seconds
***       |--> S.join            = 0.000164 seconds
***       |--> S.solve           = 0.015524 seconds
***       |--> S.split           = 0.000514 seconds
***       |--> Tensor update     = 0.017031 seconds
***              |--> create     = 0.001126 seconds
***              |--> destroy    = 0.000355 seconds
***              |--> disk write = 0.007047 seconds
***              |--> disk read  = 0.005864 seconds
***              |--> calc       = 0.002636 seconds
***     Disk write bandwidth     = 73.5018056082154 MB/s
***     Disk read  bandwidth     = 87.4270846378592 MB/s
***     Minimum energy           = -75.7118839932853
***     Maximum discarded weight = 0
***     Energy difference with respect to previous leftright sweep = 2.8421709430404e-14
******************************************************************
***  Information on completed instruction 1:
***     The reduced virtual dimension DSU(2)               = 500
***     The total number of reduced MPS variables          = 2320
***     Minimum energy encountered during all instructions = -75.7118839932854
***     Minimum energy encountered during the last sweep   = -75.7118839932853
***     Maximum discarded weight during the last sweep     = 0
******************************************************************
   Stats: nIt(DAVIDSON) = 1
Energy at sites (7, 8) is -75.7118839932853
   Stats: nIt(DAVIDSON) = 1
Energy at sites (6, 7) is -75.7118839932853
   Stats: nIt(DAVIDSON) = 1
Energy at sites (5, 6) is -75.7118839932853
   Stats: nIt(DAVIDSON) = 1
Energy at sites (4, 5) is -75.7118839932853
   Stats: nIt(DAVIDSON) = 1
Energy at sites (3, 4) is -75.7118839932853
   Stats: nIt(DAVIDSON) = 1
Energy at sites (2, 3) is -75.7118839932853
   Stats: nIt(DAVIDSON) = 1
Energy at sites (1, 2) is -75.7118839932853
******************************************************************
***  Information on left sweep 0 of instruction 2:
***     Elapsed wall time        = 0.033414 seconds
***       |--> S.join            = 0.000161 seconds
***       |--> S.solve           = 0.01544 seconds
***       |--> S.split           = 0.00051 seconds
***       |--> Tensor update     = 0.017247 seconds
***              |--> create     = 0.001114 seconds
***              |--> destroy    = 0.000471 seconds
***              |--> disk write = 0.007291 seconds
***              |--> disk read  = 0.005949 seconds
***              |--> calc       = 0.002412 seconds
***     Disk write bandwidth     = 70.3157899213285 MB/s
***     Disk read  bandwidth     = 87.067948246948 MB/s
***     Minimum energy           = -75.7118839932853
***     Maximum discarded weight = 0
******************************************************************
   Stats: nIt(DAVIDSON) = 1
Energy at sites (0, 1) is -75.7118839932853
   Stats: nIt(DAVIDSON) = 1
Energy at sites (1, 2) is -75.7118839932853
   Stats: nIt(DAVIDSON) = 1
Energy at sites (2, 3) is -75.7118839932853
   Stats: nIt(DAVIDSON) = 1
Energy at sites (3, 4) is -75.7118839932853
   Stats: nIt(DAVIDSON) = 1
Energy at sites (4, 5) is -75.7118839932853
   Stats: nIt(DAVIDSON) = 1
Energy at sites (5, 6) is -75.7118839932853
   Stats: nIt(DAVIDSON) = 1
Energy at sites (6, 7) is -75.7118839932853
******************************************************************
***  Information on right sweep 0 of instruction 2:
***     Elapsed wall time        = 0.0359 seconds
***       |--> S.join            = 0.000165 seconds
***       |--> S.solve           = 0.015924 seconds
***       |--> S.split           = 0.000576 seconds
***       |--> Tensor update     = 0.019165 seconds
***              |--> create     = 0.001141 seconds
***              |--> destroy    = 0.00038 seconds
***              |--> disk write = 0.008333 seconds
***              |--> disk read  = 0.006354 seconds
***              |--> calc       = 0.002946 seconds
***     Disk write bandwidth     = 62.1585532366607 MB/s
***     Disk read  bandwidth     = 80.6849896626387 MB/s
***     Minimum energy           = -75.7118839932853
***     Maximum discarded weight = 0
***     Energy difference with respect to previous leftright sweep = 1.4210854715202e-14
******************************************************************
***  Information on completed instruction 2:
***     The reduced virtual dimension DSU(2)               = 1000
***     The total number of reduced MPS variables          = 2320
***     Minimum energy encountered during all instructions = -75.7118839932854
***     Minimum energy encountered during the last sweep   = -75.7118839932853
***     Maximum discarded weight during the last sweep     = 0
******************************************************************
   Stats: nIt(DAVIDSON) = 1
Energy at sites (7, 8) is -75.7118839932853
   Stats: nIt(DAVIDSON) = 1
Energy at sites (6, 7) is -75.7118839932853
   Stats: nIt(DAVIDSON) = 1
Energy at sites (5, 6) is -75.7118839932853
   Stats: nIt(DAVIDSON) = 1
Energy at sites (4, 5) is -75.7118839932853
   Stats: nIt(DAVIDSON) = 1
Energy at sites (3, 4) is -75.7118839932853
   Stats: nIt(DAVIDSON) = 1
Energy at sites (2, 3) is -75.7118839932853
   Stats: nIt(DAVIDSON) = 1
Energy at sites (1, 2) is -75.7118839932853
******************************************************************
***  Information on left sweep 0 of instruction 3:
***     Elapsed wall time        = 0.034021 seconds
***       |--> S.join            = 0.000163 seconds
***       |--> S.solve           = 0.015419 seconds
***       |--> S.split           = 0.000521 seconds
***       |--> Tensor update     = 0.017861 seconds
***              |--> create     = 0.001127 seconds
***              |--> destroy    = 0.000352 seconds
***              |--> disk write = 0.007788 seconds
***              |--> disk read  = 0.00623 seconds
***              |--> calc       = 0.002353 seconds
***     Disk write bandwidth     = 65.8285085152037 MB/s
***     Disk read  bandwidth     = 83.140806439983 MB/s
***     Minimum energy           = -75.7118839932853
***     Maximum discarded weight = 0
******************************************************************
   Stats: nIt(DAVIDSON) = 1
Energy at sites (0, 1) is -75.7118839932853
   Stats: nIt(DAVIDSON) = 1
Energy at sites (1, 2) is -75.7118839932853
   Stats: nIt(DAVIDSON) = 1
Energy at sites (2, 3) is -75.7118839932853
   Stats: nIt(DAVIDSON) = 1
Energy at sites (3, 4) is -75.7118839932853
   Stats: nIt(DAVIDSON) = 1
Energy at sites (4, 5) is -75.7118839932853
   Stats: nIt(DAVIDSON) = 1
Energy at sites (5, 6) is -75.7118839932853
   Stats: nIt(DAVIDSON) = 1
Energy at sites (6, 7) is -75.7118839932853
******************************************************************
***  Information on right sweep 0 of instruction 3:
***     Elapsed wall time        = 0.034277 seconds
***       |--> S.join            = 0.000163 seconds
***       |--> S.solve           = 0.015709 seconds
***       |--> S.split           = 0.00052 seconds
***       |--> Tensor update     = 0.017825 seconds
***              |--> create     = 0.001129 seconds
***              |--> destroy    = 0.000363 seconds
***              |--> disk write = 0.007404 seconds
***              |--> disk read  = 0.006277 seconds
***              |--> calc       = 0.002645 seconds
***     Disk write bandwidth     = 69.9577558240267 MB/s
***     Disk read  bandwidth     = 81.6747529578471 MB/s
***     Minimum energy           = -75.7118839932853
***     Maximum discarded weight = 0
***     Energy difference with respect to previous leftright sweep = 1.4210854715202e-14
******************************************************************
***  Information on completed instruction 3:
***     The reduced virtual dimension DSU(2)               = 1000
***     The total number of reduced MPS variables          = 2320
***     Minimum energy encountered during all instructions = -75.7118839932854
***     Minimum energy encountered during the last sweep   = -75.7118839932853
***     Maximum discarded weight during the last sweep     = 0
******************************************************************


                    ----------------------------------------
                      Density Matrix Renormalization Group
                               Sebastian Wouters
                    ----------------------------------------
MPS files will be dumped to "/Users/york/src/forte/tests/methods/dmrgscf-2/1B1_CAS9"

   CheMPS2: a spin-adapted implementation of DMRG for ab initio quantum chemistry
   Copyright (C) 2013-2021 Sebastian Wouters

   This program is free software; you can redistribute it and/or modify
   it under the terms of the GNU General Public License as published by
   the Free Software Foundation; either version 2 of the License, or
   (at your option) any later version.

   This program is distributed in the hope that it will be useful,
   but WITHOUT ANY WARRANTY; without even the implied warranty of
   MERCHANTABILITY or FITNESS FOR A PARTICULAR PURPOSE.  See the
   GNU General Public License for more details.

   You should have received a copy of the GNU General Public License along
   with this program; if not, write to the Free Software Foundation, Inc.,
   51 Franklin Street, Fifth Floor, Boston, MA 02110-1301 USA.


  ==> Computing Energy for Singlet (Ms = 0) B1 <==

   Stats: nIt(DAVIDSON) = 11
Energy at sites (7, 8) is -71.8167143436701
   Stats: nIt(DAVIDSON) = 14
Energy at sites (6, 7) is -73.1790431894596
   Stats: nIt(DAVIDSON) = 20
Energy at sites (5, 6) is -74.6829748711376
   Stats: nIt(DAVIDSON) = 22
Energy at sites (4, 5) is -75.6256105195778
   Stats: nIt(DAVIDSON) = 1
Energy at sites (3, 4) is -75.6256105195778
   Stats: nIt(DAVIDSON) = 1
Energy at sites (2, 3) is -75.6256105195778
   Stats: nIt(DAVIDSON) = 1
Energy at sites (1, 2) is -75.6256105195778
******************************************************************
***  Information on left sweep 0 of instruction 0:
***     Elapsed wall time        = 0.291306 seconds
***       |--> S.join            = 0.000196 seconds
***       |--> S.solve           = 0.270691 seconds
***       |--> S.split           = 0.001065 seconds
***       |--> Tensor update     = 0.019247 seconds
***              |--> create     = 0.001301 seconds
***              |--> destroy    = 0.00041 seconds
***              |--> disk write = 0.008248 seconds
***              |--> disk read  = 0.006386 seconds
***              |--> calc       = 0.002893 seconds
***     Disk write bandwidth     = 62.7075550512245 MB/s
***     Disk read  bandwidth     = 81.4048989305218 MB/s
***     Minimum energy           = -75.6256105195778
***     Maximum discarded weight = 0
******************************************************************
   Stats: nIt(DAVIDSON) = 1
Energy at sites (0, 1) is -75.6256105195778
   Stats: nIt(DAVIDSON) = 1
Energy at sites (1, 2) is -75.6256105195778
   Stats: nIt(DAVIDSON) = 1
Energy at sites (2, 3) is -75.6256105195778
   Stats: nIt(DAVIDSON) = 1
Energy at sites (3, 4) is -75.6256105195779
   Stats: nIt(DAVIDSON) = 1
Energy at sites (4, 5) is -75.6256105195778
   Stats: nIt(DAVIDSON) = 1
Energy at sites (5, 6) is -75.6256105195778
   Stats: nIt(DAVIDSON) = 1
Energy at sites (6, 7) is -75.6256105195778
******************************************************************
***  Information on right sweep 0 of instruction 0:
***     Elapsed wall time        = 0.03939 seconds
***       |--> S.join            = 0.000185 seconds
***       |--> S.solve           = 0.018877 seconds
***       |--> S.split           = 0.001033 seconds
***       |--> Tensor update     = 0.019206 seconds
***              |--> create     = 0.001225 seconds
***              |--> destroy    = 0.000368 seconds
***              |--> disk write = 0.007529 seconds
***              |--> disk read  = 0.006123 seconds
***              |--> calc       = 0.003956 seconds
***     Disk write bandwidth     = 69.0465778417203 MB/s
***     Disk read  bandwidth     = 84.4703436326147 MB/s
***     Minimum energy           = -75.6256105195779
***     Maximum discarded weight = 0
***     Energy difference with respect to previous leftright sweep = 75.6256105195778
******************************************************************
   Stats: nIt(DAVIDSON) = 1
Energy at sites (7, 8) is -75.6256105195778
   Stats: nIt(DAVIDSON) = 1
Energy at sites (6, 7) is -75.6256105195778
   Stats: nIt(DAVIDSON) = 1
Energy at sites (5, 6) is -75.6256105195778
   Stats: nIt(DAVIDSON) = 1
Energy at sites (4, 5) is -75.6256105195778
   Stats: nIt(DAVIDSON) = 1
Energy at sites (3, 4) is -75.6256105195779
   Stats: nIt(DAVIDSON) = 1
Energy at sites (2, 3) is -75.6256105195778
   Stats: nIt(DAVIDSON) = 1
Energy at sites (1, 2) is -75.6256105195778
******************************************************************
***  Information on left sweep 1 of instruction 0:
***     Elapsed wall time        = 0.039044 seconds
***       |--> S.join            = 0.000186 seconds
***       |--> S.solve           = 0.018836 seconds
***       |--> S.split           = 0.001046 seconds
***       |--> Tensor update     = 0.018879 seconds
***              |--> create     = 0.001211 seconds
***              |--> destroy    = 0.000468 seconds
***              |--> disk write = 0.007428 seconds
***              |--> disk read  = 0.006006 seconds
***              |--> calc       = 0.00376 seconds
***     Disk write bandwidth     = 69.630036895867 MB/s
***     Disk read  bandwidth     = 86.5553920363491 MB/s
***     Minimum energy           = -75.6256105195779
***     Maximum discarded weight = 0
******************************************************************
   Stats: nIt(DAVIDSON) = 1
Energy at sites (0, 1) is -75.6256105195778
   Stats: nIt(DAVIDSON) = 1
Energy at sites (1, 2) is -75.6256105195778
   Stats: nIt(DAVIDSON) = 1
Energy at sites (2, 3) is -75.6256105195778
   Stats: nIt(DAVIDSON) = 1
Energy at sites (3, 4) is -75.6256105195778
   Stats: nIt(DAVIDSON) = 1
Energy at sites (4, 5) is -75.6256105195778
   Stats: nIt(DAVIDSON) = 1
Energy at sites (5, 6) is -75.6256105195778
   Stats: nIt(DAVIDSON) = 1
Energy at sites (6, 7) is -75.6256105195778
******************************************************************
***  Information on right sweep 1 of instruction 0:
***     Elapsed wall time        = 0.038919 seconds
***       |--> S.join            = 0.000183 seconds
***       |--> S.solve           = 0.018706 seconds
***       |--> S.split           = 0.00099 seconds
***       |--> Tensor update     = 0.018977 seconds
***              |--> create     = 0.001205 seconds
***              |--> destroy    = 0.000371 seconds
***              |--> disk write = 0.00754 seconds
***              |--> disk read  = 0.005932 seconds
***              |--> calc       = 0.00392 seconds
***     Disk write bandwidth     = 68.9458467599884 MB/s
***     Disk read  bandwidth     = 87.1901406039279 MB/s
***     Minimum energy           = -75.6256105195778
***     Maximum discarded weight = 0
***     Energy difference with respect to previous leftright sweep = 0
******************************************************************
***  Information on completed instruction 0:
***     The reduced virtual dimension DSU(2)               = 200
***     The total number of reduced MPS variables          = 2447
***     Minimum energy encountered during all instructions = -75.6256105195779
***     Minimum energy encountered during the last sweep   = -75.6256105195778
***     Maximum discarded weight during the last sweep     = 0
******************************************************************
   Stats: nIt(DAVIDSON) = 1
Energy at sites (7, 8) is -75.6256105195778
   Stats: nIt(DAVIDSON) = 1
Energy at sites (6, 7) is -75.6256105195778
   Stats: nIt(DAVIDSON) = 1
Energy at sites (5, 6) is -75.6256105195778
   Stats: nIt(DAVIDSON) = 1
Energy at sites (4, 5) is -75.6256105195778
   Stats: nIt(DAVIDSON) = 1
Energy at sites (3, 4) is -75.6256105195778
   Stats: nIt(DAVIDSON) = 1
Energy at sites (2, 3) is -75.6256105195778
   Stats: nIt(DAVIDSON) = 1
Energy at sites (1, 2) is -75.6256105195778
******************************************************************
***  Information on left sweep 0 of instruction 1:
***     Elapsed wall time        = 0.03837 seconds
***       |--> S.join            = 0.000191 seconds
***       |--> S.solve           = 0.018931 seconds
***       |--> S.split           = 0.000571 seconds
***       |--> Tensor update     = 0.018613 seconds
***              |--> create     = 0.001334 seconds
***              |--> destroy    = 0.00039 seconds
***              |--> disk write = 0.007498 seconds
***              |--> disk read  = 0.006489 seconds
***              |--> calc       = 0.002893 seconds
***     Disk write bandwidth     = 68.9799832038544 MB/s
***     Disk read  bandwidth     = 80.1127576776564 MB/s
***     Minimum energy           = -75.6256105195778
***     Maximum discarded weight = 0
******************************************************************
   Stats: nIt(DAVIDSON) = 1
Energy at sites (0, 1) is -75.6256105195778
   Stats: nIt(DAVIDSON) = 1
Energy at sites (1, 2) is -75.6256105195778
   Stats: nIt(DAVIDSON) = 1
Energy at sites (2, 3) is -75.6256105195778
   Stats: nIt(DAVIDSON) = 1
Energy at sites (3, 4) is -75.6256105195778
   Stats: nIt(DAVIDSON) = 1
Energy at sites (4, 5) is -75.6256105195778
   Stats: nIt(DAVIDSON) = 1
Energy at sites (5, 6) is -75.6256105195778
   Stats: nIt(DAVIDSON) = 1
Energy at sites (6, 7) is -75.6256105195778
******************************************************************
***  Information on right sweep 0 of instruction 1:
***     Elapsed wall time        = 0.038017 seconds
***       |--> S.join            = 0.00018 seconds
***       |--> S.solve           = 0.018854 seconds
***       |--> S.split           = 0.000645 seconds
***       |--> Tensor update     = 0.018267 seconds
***              |--> create     = 0.001236 seconds
***              |--> destroy    = 0.000369 seconds
***              |--> disk write = 0.007428 seconds
***              |--> disk read  = 0.006154 seconds
***              |--> calc       = 0.003069 seconds
***     Disk write bandwidth     = 69.9854179550771 MB/s
***     Disk read  bandwidth     = 84.0448349142834 MB/s
***     Minimum energy           = -75.6256105195778
***     Maximum discarded weight = 0
***     Energy difference with respect to previous leftright sweep = 0
******************************************************************
***  Information on completed instruction 1:
***     The reduced virtual dimension DSU(2)               = 500
***     The total number of reduced MPS variables          = 2447
***     Minimum energy encountered during all instructions = -75.6256105195779
***     Minimum energy encountered during the last sweep   = -75.6256105195778
***     Maximum discarded weight during the last sweep     = 0
******************************************************************
   Stats: nIt(DAVIDSON) = 1
Energy at sites (7, 8) is -75.6256105195778
   Stats: nIt(DAVIDSON) = 1
[...]
***       |--> Tensor update     = 0.017398 seconds
***              |--> create     = 0.001179 seconds
***              |--> destroy    = 0.000379 seconds
***              |--> disk write = 0.007206 seconds
***              |--> disk read  = 0.005979 seconds
***              |--> calc       = 0.002645 seconds
***     Disk write bandwidth     = 71.8799922455029 MB/s
***     Disk read  bandwidth     = 85.7455133494575 MB/s
***     Minimum energy           = -75.741268763374
***     Maximum discarded weight = 0
***     Energy difference with respect to previous leftright sweep = 1.4210854715202e-14
******************************************************************
***  Information on completed instruction 3:
***     The reduced virtual dimension DSU(2)               = 1000
***     The total number of reduced MPS variables          = 2320
***     Minimum energy encountered during all instructions = -75.741268763374
***     Minimum energy encountered during the last sweep   = -75.741268763374
***     Maximum discarded weight during the last sweep     = 0
******************************************************************


                    ----------------------------------------
                      Density Matrix Renormalization Group
                               Sebastian Wouters
                    ----------------------------------------
MPS files will be dumped to "/Users/york/src/forte/tests/methods/dmrgscf-2/1B1_CAS9"

   CheMPS2: a spin-adapted implementation of DMRG for ab initio quantum chemistry
   Copyright (C) 2013-2021 Sebastian Wouters

   This program is free software; you can redistribute it and/or modify
   it under the terms of the GNU General Public License as published by
   the Free Software Foundation; either version 2 of the License, or
   (at your option) any later version.

   This program is distributed in the hope that it will be useful,
   but WITHOUT ANY WARRANTY; without even the implied warranty of
   MERCHANTABILITY or FITNESS FOR A PARTICULAR PURPOSE.  See the
   GNU General Public License for more details.

   You should have received a copy of the GNU General Public License along
   with this program; if not, write to the Free Software Foundation, Inc.,
   51 Franklin Street, Fifth Floor, Boston, MA 02110-1301 USA.


  ==> Computing Energy for Singlet (Ms = 0) B1 <==

   Stats: nIt(DAVIDSON) = 11
Energy at sites (7, 8) is -71.9668805458193
   Stats: nIt(DAVIDSON) = 11
Energy at sites (6, 7) is -73.2374912348808
   Stats: nIt(DAVIDSON) = 18
Energy at sites (5, 6) is -74.5443250859114
   Stats: nIt(DAVIDSON) = 22
Energy at sites (4, 5) is -75.6558246056457
   Stats: nIt(DAVIDSON) = 1
Energy at sites (3, 4) is -75.6558246056457
   Stats: nIt(DAVIDSON) = 1
Energy at sites (2, 3) is -75.6558246056457
   Stats: nIt(DAVIDSON) = 1
Energy at sites (1, 2) is -75.6558246056457
******************************************************************
***  Information on left sweep 0 of instruction 0:
***     Elapsed wall time        = 0.284321 seconds
***       |--> S.join            = 0.000189 seconds
***       |--> S.solve           = 0.264642 seconds
***       |--> S.split           = 0.000554 seconds
***       |--> Tensor update     = 0.018838 seconds
***              |--> create     = 0.001288 seconds
***              |--> destroy    = 0.000397 seconds
***              |--> disk write = 0.00783 seconds
***              |--> disk read  = 0.006367 seconds
***              |--> calc       = 0.002946 seconds
***     Disk write bandwidth     = 66.055161438378 MB/s
***     Disk read  bandwidth     = 81.6478222978346 MB/s
***     Minimum energy           = -75.6558246056457
***     Maximum discarded weight = 0
******************************************************************
   Stats: nIt(DAVIDSON) = 1
Energy at sites (0, 1) is -75.6558246056457
   Stats: nIt(DAVIDSON) = 1
Energy at sites (1, 2) is -75.6558246056457
   Stats: nIt(DAVIDSON) = 1
Energy at sites (2, 3) is -75.6558246056457
   Stats: nIt(DAVIDSON) = 1
Energy at sites (3, 4) is -75.6558246056457
   Stats: nIt(DAVIDSON) = 1
Energy at sites (4, 5) is -75.6558246056457
   Stats: nIt(DAVIDSON) = 1
Energy at sites (5, 6) is -75.6558246056457
   Stats: nIt(DAVIDSON) = 1
Energy at sites (6, 7) is -75.6558246056457
******************************************************************
***  Information on right sweep 0 of instruction 0:
***     Elapsed wall time        = 0.039653 seconds
***       |--> S.join            = 0.00018 seconds
***       |--> S.solve           = 0.019793 seconds
***       |--> S.split           = 0.000825 seconds
***       |--> Tensor update     = 0.018762 seconds
***              |--> create     = 0.001329 seconds
***              |--> destroy    = 0.000393 seconds
***              |--> disk write = 0.007495 seconds
***              |--> disk read  = 0.006319 seconds
***              |--> calc       = 0.003223 seconds
***     Disk write bandwidth     = 69.3597978079136 MB/s
***     Disk read  bandwidth     = 81.8502791679854 MB/s
***     Minimum energy           = -75.6558246056457
***     Maximum discarded weight = 0
***     Energy difference with respect to previous leftright sweep = 75.6558246056457
******************************************************************
   Stats: nIt(DAVIDSON) = 1
Energy at sites (7, 8) is -75.6558246056457
   Stats: nIt(DAVIDSON) = 1
Energy at sites (6, 7) is -75.6558246056457
   Stats: nIt(DAVIDSON) = 1
Energy at sites (5, 6) is -75.6558246056457
   Stats: nIt(DAVIDSON) = 1
Energy at sites (4, 5) is -75.6558246056457
   Stats: nIt(DAVIDSON) = 1
Energy at sites (3, 4) is -75.6558246056458
   Stats: nIt(DAVIDSON) = 1
Energy at sites (2, 3) is -75.6558246056457
   Stats: nIt(DAVIDSON) = 1
Energy at sites (1, 2) is -75.6558246056457
******************************************************************
***  Information on left sweep 1 of instruction 0:
***     Elapsed wall time        = 0.039008 seconds
***       |--> S.join            = 0.000189 seconds
***       |--> S.solve           = 0.019223 seconds
***       |--> S.split           = 0.000834 seconds
***       |--> Tensor update     = 0.01867 seconds
***              |--> create     = 0.001191 seconds
***              |--> destroy    = 0.000398 seconds
***              |--> disk write = 0.007897 seconds
***              |--> disk read  = 0.006097 seconds
***              |--> calc       = 0.003077 seconds
***     Disk write bandwidth     = 65.4947339575155 MB/s
***     Disk read  bandwidth     = 85.2635205134185 MB/s
***     Minimum energy           = -75.6558246056458
***     Maximum discarded weight = 0
******************************************************************
   Stats: nIt(DAVIDSON) = 1
Energy at sites (0, 1) is -75.6558246056457
   Stats: nIt(DAVIDSON) = 1
Energy at sites (1, 2) is -75.6558246056457
   Stats: nIt(DAVIDSON) = 1
Energy at sites (2, 3) is -75.6558246056457
   Stats: nIt(DAVIDSON) = 1
Energy at sites (3, 4) is -75.6558246056458
   Stats: nIt(DAVIDSON) = 1
Energy at sites (4, 5) is -75.6558246056457
   Stats: nIt(DAVIDSON) = 1
Energy at sites (5, 6) is -75.6558246056457
   Stats: nIt(DAVIDSON) = 1
Energy at sites (6, 7) is -75.6558246056457
******************************************************************
***  Information on right sweep 1 of instruction 0:
***     Elapsed wall time        = 0.039265 seconds
***       |--> S.join            = 0.000178 seconds
***       |--> S.solve           = 0.018804 seconds
***       |--> S.split           = 0.001031 seconds
***       |--> Tensor update     = 0.019184 seconds
***              |--> create     = 0.001158 seconds
***              |--> destroy    = 0.00038 seconds
***              |--> disk write = 0.007596 seconds
***              |--> disk read  = 0.005935 seconds
***              |--> calc       = 0.004108 seconds
***     Disk write bandwidth     = 68.437557210415 MB/s
***     Disk read  bandwidth     = 87.1460680812974 MB/s
***     Minimum energy           = -75.6558246056458
***     Maximum discarded weight = 0
***     Energy difference with respect to previous leftright sweep = 0
******************************************************************
***  Information on completed instruction 0:
***     The reduced virtual dimension DSU(2)               = 200
***     The total number of reduced MPS variables          = 2447
***     Minimum energy encountered during all instructions = -75.6558246056458
***     Minimum energy encountered during the last sweep   = -75.6558246056458
***     Maximum discarded weight during the last sweep     = 0
******************************************************************
   Stats: nIt(DAVIDSON) = 1
Energy at sites (7, 8) is -75.6558246056457
   Stats: nIt(DAVIDSON) = 1
Energy at sites (6, 7) is -75.6558246056457
   Stats: nIt(DAVIDSON) = 1
Energy at sites (5, 6) is -75.6558246056457
   Stats: nIt(DAVIDSON) = 1
Energy at sites (4, 5) is -75.6558246056457
   Stats: nIt(DAVIDSON) = 1
Energy at sites (3, 4) is -75.6558246056457
   Stats: nIt(DAVIDSON) = 1
Energy at sites (2, 3) is -75.6558246056457
   Stats: nIt(DAVIDSON) = 1
Energy at sites (1, 2) is -75.6558246056457
******************************************************************
***  Information on left sweep 0 of instruction 1:
***     Elapsed wall time        = 0.039836 seconds
***       |--> S.join            = 0.000187 seconds
***       |--> S.solve           = 0.018686 seconds
***       |--> S.split           = 0.000882 seconds
***       |--> Tensor update     = 0.020017 seconds
***              |--> create     = 0.001175 seconds
***              |--> destroy    = 0.000428 seconds
***              |--> disk write = 0.009024 seconds
***              |--> disk read  = 0.006156 seconds
***              |--> calc       = 0.003224 seconds
***     Disk write bandwidth     = 57.3151500512522 MB/s
***     Disk read  bandwidth     = 84.4463425227928 MB/s
***     Minimum energy           = -75.6558246056457
***     Maximum discarded weight = 0
******************************************************************
   Stats: nIt(DAVIDSON) = 1
Energy at sites (0, 1) is -75.6558246056457
   Stats: nIt(DAVIDSON) = 1
Energy at sites (1, 2) is -75.6558246056457
   Stats: nIt(DAVIDSON) = 1
Energy at sites (2, 3) is -75.6558246056457
   Stats: nIt(DAVIDSON) = 1
Energy at sites (3, 4) is -75.6558246056457
   Stats: nIt(DAVIDSON) = 1
Energy at sites (4, 5) is -75.6558246056457
   Stats: nIt(DAVIDSON) = 1
Energy at sites (5, 6) is -75.6558246056457
   Stats: nIt(DAVIDSON) = 1
Energy at sites (6, 7) is -75.6558246056457
******************************************************************
***  Information on right sweep 0 of instruction 1:
***     Elapsed wall time        = 0.039752 seconds
***       |--> S.join            = 0.000216 seconds
***       |--> S.solve           = 0.018703 seconds
***       |--> S.split           = 0.00089 seconds
***       |--> Tensor update     = 0.019882 seconds
***              |--> create     = 0.001159 seconds
***              |--> destroy    = 0.000379 seconds
***              |--> disk write = 0.008841 seconds
***              |--> disk read  = 0.005985 seconds
***              |--> calc       = 0.003505 seconds
***     Disk write bandwidth     = 58.8001000531968 MB/s
***     Disk read  bandwidth     = 86.4180307539683 MB/s
***     Minimum energy           = -75.6558246056457
***     Maximum discarded weight = 0
***     Energy difference with respect to previous leftright sweep = 1.4210854715202e-14
******************************************************************
***  Information on completed instruction 1:
***     The reduced virtual dimension DSU(2)               = 500
***     The total number of reduced MPS variables          = 2447
***     Minimum energy encountered during all instructions = -75.6558246056458
***     Minimum energy encountered during the last sweep   = -75.6558246056457
***     Maximum discarded weight during the last sweep     = 0
******************************************************************
   Stats: nIt(DAVIDSON) = 1
Energy at sites (7, 8) is -75.6558246056457
   Stats: nIt(DAVIDSON) = 1
Energy at sites (6, 7) is -75.6558246056457
   Stats: nIt(DAVIDSON) = 1
Energy at sites (5, 6) is -75.6558246056457
   Stats: nIt(DAVIDSON) = 1
Energy at sites (4, 5) is -75.6558246056457
   Stats: nIt(DAVIDSON) = 1
Energy at sites (3, 4) is -75.6558246056458
   Stats: nIt(DAVIDSON) = 1
Energy at sites (2, 3) is -75.6558246056457
   Stats: nIt(DAVIDSON) = 1
Energy at sites (1, 2) is -75.6558246056457
******************************************************************
***  Information on left sweep 0 of instruction 2:
***     Elapsed wall time        = 0.04151 seconds
***       |--> S.join            = 0.000191 seconds
***       |--> S.solve           = 0.019394 seconds
***       |--> S.split           = 0.001266 seconds
***       |--> Tensor update     = 0.020573 seconds
***              |--> create     = 0.001208 seconds
***              |--> destroy    = 0.000439 seconds
***              |--> disk write = 0.008986 seconds
***              |--> disk read  = 0.006264 seconds
***              |--> calc       = 0.003664 seconds
***     Disk write bandwidth     = 57.5575243781994 MB/s
***     Disk read  bandwidth     = 82.990371099986 MB/s
***     Minimum energy           = -75.6558246056458
***     Maximum discarded weight = 0
******************************************************************
   Stats: nIt(DAVIDSON) = 1
Energy at sites (0, 1) is -75.6558246056457
   Stats: nIt(DAVIDSON) = 1
Energy at sites (1, 2) is -75.6558246056457
   Stats: nIt(DAVIDSON) = 1
Energy at sites (2, 3) is -75.6558246056457
   Stats: nIt(DAVIDSON) = 1
Energy at sites (3, 4) is -75.6558246056458
   Stats: nIt(DAVIDSON) = 1
Energy at sites (4, 5) is -75.6558246056457
   Stats: nIt(DAVIDSON) = 1
Energy at sites (5, 6) is -75.6558246056457
   Stats: nIt(DAVIDSON) = 1
Energy at sites (6, 7) is -75.6558246056457
******************************************************************
***  Information on right sweep 0 of instruction 2:
***     Elapsed wall time        = 0.038559 seconds
***       |--> S.join            = 0.000179 seconds
***       |--> S.solve           = 0.018886 seconds
***       |--> S.split           = 0.000791 seconds
***       |--> Tensor update     = 0.018627 seconds
***              |--> create     = 0.001182 seconds
***              |--> destroy    = 0.000395 seconds
***              |--> disk write = 0.007469 seconds
***              |--> disk read  = 0.006537 seconds
***              |--> calc       = 0.003035 seconds
***     Disk write bandwidth     = 69.6012430807755 MB/s
***     Disk read  bandwidth     = 79.1206844213707 MB/s
***     Minimum energy           = -75.6558246056458
***     Maximum discarded weight = 0
***     Energy difference with respect to previous leftright sweep = 0
******************************************************************
***  Information on completed instruction 2:
***     The reduced virtual dimension DSU(2)               = 1000
***     The total number of reduced MPS variables          = 2447
***     Minimum energy encountered during all instructions = -75.6558246056458
***     Minimum energy encountered during the last sweep   = -75.6558246056458
***     Maximum discarded weight during the last sweep     = 0
******************************************************************
   Stats: nIt(DAVIDSON) = 1
Energy at sites (7, 8) is -75.6558246056457
   Stats: nIt(DAVIDSON) = 1
Energy at sites (6, 7) is -75.6558246056457
   Stats: nIt(DAVIDSON) = 1
Energy at sites (5, 6) is -75.6558246056457
   Stats: nIt(DAVIDSON) = 1
Energy at sites (4, 5) is -75.6558246056457
   Stats: nIt(DAVIDSON) = 1
Energy at sites (3, 4) is -75.6558246056457
   Stats: nIt(DAVIDSON) = 1
Energy at sites (2, 3) is -75.6558246056457
   Stats: nIt(DAVIDSON) = 1
Energy at sites (1, 2) is -75.6558246056457
******************************************************************
***  Information on left sweep 0 of instruction 3:
***     Elapsed wall time        = 0.039186 seconds
***       |--> S.join            = 0.000191 seconds
***       |--> S.solve           = 0.018782 seconds
***       |--> S.split           = 0.00107 seconds
***       |--> Tensor update     = 0.019073 seconds
***              |--> create     = 0.001171 seconds
***              |--> destroy    = 0.000404 seconds
***              |--> disk write = 0.008296 seconds
***              |--> disk read  = 0.006388 seconds
***              |--> calc       = 0.002804 seconds
***     Disk write bandwidth     = 62.3447340962512 MB/s
***     Disk read  bandwidth     = 81.379412111821 MB/s
***     Minimum energy           = -75.6558246056457
***     Maximum discarded weight = 0
******************************************************************
   Stats: nIt(DAVIDSON) = 1
Energy at sites (0, 1) is -75.6558246056457
   Stats: nIt(DAVIDSON) = 1
Energy at sites (1, 2) is -75.6558246056457
   Stats: nIt(DAVIDSON) = 1
Energy at sites (2, 3) is -75.6558246056457
   Stats: nIt(DAVIDSON) = 1
Energy at sites (3, 4) is -75.6558246056457
   Stats: nIt(DAVIDSON) = 1
Energy at sites (4, 5) is -75.6558246056457
   Stats: nIt(DAVIDSON) = 1
Energy at sites (5, 6) is -75.6558246056457
   Stats: nIt(DAVIDSON) = 1
Energy at sites (6, 7) is -75.6558246056457
******************************************************************
***  Information on right sweep 0 of instruction 3:
***     Elapsed wall time        = 0.040744 seconds
***       |--> S.join            = 0.00019 seconds
***       |--> S.solve           = 0.018897 seconds
***       |--> S.split           = 0.000984 seconds
***       |--> Tensor update     = 0.020599 seconds
***              |--> create     = 0.00117 seconds
***              |--> destroy    = 0.000431 seconds
***              |--> disk write = 0.007681 seconds
***              |--> disk read  = 0.006353 seconds
***              |--> calc       = 0.004954 seconds
***     Disk write bandwidth     = 67.6802089012254 MB/s
***     Disk read  bandwidth     = 81.4122326558319 MB/s
***     Minimum energy           = -75.6558246056457
***     Maximum discarded weight = 0
***     Energy difference with respect to previous leftright sweep = 0
******************************************************************
***  Information on completed instruction 3:
***     The reduced virtual dimension DSU(2)               = 1000
***     The total number of reduced MPS variables          = 2447
***     Minimum energy encountered during all instructions = -75.6558246056458
***     Minimum energy encountered during the last sweep   = -75.6558246056457
***     Maximum discarded weight during the last sweep     = 0
******************************************************************


  ==> Energy Summary <==

    Multi.(2ms)  Irrep.  No.               Energy      <S^2>
    --------------------------------------------------------
       1  (  0)    A1     0      -76.093220352028       n/a
       1  (  0)    A1     1      -75.709001328200       n/a
    --------------------------------------------------------
       1  (  0)    A2     0      -75.741268763374       n/a
    --------------------------------------------------------
       1  (  0)    B1     0      -75.655824605646       n/a
    --------------------------------------------------------

  Time to prepare integrals:        0.077 seconds
  Time to run job          :       41.528 seconds
  Total                    :       41.606 seconds
    DMRG-SCF Energy on Root 0 of Singlet A1 State.........................................PASSED
    DMRG-SCF Energy on Root 1 of Singlet A1 State.........................................PASSED
    DMRG-SCF Energy on Root 0 of Singlet A2 State.........................................PASSED
    DMRG-SCF Energy on Root 0 of Singlet B1 State.........................................PASSED

    Psi4 stopped on: Monday, 17 January 2022 01:04AM
    Psi4 wall time for execution: 0:00:43.14

*** Psi4 exiting successfully. Buy a developer a beer!
