    -----------------------------------------------------------------------
          Psi4: An Open-Source Ab Initio Electronic Structure Package
                              Psi4 0.1.224 Driver

                          Git: Rev {detached?} ec8115e dirty

    J. M. Turney, A. C. Simmonett, R. M. Parrish, E. G. Hohenstein,
    F. A. Evangelista, J. T. Fermann, B. J. Mintz, L. A. Burns, J. J. Wilke,
    M. L. Abrams, N. J. Russ, M. L. Leininger, C. L. Janssen, E. T. Seidl,
    W. D. Allen, H. F. Schaefer, R. A. King, E. F. Valeev, C. D. Sherrill,
    and T. D. Crawford, WIREs Comput. Mol. Sci. 2, 556-565 (2012)
    (doi: 10.1002/wcms.93)

                         Additional Contributions by
    A. E. DePrince, M. Saitow, U. Bozkaya, A. Yu. Sokolov
    -----------------------------------------------------------------------


    Psi4 started on: 10-22-2015  11:44:07 AM EDT

    Process ID:  32288
    PSI4DATADIR: /Users/kevinhannon/Programs/psi4cmake/psi4/lib
    Memory level set to 256.000 MB

  ==> Input File <==

--------------------------------------------------------------------------
#! Generated using commit GITCOMMIT

import forte

refscf     = -15.50490325102
refcasscf  = -15.51070257217

molecule {
  0 1
  Be        0.000000000000     0.000000000000     0.000000000000
  H         0.000000000000     1.390000000000     2.500000000000
  H         0.000000000000    -1.390000000000     2.500000000000
  units bohr
  no_reorient
}

set globals{
   scf_type             out_of_core
   d_convergence        10
   e_convergence        10
   basis                3-21g
   restricted_docc                 [2,0,0,0]
   active                          [1,0,0,1]
   maxiter              20
   reference            RHF
}

scf = energy('scf')

set scf_type direct
set forte{
   CASSCF_REFERENCE    true
   CASSCF_ITERATIONS   25
   restricted_docc      [2,0,0,0]
   active               [1,0,0,1]
   int_type             conventional
   cholesky_tolerance   1e-10
   print                0
}
casscf = energy('forte')

compare_values(refscf, scf, 8, "SCF ENERGY")
compare_values(refcasscf, casscf, 6, "CASSCF ENERGY")
--------------------------------------------------------------------------
/Users/kevinhannon/Programs/forte/forte.so loaded.

*** tstart() called on dhcp189-176.emerson.emory.edu
*** at Thu Oct 22 11:44:07 2015


         ---------------------------------------------------------
                                   SCF
            by Justin Turney, Rob Parrish, and Andy Simmonett
                              RHF Reference
                        1 Threads,    256 MiB Core
         ---------------------------------------------------------

  ==> Geometry <==

    Molecular point group: c2v
    Full point group: C2v

    Geometry (in Bohr), charge = 0, multiplicity = 1:

       Center              X                  Y                   Z       
    ------------   -----------------  -----------------  -----------------
          BE          0.000000000000     0.000000000000    -0.456946119527
           H         -0.000000000000     1.390000000000     2.043053880473
           H          0.000000000000    -1.390000000000     2.043053880473

  Running in c2v symmetry.

  Rotational constants: A =     15.45786  B =      5.84735  C =      4.24251 [cm^-1]
  Rotational constants: A = 463415.11694  B = 175299.21379  C = 127187.22870 [MHz]
  Nuclear repulsion =    3.156487659063052

  Charge       = 0
  Multiplicity = 1
  Electrons    = 6
  Nalpha       = 3
  Nbeta        = 3

  ==> Algorithm <==

  SCF Algorithm Type is OUT_OF_CORE.
  DIIS enabled.
  MOM disabled.
  Fractional occupation disabled.
  Guess Type is CORE.
  Energy threshold   = 1.00e-10
  Density threshold  = 1.00e-10
  Integral threshold = 0.00e+00

  ==> Primary Basis <==

  Basis Set: 3-21G
    Number of shells: 9
    Number of basis function: 13
    Number of Cartesian functions: 13
    Spherical Harmonics?: false
    Max angular momentum: 1

  ==> Pre-Iterations <==

   -------------------------------------------------------
    Irrep   Nso     Nmo     Nalpha   Nbeta   Ndocc  Nsocc
   -------------------------------------------------------
     A1         7       7       0       0       0       0
     A2         0       0       0       0       0       0
     B1         2       2       0       0       0       0
     B2         4       4       0       0       0       0
   -------------------------------------------------------
    Total      13      13       3       3       3       0
   -------------------------------------------------------

  Starting with a DF guess...

 OEINTS: Overlap, kinetic, potential, dipole, and quadrupole integrals
         stored in file 35.

  ==> Integral Setup <==

  ==> DFJK: Density-Fitted J/K Matrices <==

    J tasked:                  Yes
    K tasked:                  Yes
    wK tasked:                  No
    OpenMP threads:              1
    Integrals threads:           1
    Memory (MB):               183
    Algorithm:                Core
    Integral Cache:           NONE
    Schwarz Cutoff:          1E-12
    Fitting Condition:       1E-12

   => Auxiliary Basis Set <=

  Basis Set: 
    Number of shells: 30
    Number of basis function: 96
    Number of Cartesian functions: 96
    Spherical Harmonics?: false
    Max angular momentum: 3

  Minimum eigenvalue in the overlap matrix is 6.9151243551E-02.
  Using Symmetric Orthogonalization.
  SCF Guess: Core (One-Electron) Hamiltonian.

  ==> Iterations <==

                           Total Energy        Delta E     RMS |[F,P]|

   @DF-RHF iter   1:   -14.33078413949286   -1.43308e+01   1.01584e-01 
   @DF-RHF iter   2:   -15.46655268089617   -1.13577e+00   1.90046e-02 DIIS
   @DF-RHF iter   3:   -15.50336660299848   -3.68139e-02   3.31807e-03 DIIS
   @DF-RHF iter   4:   -15.50493183551878   -1.56523e-03   9.95266e-04 DIIS
   @DF-RHF iter   5:   -15.50506841556104   -1.36580e-04   1.90495e-04 DIIS
   @DF-RHF iter   6:   -15.50507720089982   -8.78534e-06   3.71419e-05 DIIS
   @DF-RHF iter   7:   -15.50507742460651   -2.23707e-07   8.46949e-06 DIIS
   @DF-RHF iter   8:   -15.50507743644106   -1.18346e-08   6.95869e-07 DIIS
   @DF-RHF iter   9:   -15.50507743648586   -4.47926e-11   8.56365e-08 DIIS
   @DF-RHF iter  10:   -15.50507743648679   -9.30811e-13   1.68430e-08 DIIS
   @DF-RHF iter  11:   -15.50507743648681   -2.48690e-14   1.47246e-09 DIIS
   @DF-RHF iter  12:   -15.50507743648682   -3.55271e-15   3.20798e-11 DIIS

  DF guess converged.

  ==> Integral Setup <==

 MINTS: Wrapper to libmints.
   by Justin Turney

   Calculation information:
      Number of atoms:                   3
      Number of AO shells:               9
      Number of SO shells:               7
      Number of primitives:             15
      Number of atomic orbitals:        13
      Number of basis functions:        13

      Number of irreps:                  4
      Integral cutoff                 0.00e+00
      Number of functions per irrep: [   7    0    2    4 ]

 OEINTS: Overlap, kinetic, potential, dipole, and quadrupole integrals
         stored in file 35.

      Computing two-electron integrals...done
      Computed 1270 non-zero two-electron integrals.
        Stored in file 33.

  ==> DiskJK: Disk-Based J/K Matrices <==

    J tasked:                  Yes
    K tasked:                  Yes
    wK tasked:                  No
    Memory (MB):               183
    Schwarz Cutoff:          1E-12

   @RHF iter  13:   -15.50490310244711    1.74334e-04   4.18142e-05 DIIS
   @RHF iter  14:   -15.50490323326330   -1.30816e-07   1.03979e-05 DIIS
   @RHF iter  15:   -15.50490324902443   -1.57611e-08   3.03449e-06 DIIS
   @RHF iter  16:   -15.50490325098710   -1.96267e-09   4.27592e-07 DIIS
   @RHF iter  17:   -15.50490325102858   -4.14779e-11   3.86740e-08 DIIS
   @RHF iter  18:   -15.50490325102890   -3.23297e-13   3.72715e-09 DIIS
   @RHF iter  19:   -15.50490325102889    1.06581e-14   2.25161e-10 DIIS
   @RHF iter  20:   -15.50490325102891   -1.77636e-14   4.22030e-11 DIIS

  ==> Post-Iterations <==

    Orbital Energies (a.u.)
    -----------------------

    Doubly Occupied:                                                      

       1A1    -4.712251     2A1    -0.513669     1B2    -0.269844  

    Virtual:                                                              

       3A1    -0.022166     1B1     0.070636     2B2     0.202776  
       4A1     0.260895     3B2     0.440218     2B1     0.450039  
       5A1     0.454040     6A1     0.541561     4B2     1.299903  
       7A1     1.513643  

    Final Occupation by Irrep:
             A1    A2    B1    B2 
    DOCC [     2,    0,    0,    1 ]

  Energy converged.

  @RHF Final Energy:   -15.50490325102891

   => Energetics <=

    Nuclear Repulsion Energy =              3.1564876590630520
    One-Electron Energy =                 -26.3312547505822572
    Two-Electron Energy =                   7.6698638404902919
    DFT Exchange-Correlation Energy =       0.0000000000000000
    Empirical Dispersion Energy =           0.0000000000000000
    PCM Polarization Energy =               0.0000000000000000
    EFP Energy =                            0.0000000000000000
    Total Energy =                        -15.5049032510289120

    Alert: EFP and PCM quantities not currently incorporated into SCF psivars.

Properties will be evaluated at   0.000000,   0.000000,   0.000000 Bohr
  ==> Properties <==


Properties computed using the SCF density matrix

  Nuclear Dipole Moment: (a.u.)
     X:     0.0000      Y:     0.0000      Z:     2.2583

  Electronic Dipole Moment: (a.u.)
     X:     0.0000      Y:     0.0000      Z:    -3.8059

  Dipole Moment: (a.u.)
     X:     0.0000      Y:     0.0000      Z:    -1.5476     Total:     1.5476

  Dipole Moment: (Debye)
     X:     0.0000      Y:     0.0000      Z:    -3.9337     Total:     3.9337


  Saving occupied orbitals to File 180.

*** tstop() called on dhcp189-176.emerson.emory.edu at Thu Oct 22 11:44:07 2015
Module time:
	user time   =       0.30 seconds =       0.01 minutes
	system time =       0.01 seconds =       0.00 minutes
	total time  =          0 seconds =       0.00 minutes
Total time:
	user time   =       0.30 seconds =       0.01 minutes
	system time =       0.01 seconds =       0.00 minutes
	total time  =          0 seconds =       0.00 minutes
Reading options from the FORTE block
Calling plugin /Users/kevinhannon/Programs/forte/forte.so.


  ==> MO Space Information <==

  Read options for space RESTRICTED_DOCC
  Read options for space ACTIVE
  -------------------------------------------------
                       A1    A2    B1    B2   Sum
  -------------------------------------------------
    FROZEN_DOCC         0     0     0     0     0
    RESTRICTED_DOCC     2     0     0     0     2
    ACTIVE              1     0     0     1     2
    RESTRICTED_UOCC     4     0     2     3     9
    FROZEN_UOCC         0     0     0     0     0
    Total               7     0     2     4    13
  -------------------------------------------------

  ==> Integral Transformation <==

  Number of molecular orbitals:               13
  Number of correlated molecular orbitals:    13
  Number of frozen occupied orbitals:          0
  Number of frozen unoccupied orbitals:        0


  Overall Conventional Integrals timings


  Integral transformation done. 0.00747900 s
  Reading the two-electron integrals from disk
  Size of two-electron integrals:   0.000638 GB
  Conventional integrals take 0.00963600 s

                -----------------------------------------------
                  Complete Active Space Self Consistent Field
                                 Kevin Hannon
                -----------------------------------------------


  ==> CASSCF Iteration <==
  Irrep: 1 Size: 13 x 13

                 1                   2                   3                   4                   5

    1     0.99999999533573    -0.00000001299173    -0.00006218484785    -0.00000681707283     0.00007184336067
    2    -0.00000000794807     0.99999965669015    -0.00019607097930     0.00077141168738     0.00015827533492
    3     0.00006295498716     0.00043627647952     0.94535250987403    -0.29382986557431    -0.06425936867134
    4     0.00002571844791    -0.00067590063228     0.29383009931458     0.95561904918111    -0.00970592479966
    5    -0.00006770970858    -0.00013738746452     0.06425942109242    -0.00970592493026     0.99787735283949
    6     0.00000136809547     0.00000118427518     0.10884605807193    -0.01644033310974    -0.00359543239603
    7    -0.00001083008101    -0.00014340164634     0.06321174688249    -0.00954768478687    -0.00208803858264
    8     0.00000000000000     0.00000000000000     0.00000000000000     0.00000000000000     0.00000000000000
    9     0.00000000000000     0.00000000000000     0.00000000000000     0.00000000000000     0.00000000000000
   10     0.00000000000000     0.00000000000000     0.00000000000000     0.00000000000000     0.00000000000000
   11     0.00000000000000     0.00000000000000     0.00000000000000     0.00000000000000     0.00000000000000
   12     0.00000000000000     0.00000000000000     0.00000000000000     0.00000000000000     0.00000000000000
   13     0.00000000000000     0.00000000000000     0.00000000000000     0.00000000000000     0.00000000000000

                 6                   7                   8                   9                  10

    1     0.00000563370874     0.00001489633880     0.00000000000000     0.00000000000000     0.00000000000000
    2     0.00003419673146     0.00016394896479     0.00000000000000     0.00000000000000     0.00000000000000
    3    -0.10884605124612    -0.06321169620438     0.00000000000000     0.00000000000000     0.00000000000000
    4    -0.01644034110397    -0.00954768474743     0.00000000000000     0.00000000000000     0.00000000000000
    5    -0.00359543419271    -0.00208803860211     0.00000000000000     0.00000000000000     0.00000000000000
    6     0.99390986256530    -0.00353681318074     0.00000000000000     0.00000000000000     0.00000000000000
    7    -0.00353681491515     0.99794600411299     0.00000000000000     0.00000000000000     0.00000000000000
    8     0.00000000000000     0.00000000000000     1.00000000000000     0.00000000000000     0.00000000000000
    9     0.00000000000000     0.00000000000000     0.00000000000000     1.00000000000000     0.00000000000000
   10     0.00000000000000     0.00000000000000     0.00000000000000     0.00000000000000     0.99999386645825
   11     0.00000000000000     0.00000000000000     0.00000000000000     0.00000000000000     0.00330128293182
   12     0.00000000000000     0.00000000000000     0.00000000000000     0.00000000000000     0.00112592869066
   13     0.00000000000000     0.00000000000000     0.00000000000000     0.00000000000000    -0.00031758694444

                11                  12                  13

    1     0.00000000000000     0.00000000000000     0.00000000000000
    2     0.00000000000000     0.00000000000000     0.00000000000000
    3     0.00000000000000     0.00000000000000     0.00000000000000
    4     0.00000000000000     0.00000000000000     0.00000000000000
    5     0.00000000000000     0.00000000000000     0.00000000000000
    6     0.00000000000000     0.00000000000000     0.00000000000000
    7     0.00000000000000     0.00000000000000     0.00000000000000
    8     0.00000000000000     0.00000000000000     0.00000000000000
    9     0.00000000000000     0.00000000000000     0.00000000000000
   10    -0.00330128293182    -0.00112592869066     0.00031758694444
   11     0.99999455074879    -0.00000185851028     0.00000052422379
   12    -0.00000185851028     0.99999936614035     0.00000017879067
   13     0.00000052422379     0.00000017879067     0.99999994956911




  Integral transformation done. 0.00718100 s
  Reading the two-electron integrals from disk
  Size of two-electron integrals:   0.000638 GB  Irrep: 1 Size: 13 x 13

                 1                   2                   3                   4                   5

    1     0.99999998145763    -0.00000013732851    -0.00008714648863    -0.00001697656592     0.00016602368373
    2    -0.00000013861926     0.99999753128986    -0.00165892812133     0.00115785288916     0.00080284858581
    3     0.00009526513732     0.00176909897754     0.99689830555941    -0.05527390734377    -0.05009345770251
    4     0.00002202578816    -0.00106296382190     0.05527581155561     0.99846935373054    -0.00138704847120
    5    -0.00016144770997    -0.00071685318532     0.05009477729951    -0.00138704097843     0.99874303765010
    6    -0.00002202277399    -0.00015573909370     0.01291644619503    -0.00035761914304    -0.00032408292986
    7    -0.00003120519743    -0.00037373484690     0.02143063455964    -0.00059341572756    -0.00053775267952
    8     0.00000000000000     0.00000000000000     0.00000000000000     0.00000000000000     0.00000000000000
    9     0.00000000000000     0.00000000000000     0.00000000000000     0.00000000000000     0.00000000000000
   10     0.00000000000000     0.00000000000000     0.00000000000000     0.00000000000000     0.00000000000000
   11     0.00000000000000     0.00000000000000     0.00000000000000     0.00000000000000     0.00000000000000
   12     0.00000000000000     0.00000000000000     0.00000000000000     0.00000000000000     0.00000000000000
   13     0.00000000000000     0.00000000000000     0.00000000000000     0.00000000000000     0.00000000000000

                 6                   7                   8                   9                  10

    1     0.00002320264616     0.00003316280215     0.00000000000000     0.00000000000000     0.00000000000000
    2     0.00017791220630     0.00041052373802     0.00000000000000     0.00000000000000     0.00000000000000
    3    -0.01291615763303    -0.02142995848102     0.00000000000000     0.00000000000000     0.00000000000000
    4    -0.00035762202848    -0.00059341687493     0.00000000000000     0.00000000000000     0.00000000000000
    5    -0.00032408379399    -0.00053775081437     0.00000000000000     0.00000000000000     0.00000000000000
    6     0.99991644077573    -0.00013864782820     0.00000000000000     0.00000000000000     0.00000000000000
    7    -0.00013864867878     0.99976993688910     0.00000000000000     0.00000000000000     0.00000000000000
    8     0.00000000000000     0.00000000000000     1.00000000000000     0.00000000000000     0.00000000000000
    9     0.00000000000000     0.00000000000000     0.00000000000000     1.00000000000000     0.00000000000000
   10     0.00000000000000     0.00000000000000     0.00000000000000     0.00000000000000     0.99999610423270
   11     0.00000000000000     0.00000000000000     0.00000000000000     0.00000000000000     0.00169100166806
   12     0.00000000000000     0.00000000000000     0.00000000000000     0.00000000000000     0.00197403315888
   13     0.00000000000000     0.00000000000000     0.00000000000000     0.00000000000000    -0.00101746050407

                11                  12                  13

    1     0.00000000000000     0.00000000000000     0.00000000000000
    2     0.00000000000000     0.00000000000000     0.00000000000000
    3     0.00000000000000     0.00000000000000     0.00000000000000
    4     0.00000000000000     0.00000000000000     0.00000000000000
    5     0.00000000000000     0.00000000000000     0.00000000000000
    6     0.00000000000000     0.00000000000000     0.00000000000000
    7     0.00000000000000     0.00000000000000     0.00000000000000
    8     0.00000000000000     0.00000000000000     0.00000000000000
    9     0.00000000000000     0.00000000000000     0.00000000000000
   10    -0.00169100166806    -0.00197403315888     0.00101746050407
   11     0.99999857025389    -0.00000166904993     0.00000086026538
   12    -0.00000166904993     0.99999805159275     0.00000100425234
   13     0.00000086026538     0.00000100425234     0.99999948238605




  Integral transformation done. 0.00660800 s
  Reading the two-electron integrals from disk
  Size of two-electron integrals:   0.000638 GB  Irrep: 1 Size: 13 x 13

                 1                   2                   3                   4                   5

    1     0.99999999964978    -0.00000001532873    -0.00001817340145     0.00000299077935     0.00001674735711
    2    -0.00000001539549     0.99999919949815    -0.00110254327108     0.00035025680330     0.00041725096770
    3     0.00001864694473     0.00112025251397     0.99956520502622    -0.01821209436353    -0.01739514179928
    4    -0.00000265541511    -0.00033001130681     0.01821247252707     0.99983406242699    -0.00015850822451
    5    -0.00001642703568    -0.00039791358599     0.01739559518082    -0.00015850878422     0.99984858444759
    6    -0.00000722483839    -0.00020967305671     0.01109975276136    -0.00010113357110    -0.00009660601622
    7    -0.00000486092015    -0.00018663304578     0.01052043584388    -0.00009585318023    -0.00009156150440
    8     0.00000000000000     0.00000000000000     0.00000000000000     0.00000000000000     0.00000000000000
    9     0.00000000000000     0.00000000000000     0.00000000000000     0.00000000000000     0.00000000000000
   10     0.00000000000000     0.00000000000000     0.00000000000000     0.00000000000000     0.00000000000000
   11     0.00000000000000     0.00000000000000     0.00000000000000     0.00000000000000     0.00000000000000
   12     0.00000000000000     0.00000000000000     0.00000000000000     0.00000000000000     0.00000000000000
   13     0.00000000000000     0.00000000000000     0.00000000000000     0.00000000000000     0.00000000000000

                 6                   7                   8                   9                  10

    1     0.00000742922901     0.00000505464336     0.00000000000000     0.00000000000000     0.00000000000000
    2     0.00022201184864     0.00019832786047     0.00000000000000     0.00000000000000     0.00000000000000
    3    -0.01109951268571    -0.01052022178013     0.00000000000000     0.00000000000000     0.00000000000000
    4    -0.00010113351281    -0.00009585320684     0.00000000000000     0.00000000000000     0.00000000000000
    5    -0.00009660630166    -0.00009156185313     0.00000000000000     0.00000000000000     0.00000000000000
    6     0.99993836235045    -0.00005841941429     0.00000000000000     0.00000000000000     0.00000000000000
    7    -0.00005841936440     0.99994463076211     0.00000000000000     0.00000000000000     0.00000000000000
    8     0.00000000000000     0.00000000000000     1.00000000000000     0.00000000000000     0.00000000000000
    9     0.00000000000000     0.00000000000000     0.00000000000000     1.00000000000000     0.00000000000000
   10     0.00000000000000     0.00000000000000     0.00000000000000     0.00000000000000     0.99999959245015
   11     0.00000000000000     0.00000000000000     0.00000000000000     0.00000000000000    -0.00073009402600
   12     0.00000000000000     0.00000000000000     0.00000000000000     0.00000000000000     0.00021473950790
   13     0.00000000000000     0.00000000000000     0.00000000000000     0.00000000000000    -0.00048574601751

                11                  12                  13

    1     0.00000000000000     0.00000000000000     0.00000000000000
    2     0.00000000000000     0.00000000000000     0.00000000000000
    3     0.00000000000000     0.00000000000000     0.00000000000000
    4     0.00000000000000     0.00000000000000     0.00000000000000
    5     0.00000000000000     0.00000000000000     0.00000000000000
    6     0.00000000000000     0.00000000000000     0.00000000000000
    7     0.00000000000000     0.00000000000000     0.00000000000000
    8     0.00000000000000     0.00000000000000     0.00000000000000
    9     0.00000000000000     0.00000000000000     0.00000000000000
   10     0.00073009402600    -0.00021473950790     0.00048574601751
   11     0.99999973348130     0.00000007839003    -0.00000017732017
   12     0.00000007839003     0.99999997694347     0.00000005215444
   13    -0.00000017732017     0.00000005215444     0.99999988202538




  Integral transformation done. 0.00702200 s
  Reading the two-electron integrals from disk
  Size of two-electron integrals:   0.000638 GB  Irrep: 1 Size: 13 x 13

                 1                   2                   3                   4                   5

    1     0.99999999991950    -0.00000000188781    -0.00000603534541     0.00000124843644    -0.00001042263354
    2    -0.00000000184783     0.99999951955740    -0.00095913524793     0.00005066306337     0.00016424237229
    3     0.00000592633146     0.00096167879093     0.99990132652977    -0.00729012657728    -0.00805678544020
    4    -0.00000120483309    -0.00004366120739     0.00729017188318     0.99997342443790    -0.00002937296330
    5     0.00001047082271    -0.00015650412319     0.00805693940715    -0.00002937321579     0.99996752896738
    6     0.00000303960290    -0.00007481679479     0.00682464214655    -0.00002487930011    -0.00002750001084
    7     0.00000235451378    -0.00006372973032     0.00563742920356    -0.00002055134808    -0.00002271626877
    8     0.00000000000000     0.00000000000000     0.00000000000000     0.00000000000000     0.00000000000000
    9     0.00000000000000     0.00000000000000     0.00000000000000     0.00000000000000     0.00000000000000
   10     0.00000000000000     0.00000000000000     0.00000000000000     0.00000000000000     0.00000000000000
   11     0.00000000000000     0.00000000000000     0.00000000000000     0.00000000000000     0.00000000000000
   12     0.00000000000000     0.00000000000000     0.00000000000000     0.00000000000000     0.00000000000000
   13     0.00000000000000     0.00000000000000     0.00000000000000     0.00000000000000     0.00000000000000

                 6                   7                   8                   9                  10

    1    -0.00000299878403    -0.00000232079576     0.00000000000000     0.00000000000000     0.00000000000000
    2     0.00008137151644     0.00006914419344     0.00000000000000     0.00000000000000     0.00000000000000
    3    -0.00682456715841    -0.00563736540766     0.00000000000000     0.00000000000000     0.00000000000000
    4    -0.00002487922094    -0.00002055127818     0.00000000000000     0.00000000000000     0.00000000000000
    5    -0.00002750015971    -0.00002271638677     0.00000000000000     0.00000000000000     0.00000000000000
    6     0.99997670818243    -0.00001924004893     0.00000000000000     0.00000000000000     0.00000000000000
    7    -0.00001924005314     0.99998410688190     0.00000000000000     0.00000000000000     0.00000000000000
    8     0.00000000000000     0.00000000000000     1.00000000000000     0.00000000000000     0.00000000000000
    9     0.00000000000000     0.00000000000000     0.00000000000000     1.00000000000000     0.00000000000000
   10     0.00000000000000     0.00000000000000     0.00000000000000     0.00000000000000     0.99999964497126
   11     0.00000000000000     0.00000000000000     0.00000000000000     0.00000000000000    -0.00082333530217
   12     0.00000000000000     0.00000000000000     0.00000000000000     0.00000000000000    -0.00003579394815
   13     0.00000000000000     0.00000000000000     0.00000000000000     0.00000000000000    -0.00017577008274

                11                  12                  13

    1     0.00000000000000     0.00000000000000     0.00000000000000
    2     0.00000000000000     0.00000000000000     0.00000000000000
    3     0.00000000000000     0.00000000000000     0.00000000000000
    4     0.00000000000000     0.00000000000000     0.00000000000000
    5     0.00000000000000     0.00000000000000     0.00000000000000
    6     0.00000000000000     0.00000000000000     0.00000000000000
    7     0.00000000000000     0.00000000000000     0.00000000000000
    8     0.00000000000000     0.00000000000000     0.00000000000000
    9     0.00000000000000     0.00000000000000     0.00000000000000
   10     0.00082333530217     0.00003579394815     0.00017577008274
   11     0.99999966105943    -0.00000001473521    -0.00000007235887
   12    -0.00000001473521     0.99999999935940    -0.00000000314575
   13    -0.00000007235887    -0.00000000314575     0.99999998455244




  Integral transformation done. 0.02291800 s
  Reading the two-electron integrals from disk
  Size of two-electron integrals:   0.000638 GB  Irrep: 1 Size: 13 x 13

                 1                   2                   3                   4                   5

    1     0.99999999994970    -0.00000000019036    -0.00000207691395     0.00000058120507    -0.00000911029265
    2    -0.00000000017748     0.99999976546730    -0.00067550100955     0.00002191536308     0.00009060367972
    3     0.00000202201812     0.00067625414957     0.99997242373144    -0.00340446446293    -0.00426677360523
    4    -0.00000057422763    -0.00001961432540     0.00340447849896     0.99999420449129    -0.00000726410487
    5     0.00000911903744    -0.00008771980297     0.00426683384961    -0.00000726415327     0.99999089305094
    6     0.00000289478337    -0.00003748940938     0.00392751250696    -0.00000668602991    -0.00000838077298
    7     0.00000215328533    -0.00004754704434     0.00307794920303    -0.00000523995472    -0.00000656872643
    8     0.00000000000000     0.00000000000000     0.00000000000000     0.00000000000000     0.00000000000000
    9     0.00000000000000     0.00000000000000     0.00000000000000     0.00000000000000     0.00000000000000
   10     0.00000000000000     0.00000000000000     0.00000000000000     0.00000000000000     0.00000000000000
   11     0.00000000000000     0.00000000000000     0.00000000000000     0.00000000000000     0.00000000000000
   12     0.00000000000000     0.00000000000000     0.00000000000000     0.00000000000000     0.00000000000000
   13     0.00000000000000     0.00000000000000     0.00000000000000     0.00000000000000     0.00000000000000

                 6                   7                   8                   9                  10

    1    -0.00000288673398    -0.00000214697712     0.00000000000000     0.00000000000000     0.00000000000000
    2     0.00004014395477     0.00004962737879     0.00000000000000     0.00000000000000     0.00000000000000
    3    -0.00392748627711    -0.00307791636802     0.00000000000000     0.00000000000000     0.00000000000000
    4    -0.00000668601852    -0.00000523993186     0.00000000000000     0.00000000000000     0.00000000000000
    5    -0.00000838081454    -0.00000656874154     0.00000000000000     0.00000000000000     0.00000000000000
    6     0.99999228651034    -0.00000604531101     0.00000000000000     0.00000000000000     0.00000000000000
    7    -0.00000604532708     0.99999526191687     0.00000000000000     0.00000000000000     0.00000000000000
    8     0.00000000000000     0.00000000000000     1.00000000000000     0.00000000000000     0.00000000000000
    9     0.00000000000000     0.00000000000000     0.00000000000000     1.00000000000000     0.00000000000000
   10     0.00000000000000     0.00000000000000     0.00000000000000     0.00000000000000     0.99999978266055
   11     0.00000000000000     0.00000000000000     0.00000000000000     0.00000000000000    -0.00064772887503
   12     0.00000000000000     0.00000000000000     0.00000000000000     0.00000000000000    -0.00008950078778
   13     0.00000000000000     0.00000000000000     0.00000000000000     0.00000000000000    -0.00008435495574

                11                  12                  13

    1     0.00000000000000     0.00000000000000     0.00000000000000
    2     0.00000000000000     0.00000000000000     0.00000000000000
    3     0.00000000000000     0.00000000000000     0.00000000000000
    4     0.00000000000000     0.00000000000000     0.00000000000000
    5     0.00000000000000     0.00000000000000     0.00000000000000
    6     0.00000000000000     0.00000000000000     0.00000000000000
    7     0.00000000000000     0.00000000000000     0.00000000000000
    8     0.00000000000000     0.00000000000000     0.00000000000000
    9     0.00000000000000     0.00000000000000     0.00000000000000
   10     0.00064772887503     0.00008950078778     0.00008435495574
   11     0.99999979022363    -0.00000002898613    -0.00000002731957
   12    -0.00000002898613     0.99999999599480    -0.00000000377492
   13    -0.00000002731957    -0.00000000377492     0.99999999644212




  Integral transformation done. 0.00758400 s
  Reading the two-electron integrals from disk
  Size of two-electron integrals:   0.000638 GB  Irrep: 1 Size: 13 x 13

                 1                   2                   3                   4                   5

    1     0.99999999997864    -0.00000000003769    -0.00000108027701     0.00000034523618    -0.00000588459840
    2    -0.00000000003435     0.99999988763088    -0.00046799723899     0.00002233149044     0.00005731219031
    3     0.00000105951522     0.00046828495148     0.99999153029115    -0.00176014183720    -0.00238287121654
    4    -0.00000034335300    -0.00002150748982     0.00176015209903     0.99999845069447    -0.00000209773963
    5     0.00000588714785    -0.00005619665942     0.00238289777941    -0.00000209774707     0.99999715929085
    6     0.00000218002622    -0.00002191932842     0.00223369734398    -0.00000196606636    -0.00000266196395
    7     0.00000144110913    -0.00003669249147     0.00171888984963    -0.00000151315660    -0.00000204901250
    8     0.00000000000000     0.00000000000000     0.00000000000000     0.00000000000000     0.00000000000000
    9     0.00000000000000     0.00000000000000     0.00000000000000     0.00000000000000     0.00000000000000
   10     0.00000000000000     0.00000000000000     0.00000000000000     0.00000000000000     0.00000000000000
   11     0.00000000000000     0.00000000000000     0.00000000000000     0.00000000000000     0.00000000000000
   12     0.00000000000000     0.00000000000000     0.00000000000000     0.00000000000000     0.00000000000000
   13     0.00000000000000     0.00000000000000     0.00000000000000     0.00000000000000     0.00000000000000

                 6                   7                   8                   9                  10

    1    -0.00000217763639    -0.00000143927010     0.00000000000000     0.00000000000000     0.00000000000000
    2     0.00002296501591     0.00003749717379     0.00000000000000     0.00000000000000     0.00000000000000
    3    -0.00223368684014    -0.00171887248549     0.00000000000000     0.00000000000000     0.00000000000000
    4    -0.00000196606783    -0.00000151315230     0.00000000000000     0.00000000000000     0.00000000000000
    5    -0.00000266197538    -0.00000204901392     0.00000000000000     0.00000000000000     0.00000000000000
    6     0.99999750504505    -0.00000192014813     0.00000000000000     0.00000000000000     0.00000000000000
    7    -0.00000192015504     0.99999852202845     0.00000000000000     0.00000000000000     0.00000000000000
    8     0.00000000000000     0.00000000000000     1.00000000000000     0.00000000000000     0.00000000000000
    9     0.00000000000000     0.00000000000000     0.00000000000000     1.00000000000000     0.00000000000000
   10     0.00000000000000     0.00000000000000     0.00000000000000     0.00000000000000     0.99999990140578
   11     0.00000000000000     0.00000000000000     0.00000000000000     0.00000000000000    -0.00043519711935
   12     0.00000000000000     0.00000000000000     0.00000000000000     0.00000000000000    -0.00007568877969
   13     0.00000000000000     0.00000000000000     0.00000000000000     0.00000000000000    -0.00004542137859

                11                  12                  13

    1     0.00000000000000     0.00000000000000     0.00000000000000
    2     0.00000000000000     0.00000000000000     0.00000000000000
    3     0.00000000000000     0.00000000000000     0.00000000000000
    4     0.00000000000000     0.00000000000000     0.00000000000000
    5     0.00000000000000     0.00000000000000     0.00000000000000
    6     0.00000000000000     0.00000000000000     0.00000000000000
    7     0.00000000000000     0.00000000000000     0.00000000000000
    8     0.00000000000000     0.00000000000000     0.00000000000000
    9     0.00000000000000     0.00000000000000     0.00000000000000
   10     0.00043519711935     0.00007568877969     0.00004542137859
   11     0.99999990530173    -0.00000001646977    -0.00000000988363
   12    -0.00000001646977     0.99999999713560    -0.00000000171894
   13    -0.00000000988363    -0.00000000171894     0.99999999896845




  Integral transformation done. 0.00719100 s
  Reading the two-electron integrals from disk
  Size of two-electron integrals:   0.000638 GB  Irrep: 1 Size: 13 x 13

                 1                   2                   3                   4                   5

    1     0.99999999999258    -0.00000000001734    -0.00000067465360     0.00000021817958    -0.00000339898405
    2    -0.00000000001657     0.99999994861548    -0.00031541029411     0.00002402037457     0.00004027752987
    3     0.00000066758955     0.00031553580595     0.99999727273328    -0.00096589395702    -0.00135845831346
    4    -0.00000021753135    -0.00002371565945     0.00096590148689     0.99999953323529    -0.00000065654726
    5     0.00000339989575    -0.00003984897031     0.00135847095007    -0.00000065654792     0.99999907647735
    6     0.00000143572466    -0.00001542595788     0.00127179735654    -0.00000061439826    -0.00000086415927
    7     0.00000084887617    -0.00002859813756     0.00097936937527    -0.00000047332705    -0.00000066579455
    8     0.00000000000000     0.00000000000000     0.00000000000000     0.00000000000000     0.00000000000000
    9     0.00000000000000     0.00000000000000     0.00000000000000     0.00000000000000     0.00000000000000
   10     0.00000000000000     0.00000000000000     0.00000000000000     0.00000000000000     0.00000000000000
   11     0.00000000000000     0.00000000000000     0.00000000000000     0.00000000000000     0.00000000000000
   12     0.00000000000000     0.00000000000000     0.00000000000000     0.00000000000000     0.00000000000000
   13     0.00000000000000     0.00000000000000     0.00000000000000     0.00000000000000     0.00000000000000

                 6                   7                   8                   9                  10

    1    -0.00000143487113    -0.00000084821890     0.00000000000000     0.00000000000000     0.00000000000000
    2     0.00001582717545     0.00002890710120     0.00000000000000     0.00000000000000     0.00000000000000
    3    -0.00127179242773    -0.00097936030515     0.00000000000000     0.00000000000000     0.00000000000000
    4    -0.00000061439987    -0.00000047332659     0.00000000000000     0.00000000000000     0.00000000000000
    5    -0.00000086416240    -0.00000066579457     0.00000000000000     0.00000000000000     0.00000000000000
    6     0.99999919114465    -0.00000062300059     0.00000000000000     0.00000000000000     0.00000000000000
    7    -0.00000062300283     0.99999952000788     0.00000000000000     0.00000000000000     0.00000000000000
    8     0.00000000000000     0.00000000000000     1.00000000000000     0.00000000000000     0.00000000000000
    9     0.00000000000000     0.00000000000000     0.00000000000000     1.00000000000000     0.00000000000000
   10     0.00000000000000     0.00000000000000     0.00000000000000     0.00000000000000     0.99999995869713
   11     0.00000000000000     0.00000000000000     0.00000000000000     0.00000000000000    -0.00028075978828
   12     0.00000000000000     0.00000000000000     0.00000000000000     0.00000000000000    -0.00005514262545
   13     0.00000000000000     0.00000000000000     0.00000000000000     0.00000000000000    -0.00002718402875

                11                  12                  13

    1     0.00000000000000     0.00000000000000     0.00000000000000
    2     0.00000000000000     0.00000000000000     0.00000000000000
    3     0.00000000000000     0.00000000000000     0.00000000000000
    4     0.00000000000000     0.00000000000000     0.00000000000000
    5     0.00000000000000     0.00000000000000     0.00000000000000
    6     0.00000000000000     0.00000000000000     0.00000000000000
    7     0.00000000000000     0.00000000000000     0.00000000000000
    8     0.00000000000000     0.00000000000000     0.00000000000000
    9     0.00000000000000     0.00000000000000     0.00000000000000
   10     0.00028075978828     0.00005514262545     0.00002718402875
   11     0.99999996058697    -0.00000000774092    -0.00000000381609
   12    -0.00000000774092     0.99999999847965    -0.00000000074950
   13    -0.00000000381609    -0.00000000074950     0.99999999963051




  Integral transformation done. 0.00738800 s
  Reading the two-electron integrals from disk
  Size of two-electron integrals:   0.000638 GB  Irrep: 1 Size: 13 x 13

                 1                   2                   3                   4                   5

    1     0.99999999999758    -0.00000000001314    -0.00000046620077     0.00000014017582    -0.00000187453341
    2    -0.00000000001296     0.99999997694673    -0.00021025212516     0.00002184749003     0.00002890128821
    3     0.00000046386851     0.00021030695674     0.99999909672574    -0.00054837636887    -0.00078208033485
    4    -0.00000013992081    -0.00002173217716     0.00054838095089     0.99999984940295    -0.00000021475290
    5     0.00000187489711    -0.00002873683200     0.00078208639404    -0.00000021475282     0.99999969375564
    6     0.00000092256153    -0.00001126906493     0.00072685407751    -0.00000019941860    -0.00000028439383
    7     0.00000048049365    -0.00002127053532     0.00056713657046    -0.00000015573459    -0.00000022208108
    8     0.00000000000000     0.00000000000000     0.00000000000000     0.00000000000000     0.00000000000000
    9     0.00000000000000     0.00000000000000     0.00000000000000     0.00000000000000     0.00000000000000
   10     0.00000000000000     0.00000000000000     0.00000000000000     0.00000000000000     0.00000000000000
   11     0.00000000000000     0.00000000000000     0.00000000000000     0.00000000000000     0.00000000000000
   12     0.00000000000000     0.00000000000000     0.00000000000000     0.00000000000000     0.00000000000000
   13     0.00000000000000     0.00000000000000     0.00000000000000     0.00000000000000     0.00000000000000

                 6                   7                   8                   9                  10

    1    -0.00000092222352    -0.00000048022991     0.00000000000000     0.00000000000000     0.00000000000000
    2     0.00001142190729     0.00002138979212     0.00000000000000     0.00000000000000     0.00000000000000
    3    -0.00072685169221    -0.00056713208539     0.00000000000000     0.00000000000000     0.00000000000000
    4    -0.00000019941928    -0.00000015573463     0.00000000000000     0.00000000000000     0.00000000000000
    5    -0.00000028439467    -0.00000022208106     0.00000000000000     0.00000000000000     0.00000000000000
    6     0.99999973577754    -0.00000020623261     0.00000000000000     0.00000000000000     0.00000000000000
    7    -0.00000020623324     0.99999983895165     0.00000000000000     0.00000000000000     0.00000000000000
    8     0.00000000000000     0.00000000000000     1.00000000000000     0.00000000000000     0.00000000000000
    9     0.00000000000000     0.00000000000000     0.00000000000000     1.00000000000000     0.00000000000000
   10     0.00000000000000     0.00000000000000     0.00000000000000     0.00000000000000     0.99999998335824
   11     0.00000000000000     0.00000000000000     0.00000000000000     0.00000000000000    -0.00017776579260
   12     0.00000000000000     0.00000000000000     0.00000000000000     0.00000000000000    -0.00003734226386
   13     0.00000000000000     0.00000000000000     0.00000000000000     0.00000000000000    -0.00001698216265

                11                  12                  13

    1     0.00000000000000     0.00000000000000     0.00000000000000
    2     0.00000000000000     0.00000000000000     0.00000000000000
    3     0.00000000000000     0.00000000000000     0.00000000000000
    4     0.00000000000000     0.00000000000000     0.00000000000000
    5     0.00000000000000     0.00000000000000     0.00000000000000
    6     0.00000000000000     0.00000000000000     0.00000000000000
    7     0.00000000000000     0.00000000000000     0.00000000000000
    8     0.00000000000000     0.00000000000000     0.00000000000000
    9     0.00000000000000     0.00000000000000     0.00000000000000
   10     0.00017776579260     0.00003734226386     0.00001698216265
   11     0.99999998419966    -0.00000000331909    -0.00000000150942
   12    -0.00000000331909     0.99999999930278    -0.00000000031708
   13    -0.00000000150942    -0.00000000031708     0.99999999985580




  Integral transformation done. 0.00696000 s
  Reading the two-electron integrals from disk
  Size of two-electron integrals:   0.000638 GB  Irrep: 1 Size: 13 x 13

                 1                   2                   3                   4                   5

    1     0.99999999999924    -0.00000000000869    -0.00000032613255     0.00000009034562    -0.00000100161871
    2    -0.00000000000865     0.99999998982340    -0.00013893348855     0.00001788612566     0.00002065874216
    3     0.00000032537610     0.00013895704623     0.99999969491270    -0.00031779181304    -0.00045303323450
    4    -0.00000009024210    -0.00001784196981     0.00031779429519     0.99999994934421    -0.00000007216988
    5     0.00000100176629    -0.00002059579513     0.00045303610023    -0.00000007216981     0.99999989716654
    6     0.00000058296589    -0.00000821732662     0.00041721837424    -0.00000006636799    -0.00000009459231
    7     0.00000026516230    -0.00001530028429     0.00033251434944    -0.00000005297205    -0.00000007547821
    8     0.00000000000000     0.00000000000000     0.00000000000000     0.00000000000000     0.00000000000000
    9     0.00000000000000     0.00000000000000     0.00000000000000     0.00000000000000     0.00000000000000
   10     0.00000000000000     0.00000000000000     0.00000000000000     0.00000000000000     0.00000000000000
   11     0.00000000000000     0.00000000000000     0.00000000000000     0.00000000000000     0.00000000000000
   12     0.00000000000000     0.00000000000000     0.00000000000000     0.00000000000000     0.00000000000000
   13     0.00000000000000     0.00000000000000     0.00000000000000     0.00000000000000     0.00000000000000

                 6                   7                   8                   9                  10

    1    -0.00000058282998    -0.00000026505398     0.00000000000000     0.00000000000000     0.00000000000000
    2     0.00000827529707     0.00001534648544     0.00000000000000     0.00000000000000     0.00000000000000
    3    -0.00041721722864    -0.00033251222041     0.00000000000000     0.00000000000000     0.00000000000000
    4    -0.00000006636821    -0.00000005297210     0.00000000000000     0.00000000000000     0.00000000000000
    5    -0.00000009459253    -0.00000007547820     0.00000000000000     0.00000000000000     0.00000000000000
    6     0.99999991293047    -0.00000006942841     0.00000000000000     0.00000000000000     0.00000000000000
    7    -0.00000006942858     0.99999994460001     0.00000000000000     0.00000000000000     0.00000000000000
    8     0.00000000000000     0.00000000000000     1.00000000000000     0.00000000000000     0.00000000000000
    9     0.00000000000000     0.00000000000000     0.00000000000000     1.00000000000000     0.00000000000000
   10     0.00000000000000     0.00000000000000     0.00000000000000     0.00000000000000     0.99999999336976
   11     0.00000000000000     0.00000000000000     0.00000000000000     0.00000000000000    -0.00011199138682
   12     0.00000000000000     0.00000000000000     0.00000000000000     0.00000000000000    -0.00002450724903
   13     0.00000000000000     0.00000000000000     0.00000000000000     0.00000000000000    -0.00001085392451

                11                  12                  13

    1     0.00000000000000     0.00000000000000     0.00000000000000
    2     0.00000000000000     0.00000000000000     0.00000000000000
    3     0.00000000000000     0.00000000000000     0.00000000000000
    4     0.00000000000000     0.00000000000000     0.00000000000000
    5     0.00000000000000     0.00000000000000     0.00000000000000
    6     0.00000000000000     0.00000000000000     0.00000000000000
    7     0.00000000000000     0.00000000000000     0.00000000000000
    8     0.00000000000000     0.00000000000000     0.00000000000000
    9     0.00000000000000     0.00000000000000     0.00000000000000
   10     0.00011199138682     0.00002450724903     0.00001085392451
   11     0.99999999372896    -0.00000000137230    -0.00000000060777
   12    -0.00000000137230     0.99999999969970    -0.00000000013300
   13    -0.00000000060777    -0.00000000013300     0.99999999994110




  Integral transformation done. 0.00725200 s
  Reading the two-electron integrals from disk
  Size of two-electron integrals:   0.000638 GB  Irrep: 1 Size: 13 x 13

                 1                   2                   3                   4                   5

    1     0.99999999999976    -0.00000000000508    -0.00000022660886     0.00000005827792    -0.00000052258451
    2    -0.00000000000508     0.99999999555975    -0.00009127646153     0.00001367551496     0.00001455841649
    3     0.00000022636535     0.00009128637969     0.99999989530817    -0.00018668789321    -0.00026377319832
    4    -0.00000005823564    -0.00001365847377     0.00018668914076     0.99999998248030    -0.00000002472118
    5     0.00000052264426    -0.00001453433883     0.00026377452602    -0.00000002472115     0.99999996510574
    6     0.00000036639454    -0.00000588307851     0.00024055987917    -0.00000002249509    -0.00000003176961
    7     0.00000014429407    -0.00001071885779     0.00019685858906    -0.00000001844887    -0.00000002604107
    8     0.00000000000000     0.00000000000000     0.00000000000000     0.00000000000000     0.00000000000000
    9     0.00000000000000     0.00000000000000     0.00000000000000     0.00000000000000     0.00000000000000
   10     0.00000000000000     0.00000000000000     0.00000000000000     0.00000000000000     0.00000000000000
   11     0.00000000000000     0.00000000000000     0.00000000000000     0.00000000000000     0.00000000000000
   12     0.00000000000000     0.00000000000000     0.00000000000000     0.00000000000000     0.00000000000000
   13     0.00000000000000     0.00000000000000     0.00000000000000     0.00000000000000     0.00000000000000

                 6                   7                   8                   9                  10

    1    -0.00000036634006    -0.00000014424948     0.00000000000000     0.00000000000000     0.00000000000000
    2     0.00000590503713     0.00001073682728     0.00000000000000     0.00000000000000     0.00000000000000
    3    -0.00024055934123    -0.00019685760984     0.00000000000000     0.00000000000000     0.00000000000000
    4    -0.00000002249516    -0.00000001844889     0.00000000000000     0.00000000000000     0.00000000000000
    5    -0.00000003176966    -0.00000002604108     0.00000000000000     0.00000000000000     0.00000000000000
    6     0.99999997104810    -0.00000002370968     0.00000000000000     0.00000000000000     0.00000000000000
    7    -0.00000002370972     0.99999998056589     0.00000000000000     0.00000000000000     0.00000000000000
    8     0.00000000000000     0.00000000000000     1.00000000000000     0.00000000000000     0.00000000000000
    9     0.00000000000000     0.00000000000000     0.00000000000000     1.00000000000000     0.00000000000000
   10     0.00000000000000     0.00000000000000     0.00000000000000     0.00000000000000     0.99999999736629
   11     0.00000000000000     0.00000000000000     0.00000000000000     0.00000000000000    -0.00007048684103
   12     0.00000000000000     0.00000000000000     0.00000000000000     0.00000000000000    -0.00001581345255
   13     0.00000000000000     0.00000000000000     0.00000000000000     0.00000000000000    -0.00000699677270

                11                  12                  13

    1     0.00000000000000     0.00000000000000     0.00000000000000
    2     0.00000000000000     0.00000000000000     0.00000000000000
    3     0.00000000000000     0.00000000000000     0.00000000000000
    4     0.00000000000000     0.00000000000000     0.00000000000000
    5     0.00000000000000     0.00000000000000     0.00000000000000
    6     0.00000000000000     0.00000000000000     0.00000000000000
    7     0.00000000000000     0.00000000000000     0.00000000000000
    8     0.00000000000000     0.00000000000000     0.00000000000000
    9     0.00000000000000     0.00000000000000     0.00000000000000
   10     0.00007048684103     0.00001581345255     0.00000699677270
   11     0.99999999751580    -0.00000000055732    -0.00000000024659
   12    -0.00000000055732     0.99999999987497    -0.00000000005532
   13    -0.00000000024659    -0.00000000005532     0.99999999997552




  Integral transformation done. 0.02205200 s
  Reading the two-electron integrals from disk
  Size of two-electron integrals:   0.000638 GB  Irrep: 1 Size: 13 x 13

                 1                   2                   3                   4                   5

    1     0.99999999999992    -0.00000000000272    -0.00000015541194     0.00000003757505    -0.00000026623845
    2    -0.00000000000272     0.99999999808128    -0.00005969722350     0.00001000021024     0.00001010619097
    3     0.00000015533388     0.00005970133241     0.99999996356465    -0.00011077280284    -0.00015433435024
    4    -0.00000003755784    -0.00000999359716     0.00011077339966     0.99999999381469    -0.00000000859856
    5     0.00000026626243    -0.00001009697730     0.00015433495325    -0.00000000859855     0.99999998803935
    6     0.00000022974542    -0.00000413349885     0.00013934191944    -0.00000000773833    -0.00000001077356
    7     0.00000007767223    -0.00000736771173     0.00011747643332    -0.00000000654344    -0.00000000910257
    8     0.00000000000000     0.00000000000000     0.00000000000000     0.00000000000000     0.00000000000000
    9     0.00000000000000     0.00000000000000     0.00000000000000     0.00000000000000     0.00000000000000
   10     0.00000000000000     0.00000000000000     0.00000000000000     0.00000000000000     0.00000000000000
   11     0.00000000000000     0.00000000000000     0.00000000000000     0.00000000000000     0.00000000000000
   12     0.00000000000000     0.00000000000000     0.00000000000000     0.00000000000000     0.00000000000000
   13     0.00000000000000     0.00000000000000     0.00000000000000     0.00000000000000     0.00000000000000

                 6                   7                   8                   9                  10

    1    -0.00000022972377    -0.00000007765398     0.00000000000000     0.00000000000000     0.00000000000000
    2     0.00000414181746     0.00000737472498     0.00000000000000     0.00000000000000     0.00000000000000
    3    -0.00013934167246    -0.00011747599327     0.00000000000000     0.00000000000000     0.00000000000000
    4    -0.00000000773835    -0.00000000654345     0.00000000000000     0.00000000000000     0.00000000000000
    5    -0.00000001077357    -0.00000000910257     0.00000000000000     0.00000000000000     0.00000000000000
    6     0.99999999028335    -0.00000000819993     0.00000000000000     0.00000000000000     0.00000000000000
    7    -0.00000000819994     0.99999999307250     0.00000000000000     0.00000000000000     0.00000000000000
    8     0.00000000000000     0.00000000000000     1.00000000000000     0.00000000000000     0.00000000000000
    9     0.00000000000000     0.00000000000000     0.00000000000000     1.00000000000000     0.00000000000000
   10     0.00000000000000     0.00000000000000     0.00000000000000     0.00000000000000     0.99999999895250
   11     0.00000000000000     0.00000000000000     0.00000000000000     0.00000000000000    -0.00004440866847
   12     0.00000000000000     0.00000000000000     0.00000000000000     0.00000000000000    -0.00001011876363
   13     0.00000000000000     0.00000000000000     0.00000000000000     0.00000000000000    -0.00000452453600

                11                  12                  13

    1     0.00000000000000     0.00000000000000     0.00000000000000
    2     0.00000000000000     0.00000000000000     0.00000000000000
    3     0.00000000000000     0.00000000000000     0.00000000000000
    4     0.00000000000000     0.00000000000000     0.00000000000000
    5     0.00000000000000     0.00000000000000     0.00000000000000
    6     0.00000000000000     0.00000000000000     0.00000000000000
    7     0.00000000000000     0.00000000000000     0.00000000000000
    8     0.00000000000000     0.00000000000000     0.00000000000000
    9     0.00000000000000     0.00000000000000     0.00000000000000
   10     0.00004440866847     0.00001011876363     0.00000452453600
   11     0.99999999901394    -0.00000000022468    -0.00000000010046
   12    -0.00000000022468     0.99999999994881    -0.00000000002289
   13    -0.00000000010046    -0.00000000002289     0.99999999998976




  Integral transformation done. 0.00739100 s
  Reading the two-electron integrals from disk
  Size of two-electron integrals:   0.000638 GB  Irrep: 1 Size: 13 x 13

                 1                   2                   3                   4                   5

    1     0.99999999999997    -0.00000000000137    -0.00000010530498     0.00000002420635    -0.00000013190126
    2    -0.00000000000137     0.99999999917748    -0.00003890656424     0.00000709187138     0.00000692058306
    3     0.00000010528000     0.00003890824623     0.99999998715066    -0.00006625705179    -0.00009075198020
    4    -0.00000002419937    -0.00000708929348     0.00006625732766     0.99999999777985    -0.00000000303102
    5     0.00000013191082    -0.00000691705213     0.00009075224937    -0.00000000303102     0.99999999585808
    6     0.00000014406512    -0.00000285648542     0.00008109727423    -0.00000000269677    -0.00000000368977
    7     0.00000004142211    -0.00000499274680     0.00007058456023    -0.00000000235607    -0.00000000322012
    8     0.00000000000000     0.00000000000000     0.00000000000000     0.00000000000000     0.00000000000000
    9     0.00000000000000     0.00000000000000     0.00000000000000     0.00000000000000     0.00000000000000
   10     0.00000000000000     0.00000000000000     0.00000000000000     0.00000000000000     0.00000000000000
   11     0.00000000000000     0.00000000000000     0.00000000000000     0.00000000000000     0.00000000000000
   12     0.00000000000000     0.00000000000000     0.00000000000000     0.00000000000000     0.00000000000000
   13     0.00000000000000     0.00000000000000     0.00000000000000     0.00000000000000     0.00000000000000

                 6                   7                   8                   9                  10

    1    -0.00000014405658    -0.00000004141468     0.00000000000000     0.00000000000000     0.00000000000000
    2     0.00000285964071     0.00000499549306     0.00000000000000     0.00000000000000     0.00000000000000
    3    -0.00008109716304    -0.00007058436593     0.00000000000000     0.00000000000000     0.00000000000000
    4    -0.00000000269677    -0.00000000235607     0.00000000000000     0.00000000000000     0.00000000000000
    5    -0.00000000368977    -0.00000000322012     0.00000000000000     0.00000000000000     0.00000000000000
    6     0.99999999670753    -0.00000000286924     0.00000000000000     0.00000000000000     0.00000000000000
    7    -0.00000000286924     0.99999999749645     0.00000000000000     0.00000000000000     0.00000000000000
    8     0.00000000000000     0.00000000000000     1.00000000000000     0.00000000000000     0.00000000000000
    9     0.00000000000000     0.00000000000000     0.00000000000000     1.00000000000000     0.00000000000000
   10     0.00000000000000     0.00000000000000     0.00000000000000     0.00000000000000     0.99999999958232
   11     0.00000000000000     0.00000000000000     0.00000000000000     0.00000000000000    -0.00002802168475
   12     0.00000000000000     0.00000000000000     0.00000000000000     0.00000000000000    -0.00000644805588
   13     0.00000000000000     0.00000000000000     0.00000000000000     0.00000000000000    -0.00000292704858

                11                  12                  13

    1     0.00000000000000     0.00000000000000     0.00000000000000
    2     0.00000000000000     0.00000000000000     0.00000000000000
    3     0.00000000000000     0.00000000000000     0.00000000000000
    4     0.00000000000000     0.00000000000000     0.00000000000000
    5     0.00000000000000     0.00000000000000     0.00000000000000
    6     0.00000000000000     0.00000000000000     0.00000000000000
    7     0.00000000000000     0.00000000000000     0.00000000000000
    8     0.00000000000000     0.00000000000000     0.00000000000000
    9     0.00000000000000     0.00000000000000     0.00000000000000
   10     0.00002802168475     0.00000644805588     0.00000292704858
   11     0.99999999960739    -0.00000000009034    -0.00000000004101
   12    -0.00000000009034     0.99999999997921    -0.00000000000944
   13    -0.00000000004101    -0.00000000000944     0.99999999999572




  Integral transformation done. 0.00726600 s
  Reading the two-electron integrals from disk
  Size of two-electron integrals:   0.000638 GB  Irrep: 1 Size: 13 x 13

                 1                   2                   3                   4                   5

    1     0.99999999999999    -0.00000000000066    -0.00000007062919     0.00000001557919    -0.00000006291368
    2    -0.00000000000066     0.99999999964977    -0.00002528425479     0.00000492073609     0.00000468491933
    3     0.00000007062121     0.00002528493760     0.99999999541059    -0.00003990261872    -0.00005363704103
    4    -0.00000001557637    -0.00000491972717     0.00003990274313     0.99999999919178    -0.00000000108166
    5     0.00000006291747    -0.00000468356313     0.00005363715946    -0.00000000108166     0.99999999855056
    6     0.00000009043039    -0.00000194727199     0.00004743182848    -0.00000000095112    -0.00000000127662
    7     0.00000002187742    -0.00000334716448     0.00004266817439    -0.00000000085952    -0.00000000115214
    8     0.00000000000000     0.00000000000000     0.00000000000000     0.00000000000000     0.00000000000000
    9     0.00000000000000     0.00000000000000     0.00000000000000     0.00000000000000     0.00000000000000
   10     0.00000000000000     0.00000000000000     0.00000000000000     0.00000000000000     0.00000000000000
   11     0.00000000000000     0.00000000000000     0.00000000000000     0.00000000000000     0.00000000000000
   12     0.00000000000000     0.00000000000000     0.00000000000000     0.00000000000000     0.00000000000000
   13     0.00000000000000     0.00000000000000     0.00000000000000     0.00000000000000     0.00000000000000

                 6                   7                   8                   9                  10

    1    -0.00000009042704    -0.00000002187441     0.00000000000000     0.00000000000000     0.00000000000000
    2     0.00000194847129     0.00000334824332     0.00000000000000     0.00000000000000     0.00000000000000
    3    -0.00004743177924    -0.00004266808975     0.00000000000000     0.00000000000000     0.00000000000000
    4    -0.00000000095112    -0.00000000085952     0.00000000000000     0.00000000000000     0.00000000000000
    5    -0.00000000127662    -0.00000000115214     0.00000000000000     0.00000000000000     0.00000000000000
    6     0.99999999887321    -0.00000000101517     0.00000000000000     0.00000000000000     0.00000000000000
    7    -0.00000000101517     0.99999999908411     0.00000000000000     0.00000000000000     0.00000000000000
    8     0.00000000000000     0.00000000000000     1.00000000000000     0.00000000000000     0.00000000000000
    9     0.00000000000000     0.00000000000000     0.00000000000000     1.00000000000000     0.00000000000000
   10     0.00000000000000     0.00000000000000     0.00000000000000     0.00000000000000     0.99999999983297
   11     0.00000000000000     0.00000000000000     0.00000000000000     0.00000000000000    -0.00001771058148
   12     0.00000000000000     0.00000000000000     0.00000000000000     0.00000000000000    -0.00000410169094
   13     0.00000000000000     0.00000000000000     0.00000000000000     0.00000000000000    -0.00000189240278

                11                  12                  13

    1     0.00000000000000     0.00000000000000     0.00000000000000
    2     0.00000000000000     0.00000000000000     0.00000000000000
    3     0.00000000000000     0.00000000000000     0.00000000000000
    4     0.00000000000000     0.00000000000000     0.00000000000000
    5     0.00000000000000     0.00000000000000     0.00000000000000
    6     0.00000000000000     0.00000000000000     0.00000000000000
    7     0.00000000000000     0.00000000000000     0.00000000000000
    8     0.00000000000000     0.00000000000000     0.00000000000000
    9     0.00000000000000     0.00000000000000     0.00000000000000
   10     0.00001771058148     0.00000410169094     0.00000189240278
   11     0.99999999984317    -0.00000000003632    -0.00000000001676
   12    -0.00000000003632     0.99999999999159    -0.00000000000388
   13    -0.00000000001676    -0.00000000000388     0.99999999999821




  Integral transformation done. 0.00718900 s
  Reading the two-electron integrals from disk
  Size of two-electron integrals:   0.000638 GB  Irrep: 1 Size: 13 x 13

                 1                   2                   3                   4                   5

    1     1.00000000000000    -0.00000000000031    -0.00000004698348     0.00000001001778    -0.00000002831797
    2    -0.00000000000031     0.99999999985172    -0.00001639285352     0.00000335978235     0.00000314148495
    3     0.00000004698094     0.00001639312918     0.99999999834057    -0.00002417711426    -0.00003186636065
    4    -0.00000001001665    -0.00000335938602     0.00002417716933     0.99999999970209    -0.00000000039050
    5     0.00000002831947    -0.00000314096257     0.00003186641215    -0.00000000039050     0.99999999948733
    6     0.00000005685120    -0.00000131287312     0.00002788304294    -0.00000000033927    -0.00000000044633
    7     0.00000001142722    -0.00000222535867     0.00002593565872    -0.00000000031726    -0.00000000041673
    8     0.00000000000000     0.00000000000000     0.00000000000000     0.00000000000000     0.00000000000000
    9     0.00000000000000     0.00000000000000     0.00000000000000     0.00000000000000     0.00000000000000
   10     0.00000000000000     0.00000000000000     0.00000000000000     0.00000000000000     0.00000000000000
   11     0.00000000000000     0.00000000000000     0.00000000000000     0.00000000000000     0.00000000000000
   12     0.00000000000000     0.00000000000000     0.00000000000000     0.00000000000000     0.00000000000000
   13     0.00000000000000     0.00000000000000     0.00000000000000     0.00000000000000     0.00000000000000

                 6                   7                   8                   9                  10

    1    -0.00000005684989    -0.00000001142600     0.00000000000000     0.00000000000000     0.00000000000000
    2     0.00000131333021     0.00000222578383     0.00000000000000     0.00000000000000     0.00000000000000
    3    -0.00002788302141    -0.00002593562223     0.00000000000000     0.00000000000000     0.00000000000000
    4    -0.00000000033927    -0.00000000031726     0.00000000000000     0.00000000000000     0.00000000000000
    5    -0.00000000044633    -0.00000000041673     0.00000000000000     0.00000000000000     0.00000000000000
    6     0.99999999961040    -0.00000000036304     0.00000000000000     0.00000000000000     0.00000000000000
    7    -0.00000000036304     0.99999999966119     0.00000000000000     0.00000000000000     0.00000000000000
    8     0.00000000000000     0.00000000000000     1.00000000000000     0.00000000000000     0.00000000000000
    9     0.00000000000000     0.00000000000000     0.00000000000000     1.00000000000000     0.00000000000000
   10     0.00000000000000     0.00000000000000     0.00000000000000     0.00000000000000     0.99999999993301
   11     0.00000000000000     0.00000000000000     0.00000000000000     0.00000000000000    -0.00001121087577
   12     0.00000000000000     0.00000000000000     0.00000000000000     0.00000000000000    -0.00000260775658
   13     0.00000000000000     0.00000000000000     0.00000000000000     0.00000000000000    -0.00000122222801

                11                  12                  13

    1     0.00000000000000     0.00000000000000     0.00000000000000
    2     0.00000000000000     0.00000000000000     0.00000000000000
    3     0.00000000000000     0.00000000000000     0.00000000000000
    4     0.00000000000000     0.00000000000000     0.00000000000000
    5     0.00000000000000     0.00000000000000     0.00000000000000
    6     0.00000000000000     0.00000000000000     0.00000000000000
    7     0.00000000000000     0.00000000000000     0.00000000000000
    8     0.00000000000000     0.00000000000000     0.00000000000000
    9     0.00000000000000     0.00000000000000     0.00000000000000
   10     0.00001121087577     0.00000260775658     0.00000122222801
   11     0.99999999993716    -0.00000000001462    -0.00000000000685
   12    -0.00000000001462     0.99999999999660    -0.00000000000159
   13    -0.00000000000685    -0.00000000000159     0.99999999999925




  Integral transformation done. 0.00692700 s
  Reading the two-electron integrals from disk
  Size of two-electron integrals:   0.000638 GB  Irrep: 1 Size: 13 x 13

                 1                   2                   3                   4                   5

    1     1.00000000000000    -0.00000000000014    -0.00000003104788     0.00000000643659    -0.00000001150535
    2    -0.00000000000014     0.99999999993752    -0.00001060730092     0.00000226621814     0.00000209019761
    3     0.00000003104707     0.00001060741182     0.99999999939288    -0.00001472968410    -0.00001903179745
    4    -0.00000000643613    -0.00000226606190     0.00001472970814     0.99999999988895    -0.00000000014253
    5     0.00000001150595    -0.00000208999573     0.00001903181962    -0.00000000014253     0.99999999981671
    6     0.00000003580217    -0.00000087729332     0.00001647671477    -0.00000000012234    -0.00000000015771
    7     0.00000000588724    -0.00000146985829     0.00001584526068    -0.00000000011836    -0.00000000015232
    8     0.00000000000000     0.00000000000000     0.00000000000000     0.00000000000000     0.00000000000000
    9     0.00000000000000     0.00000000000000     0.00000000000000     0.00000000000000     0.00000000000000
   10     0.00000000000000     0.00000000000000     0.00000000000000     0.00000000000000     0.00000000000000
   11     0.00000000000000     0.00000000000000     0.00000000000000     0.00000000000000     0.00000000000000
   12     0.00000000000000     0.00000000000000     0.00000000000000     0.00000000000000     0.00000000000000
   13     0.00000000000000     0.00000000000000     0.00000000000000     0.00000000000000     0.00000000000000

                 6                   7                   8                   9                  10

    1    -0.00000003580166    -0.00000000588675     0.00000000000000     0.00000000000000     0.00000000000000
    2     0.00000087746809     0.00000147002636     0.00000000000000     0.00000000000000     0.00000000000000
    3    -0.00001647670547    -0.00001584524509     0.00000000000000     0.00000000000000     0.00000000000000
    4    -0.00000000012234    -0.00000000011836     0.00000000000000     0.00000000000000     0.00000000000000
    5    -0.00000000015771    -0.00000000015232     0.00000000000000     0.00000000000000     0.00000000000000
    6     0.99999999986387    -0.00000000013118     0.00000000000000     0.00000000000000     0.00000000000000
    7    -0.00000000013118     0.99999999987338     0.00000000000000     0.00000000000000     0.00000000000000
    8     0.00000000000000     0.00000000000000     1.00000000000000     0.00000000000000     0.00000000000000
    9     0.00000000000000     0.00000000000000     0.00000000000000     1.00000000000000     0.00000000000000
   10     0.00000000000000     0.00000000000000     0.00000000000000     0.00000000000000     0.99999999997306
   11     0.00000000000000     0.00000000000000     0.00000000000000     0.00000000000000    -0.00000710635652
   12     0.00000000000000     0.00000000000000     0.00000000000000     0.00000000000000    -0.00000165813875
   13     0.00000000000000     0.00000000000000     0.00000000000000     0.00000000000000    -0.00000078851796

                11                  12                  13

    1     0.00000000000000     0.00000000000000     0.00000000000000
    2     0.00000000000000     0.00000000000000     0.00000000000000
    3     0.00000000000000     0.00000000000000     0.00000000000000
    4     0.00000000000000     0.00000000000000     0.00000000000000
    5     0.00000000000000     0.00000000000000     0.00000000000000
    6     0.00000000000000     0.00000000000000     0.00000000000000
    7     0.00000000000000     0.00000000000000     0.00000000000000
    8     0.00000000000000     0.00000000000000     0.00000000000000
    9     0.00000000000000     0.00000000000000     0.00000000000000
   10     0.00000710635652     0.00000165813875     0.00000078851796
   11     0.99999999997475    -0.00000000000589    -0.00000000000280
   12    -0.00000000000589     0.99999999999863    -0.00000000000065
   13    -0.00000000000280    -0.00000000000065     0.99999999999969




  Integral transformation done. 0.00711300 s
  Reading the two-electron integrals from disk
  Size of two-electron integrals:   0.000638 GB  Irrep: 1 Size: 13 x 13

                 1                   2                   3                   4                   5

    1     1.00000000000000    -0.00000000000006    -0.00000002040802     0.00000000413284    -0.00000000370308
    2    -0.00000000000006     0.99999999997379    -0.00000685230948     0.00000151424090     0.00000138188114
    3     0.00000002040776     0.00000685235402     0.99999999977537    -0.00000901915018    -0.00001142617238
    4    -0.00000000413265    -0.00000151417910     0.00000901916056     0.99999999995818    -0.00000000005257
    5     0.00000000370331    -0.00000138180284     0.00001142618185    -0.00000000005257     0.99999999993377
    6     0.00000002258532    -0.00000058200654     0.00000978801784    -0.00000000004458    -0.00000000005632
    7     0.00000000297906    -0.00000096576386     0.00000972620294    -0.00000000004459    -0.00000000005623
    8     0.00000000000000     0.00000000000000     0.00000000000000     0.00000000000000     0.00000000000000
    9     0.00000000000000     0.00000000000000     0.00000000000000     0.00000000000000     0.00000000000000
   10     0.00000000000000     0.00000000000000     0.00000000000000     0.00000000000000     0.00000000000000
   11     0.00000000000000     0.00000000000000     0.00000000000000     0.00000000000000     0.00000000000000
   12     0.00000000000000     0.00000000000000     0.00000000000000     0.00000000000000     0.00000000000000
   13     0.00000000000000     0.00000000000000     0.00000000000000     0.00000000000000     0.00000000000000

                 6                   7                   8                   9                  10

    1    -0.00000002258512    -0.00000000297887     0.00000000000000     0.00000000000000     0.00000000000000
    2     0.00000058207361     0.00000096583051     0.00000000000000     0.00000000000000     0.00000000000000
    3    -0.00000978801385    -0.00000972619632     0.00000000000000     0.00000000000000     0.00000000000000
    4    -0.00000000004458    -0.00000000004459     0.00000000000000     0.00000000000000     0.00000000000000
    5    -0.00000000005632    -0.00000000005623     0.00000000000000     0.00000000000000     0.00000000000000
    6     0.99999999995193    -0.00000000004788     0.00000000000000     0.00000000000000     0.00000000000000
    7    -0.00000000004788     0.99999999995223     0.00000000000000     0.00000000000000     0.00000000000000
    8     0.00000000000000     0.00000000000000     1.00000000000000     0.00000000000000     0.00000000000000
    9     0.00000000000000     0.00000000000000     0.00000000000000     1.00000000000000     0.00000000000000
   10     0.00000000000000     0.00000000000000     0.00000000000000     0.00000000000000     0.99999999998914
   11     0.00000000000000     0.00000000000000     0.00000000000000     0.00000000000000    -0.00000451007209
   12     0.00000000000000     0.00000000000000     0.00000000000000     0.00000000000000    -0.00000105476868
   13     0.00000000000000     0.00000000000000     0.00000000000000     0.00000000000000    -0.00000050817311

                11                  12                  13

    1     0.00000000000000     0.00000000000000     0.00000000000000
    2     0.00000000000000     0.00000000000000     0.00000000000000
    3     0.00000000000000     0.00000000000000     0.00000000000000
    4     0.00000000000000     0.00000000000000     0.00000000000000
    5     0.00000000000000     0.00000000000000     0.00000000000000
    6     0.00000000000000     0.00000000000000     0.00000000000000
    7     0.00000000000000     0.00000000000000     0.00000000000000
    8     0.00000000000000     0.00000000000000     0.00000000000000
    9     0.00000000000000     0.00000000000000     0.00000000000000
   10     0.00000451007209     0.00000105476868     0.00000050817311
   11     0.99999999998983    -0.00000000000238    -0.00000000000115
   12    -0.00000000000238     0.99999999999944    -0.00000000000027
   13    -0.00000000000115    -0.00000000000027     0.99999999999987




  Integral transformation done. 0.00693000 s
  Reading the two-electron integrals from disk
  Size of two-electron integrals:   0.000638 GB  Irrep: 1 Size: 13 x 13

                 1                   2                   3                   4                   5

    1     1.00000000000000    -0.00000000000003    -0.00000001335627     0.00000000265213    -0.00000000034730
    2    -0.00000000000003     0.99999999998904    -0.00000442040117     0.00000100428264     0.00000090882286
    3     0.00000001335619     0.00000442041904     0.99999999991600    -0.00000554806914    -0.00000689544805
    4    -0.00000000265206    -0.00000100425811     0.00000554807358     0.99999999998411    -0.00000000001958
    5     0.00000000034739    -0.00000090879238     0.00000689545206    -0.00000000001958     0.99999999997581
    6     0.00000001427095    -0.00000038384297     0.00000584551515    -0.00000000001641    -0.00000000002033
    7     0.00000000147075    -0.00000063185446     0.00000599615844    -0.00000000001695    -0.00000000002096
    8     0.00000000000000     0.00000000000000     0.00000000000000     0.00000000000000     0.00000000000000
    9     0.00000000000000     0.00000000000000     0.00000000000000     0.00000000000000     0.00000000000000
   10     0.00000000000000     0.00000000000000     0.00000000000000     0.00000000000000     0.00000000000000
   11     0.00000000000000     0.00000000000000     0.00000000000000     0.00000000000000     0.00000000000000
   12     0.00000000000000     0.00000000000000     0.00000000000000     0.00000000000000     0.00000000000000
   13     0.00000000000000     0.00000000000000     0.00000000000000     0.00000000000000     0.00000000000000

                 6                   7                   8                   9                  10

    1    -0.00000001427087    -0.00000000147067     0.00000000000000     0.00000000000000     0.00000000000000
    2     0.00000038386881     0.00000063188096     0.00000000000000     0.00000000000000     0.00000000000000
    3    -0.00000584551345    -0.00000599615565     0.00000000000000     0.00000000000000     0.00000000000000
    4    -0.00000000001641    -0.00000000001695     0.00000000000000     0.00000000000000     0.00000000000000
    5    -0.00000000002033    -0.00000000002096     0.00000000000000     0.00000000000000     0.00000000000000
    6     0.99999999998284    -0.00000000001765     0.00000000000000     0.00000000000000     0.00000000000000
    7    -0.00000000001765     0.99999999998182     0.00000000000000     0.00000000000000     0.00000000000000
    8     0.00000000000000     0.00000000000000     1.00000000000000     0.00000000000000     0.00000000000000
    9     0.00000000000000     0.00000000000000     0.00000000000000     1.00000000000000     0.00000000000000
   10     0.00000000000000     0.00000000000000     0.00000000000000     0.00000000000000     0.99999999999562
   11     0.00000000000000     0.00000000000000     0.00000000000000     0.00000000000000    -0.00000286537924
   12     0.00000000000000     0.00000000000000     0.00000000000000     0.00000000000000    -0.00000067132123
   13     0.00000000000000     0.00000000000000     0.00000000000000     0.00000000000000    -0.00000032718561

                11                  12                  13

    1     0.00000000000000     0.00000000000000     0.00000000000000
    2     0.00000000000000     0.00000000000000     0.00000000000000
    3     0.00000000000000     0.00000000000000     0.00000000000000
    4     0.00000000000000     0.00000000000000     0.00000000000000
    5     0.00000000000000     0.00000000000000     0.00000000000000
    6     0.00000000000000     0.00000000000000     0.00000000000000
    7     0.00000000000000     0.00000000000000     0.00000000000000
    8     0.00000000000000     0.00000000000000     0.00000000000000
    9     0.00000000000000     0.00000000000000     0.00000000000000
   10     0.00000286537924     0.00000067132123     0.00000032718561
   11     0.99999999999589    -0.00000000000096    -0.00000000000047
   12    -0.00000000000096     0.99999999999977    -0.00000000000011
   13    -0.00000000000047    -0.00000000000011     0.99999999999995




  Integral transformation done. 0.01432000 s
  Reading the two-electron integrals from disk
  Size of two-electron integrals:   0.000638 GB
 iter    g_norm      E_CASSCF
 0  0.000937198256   -15.506736886333
 1  0.001108313947   -15.510139811011
 2  0.000468381604   -15.510593525905
 3  0.000268025990   -15.510671343914
 4  0.000177227102   -15.510692224854
 5  0.000117173329   -15.510698921197
 6  0.000077149726   -15.510701236674
 7  0.000050629307   -15.510702071230
 8  0.000033162010   -15.510702380637
 9  0.000021681087   -15.510702497836
 10  0.000014148367   -15.510702542989
 11  0.000009214868   -15.510702560623
 12  0.000005990195   -15.510702567585
 13  0.000003886876   -15.510702570356
 14  0.000002517827   -15.510702571467
 15  0.000001628482   -15.510702571915
 16  0.000001051817   -15.510702572096
 17  0.000000678523   -15.510702572169

  Your calculation took 3.52318300 seconds

*** PSI4 exiting successfully. Buy a developer a beer!
