
    -----------------------------------------------------------------------
          Psi4: An Open-Source Ab Initio Electronic Structure Package
                               Psi4 1.2a1.dev263 

                         Git: Rev {master} ae466b2 


    R. M. Parrish, L. A. Burns, D. G. A. Smith, A. C. Simmonett,
    A. E. DePrince III, E. G. Hohenstein, U. Bozkaya, A. Yu. Sokolov,
    R. Di Remigio, R. M. Richard, J. F. Gonthier, A. M. James,
    H. R. McAlexander, A. Kumar, M. Saitow, X. Wang, B. P. Pritchard,
    P. Verma, H. F. Schaefer III, K. Patkowski, R. A. King, E. F. Valeev,
    F. A. Evangelista, J. M. Turney, T. D. Crawford, and C. D. Sherrill,
    J. Chem. Theory Comput. in press (2017).
    (doi: 10.1021/acs.jctc.7b00174)

    -----------------------------------------------------------------------


    Psi4 started on: Tuesday, 20 June 2017 05:23PM

    Process ID:  68438
    PSIDATADIR: /Users/york/src/psi4new/psi4/share/psi4
    Memory:     500.0 MiB
    Threads:    1
    
  ==> Input File <==

--------------------------------------------------------------------------
#! Generated using commit GITCOMMIT

import forte

Eoovv = -77.995170959945227
Eauto = -77.995168905999904
Eall  = -77.995164435596493


molecule C2H4{
0 1
H  0.000000  0.923274  1.238289
H  0.000000 -0.923274  1.238289
H  0.000000  0.923274 -1.238289
H  0.000000 -0.923274 -1.238289
C  0.000000  0.000000  0.668188
C  0.000000  0.000000 -0.668188
}

set {
  reference     rhf
  scf_type      out_of_core
  basis         cc-pvdz
  docc          [3,0,0,1,0,2,1,1]
  e_convergence 10
  d_convergence 12
  maxiter       100
}
Escf, wfn = energy('scf', return_wfn=True)
Ca_hf = wfn.Ca().clone()

set forte{
  job_type             active-dsrgpt2
  frozen_docc          [1,0,0,0,0,1,0,0]
  restricted_docc      [1,0,0,1,0,1,1,0]
  active               [1,0,1,1,0,1,1,1]
  dsrg_s               0.5
  cas_type             cas
  fcimo_actv_type      cisd
  fcimo_cisd_nohf      true
  nrootpi              [1,0,0,0,0,1,0,0]
  d_convergence        10
  internal_amp         singles_doubles
  internal_amp_select  oovv
}
Esd_oovv = energy('forte', ref_wfn = wfn)
compare_values(Eoovv,Esd_oovv,10,"VCISD-DSRG-MRPT2 INTERNAL: SD OOVV")

C = wfn.Ca()
C = Ca_hf

set forte{
  internal_amp_select  all
}
Esd_all = energy('forte', ref_wfn = wfn)
compare_values(Eall ,Esd_all ,10,"VCISD-DSRG-MRPT2 INTERNAL: SD ALL")

C = wfn.Ca()
C = Ca_hf

set forte{
  internal_amp_select  auto
}
Esd_auto = energy('forte', ref_wfn = wfn)
compare_values(Eauto,Esd_auto,10,"VCISD-DSRG-MRPT2 INTERNAL: SD AUTO")
--------------------------------------------------------------------------

*** tstart() called on Yorks-Mac.local
*** at Tue Jun 20 17:23:55 2017

   => Loading Basis Set <=

    Name: CC-PVDZ
    Role: ORBITAL
    Keyword: BASIS
    atoms 1-4 entry H          line    21 file /Users/york/src/psi4new/psi4/share/psi4/basis/cc-pvdz.gbs 
    atoms 5-6 entry C          line   131 file /Users/york/src/psi4new/psi4/share/psi4/basis/cc-pvdz.gbs 


         ---------------------------------------------------------
                                   SCF
            by Justin Turney, Rob Parrish, Andy Simmonett
                             and Daniel Smith
                              RHF Reference
                        1 Threads,    500 MiB Core
         ---------------------------------------------------------

  ==> Geometry <==

    Molecular point group: d2h
    Full point group: D2h

    Geometry (in Angstrom), charge = 0, multiplicity = 1:

       Center              X                  Y                   Z               Mass       
    ------------   -----------------  -----------------  -----------------  -----------------
           H         -0.000000000000     0.923274000000     1.238289000000     1.007825032070
           H          0.000000000000    -0.923274000000     1.238289000000     1.007825032070
           H         -0.000000000000     0.923274000000    -1.238289000000     1.007825032070
           H          0.000000000000    -0.923274000000    -1.238289000000     1.007825032070
           C          0.000000000000     0.000000000000     0.668188000000    12.000000000000
           C          0.000000000000     0.000000000000    -0.668188000000    12.000000000000

  Running in d2h symmetry.

  Rotational constants: A =      4.90558  B =      0.99768  C =      0.82907 [cm^-1]
  Rotational constants: A = 147065.51639  B =  29909.67957  C =  24854.79644 [MHz]
  Nuclear repulsion =   33.298097662285691

  Charge       = 0
  Multiplicity = 1
  Electrons    = 16
  Nalpha       = 8
  Nbeta        = 8

  ==> Algorithm <==

  SCF Algorithm Type is OUT_OF_CORE.
  DIIS enabled.
  MOM disabled.
  Fractional occupation disabled.
  Guess Type is SAD.
  Energy threshold   = 1.00e-10
  Density threshold  = 1.00e-12
  Integral threshold = 0.00e+00

  ==> Primary Basis <==

  Basis Set: CC-PVDZ
    Blend: CC-PVDZ
    Number of shells: 24
    Number of basis function: 48
    Number of Cartesian functions: 50
    Spherical Harmonics?: true
    Max angular momentum: 2

  ==> Pre-Iterations <==

   -------------------------------------------------------
    Irrep   Nso     Nmo     Nalpha   Nbeta   Ndocc  Nsocc
   -------------------------------------------------------
     Ag        11      11       3       3       3       0
     B1g        2       2       0       0       0       0
     B2g        4       4       0       0       0       0
     B3g        7       7       1       1       1       0
     Au         2       2       0       0       0       0
     B1u       11      11       2       2       2       0
     B2u        7       7       1       1       1       0
     B3u        4       4       1       1       1       0
   -------------------------------------------------------
    Total      48      48       8       8       8       0
   -------------------------------------------------------

  ==> Integral Setup <==

  ==> DiskJK: Disk-Based J/K Matrices <==

    J tasked:                  Yes
    K tasked:                  Yes
    wK tasked:                  No
    Memory (MB):               375
    Schwarz Cutoff:          1E-12

  Minimum eigenvalue in the overlap matrix is 4.8552890517E-03.
  Using Symmetric Orthogonalization.

  SCF Guess: Superposition of Atomic Densities via on-the-fly atomic UHF.

  ==> Iterations <==

                        Total Energy        Delta E     RMS |[F,P]|

   @RHF iter   0:   -78.57663732555270   -7.85766e+01   1.31710e-01 
   @RHF iter   1:   -78.00242540263210    5.74212e-01   1.06007e-02 
   @RHF iter   2:   -78.03597307676584   -3.35477e-02   3.39322e-03 DIIS
   @RHF iter   3:   -78.03940721455240   -3.43414e-03   1.15473e-03 DIIS
   @RHF iter   4:   -78.03983907809727   -4.31864e-04   1.35822e-04 DIIS
   @RHF iter   5:   -78.03984830423732   -9.22614e-06   1.39964e-05 DIIS
   @RHF iter   6:   -78.03984838790549   -8.36682e-08   1.78304e-06 DIIS
   @RHF iter   7:   -78.03984838921045   -1.30495e-09   1.88058e-07 DIIS
   @RHF iter   8:   -78.03984838922540   -1.49498e-11   3.20336e-08 DIIS
   @RHF iter   9:   -78.03984838922588   -4.83169e-13   4.02761e-09 DIIS
   @RHF iter  10:   -78.03984838922581    7.10543e-14   3.43644e-10 DIIS
   @RHF iter  11:   -78.03984838922585   -4.26326e-14   4.73727e-11 DIIS
   @RHF iter  12:   -78.03984838922581    4.26326e-14   5.73416e-12 DIIS
   @RHF iter  13:   -78.03984838922585   -4.26326e-14   9.66492e-13 DIIS

  ==> Post-Iterations <==

    Orbital Energies (a.u.)
    -----------------------

    Doubly Occupied:                                                      

       1Ag   -11.237132     1B1u  -11.235505     2Ag    -1.030189  
       2B1u   -0.789942     1B2u   -0.637452     3Ag    -0.583297  
       1B3g   -0.502717     1B3u   -0.373390  

    Virtual:                                                              

       1B2g    0.167257     4Ag     0.203559     2B2u    0.232823  
       3B1u    0.237644     2B3g    0.303090     4B1u    0.463083  
       5Ag     0.580387     3B2u    0.609438     2B3u    0.689610  
       6Ag     0.709028     5B1u    0.779796     2B2g    0.807307  
       4B2u    0.861157     3B3g    0.932382     6B1u    0.970837  
       7Ag     1.008640     1B1g    1.131643     7B1u    1.234271  
       4B3g    1.240802     3B3u    1.261600     1Au     1.292745  
       8Ag     1.599391     5B3g    1.737713     5B2u    1.752975  
       3B2g    1.814177     9Ag     1.849372     8B1u    1.860320  
       6B2u    1.907415     2B1g    1.968897     4B3u    1.979535  
       4B2g    2.226403     9B1u    2.250735     2Au     2.363897  
       6B3g    2.439418    10Ag     2.507675    10B1u    2.637327  
      11Ag     2.702843     7B2u    2.814595    11B1u    3.116593  
       7B3g    3.390147  

    Final Occupation by Irrep:
             Ag   B1g   B2g   B3g    Au   B1u   B2u   B3u 
    DOCC [     3,    0,    0,    1,    0,    2,    1,    1 ]

  Energy converged.

  @RHF Final Energy:   -78.03984838922585

   => Energetics <=

    Nuclear Repulsion Energy =             33.2980976622856915
    One-Electron Energy =                -169.8966436681190828
    Two-Electron Energy =                  58.5586976166075317
    Total Energy =                        -78.0398483892258525



Properties will be evaluated at   0.000000,   0.000000,   0.000000 Bohr

Properties computed using the SCF density matrix

  Nuclear Dipole Moment: (a.u.)
     X:     0.0000      Y:     0.0000      Z:     0.0000

  Electronic Dipole Moment: (a.u.)
     X:     0.0000      Y:     0.0000      Z:     0.0000

  Dipole Moment: (a.u.)
     X:     0.0000      Y:     0.0000      Z:     0.0000     Total:     0.0000

  Dipole Moment: (Debye)
     X:     0.0000      Y:     0.0000      Z:     0.0000     Total:     0.0000


*** tstop() called on Yorks-Mac.local at Tue Jun 20 17:23:56 2017
Module time:
	user time   =       0.76 seconds =       0.01 minutes
	system time =       0.04 seconds =       0.00 minutes
	total time  =          1 seconds =       0.02 minutes
Total time:
	user time   =       0.76 seconds =       0.01 minutes
	system time =       0.04 seconds =       0.00 minutes
	total time  =          1 seconds =       0.02 minutes
   => Loading Basis Set <=

    Name: STO-3G
    Role: ORBITAL
    Keyword: MINAO_BASIS
    atoms 1-4 entry H          line    19 file /Users/york/src/psi4new/psi4/share/psi4/basis/sto-3g.gbs 
    atoms 5-6 entry C          line    61 file /Users/york/src/psi4new/psi4/share/psi4/basis/sto-3g.gbs 


Reading options from the FORTE block
Calling plugin forte.so.




  ==> MO Space Information <==

  Read options for space FROZEN_DOCC
  Read options for space RESTRICTED_DOCC
  Read options for space ACTIVE
 Removing orbital 0
 Removing orbital 26
  -------------------------------------------------------------------------
                       Ag   B1g   B2g   B3g    Au   B1u   B2u   B3u   Sum
  -------------------------------------------------------------------------
    FROZEN_DOCC         1     0     0     0     0     1     0     0     2
    RESTRICTED_DOCC     1     0     0     1     0     1     1     0     4
    ACTIVE              1     0     1     1     0     1     1     1     6
    RESTRICTED_UOCC     8     2     3     5     2     8     5     3    36
    FROZEN_UOCC         0     0     0     0     0     0     0     0     0
    Total              11     2     4     7     2    11     7     4    48
  -------------------------------------------------------------------------

  ==> Integral Transformation <==

  Number of molecular orbitals:               48
  Number of correlated molecular orbitals:    46
  Number of frozen occupied orbitals:          2
  Number of frozen unoccupied orbitals:        0

    Molecular point group: d2h
    Full point group: D2h

    Geometry (in Angstrom), charge = 0, multiplicity = 1:

       Center              X                  Y                   Z               Mass       
    ------------   -----------------  -----------------  -----------------  -----------------
           H         -0.000000000000     0.923274000000     1.238289000000     1.007825032070
           H          0.000000000000    -0.923274000000     1.238289000000     1.007825032070
           H         -0.000000000000     0.923274000000    -1.238289000000     1.007825032070
           H          0.000000000000    -0.923274000000    -1.238289000000     1.007825032070
           C          0.000000000000     0.000000000000     0.668188000000    12.000000000000
           C          0.000000000000     0.000000000000    -0.668188000000    12.000000000000

  -AO BASIS SET INFORMATION:
    Name                   = CC-PVDZ
    Blend                  = CC-PVDZ
    Total number of shells = 24
    Number of primitives   = 64
    Number of AO           = 50
    Number of SO           = 48
    Maximum AM             = 2
    Spherical Harmonics    = TRUE

  -Contraction Scheme:
    Atom   Type   All Primitives // Shells:
   ------ ------ --------------------------
       1     H     4s 1p // 2s 1p 
       2     H     4s 1p // 2s 1p 
       3     H     4s 1p // 2s 1p 
       4     H     4s 1p // 2s 1p 
       5     C     17s 4p 1d // 3s 2p 1d 
       6     C     17s 4p 1d // 3s 2p 1d 

  ==> AO Basis Functions <==

    [ CC-PVDZ ]
    spherical
    ****
    H   1
    S   3 1.00
                        13.01000000           0.01968500
                         1.96200000           0.13797700
                         0.44460000           0.47814800
    S   1 1.00
                         0.12200000           1.00000000
    P   1 1.00
                         0.72700000           1.00000000
    ****
    C   5
    S   8 1.00
                      6665.00000000           0.00069200
                      1000.00000000           0.00532900
                       228.00000000           0.02707700
                        64.71000000           0.10171800
                        21.06000000           0.27474000
                         7.49500000           0.44856400
                         2.79700000           0.28507400
                         0.52150000           0.01520400
    S   8 1.00
                      6665.00000000          -0.00014600
                      1000.00000000          -0.00115400
                       228.00000000          -0.00572500
                        64.71000000          -0.02331200
                        21.06000000          -0.06395500
                         7.49500000          -0.14998100
                         2.79700000          -0.12726200
                         0.52150000           0.54452900
    S   1 1.00
                         0.15960000           1.00000000
    P   3 1.00
                         9.43900000           0.03810900
                         2.00200000           0.20948000
                         0.54560000           0.50855700
    P   1 1.00
                         0.15170000           1.00000000
    D   1 1.00
                         0.55000000           1.00000000
    ****


  Overall Conventional Integrals timings

   (n = 8): 0  0  0  0  0  0  0  0  
  SOs per irrep (n = 8): 11  2  4  7  2  11  7  4  
  Frozen core orbitals per irrep (n = 8): 0  0  0  0  0  0  0  0  
  Frozen core orbitals per irrep (n = 8): 11  2  4  7  2  11  7  4  
	Presorting SO-basis two-electron integrals.
	Sorting File: SO Ints (nn|nn) nbuckets = 1
	Transforming the one-electron integrals and constructing Fock matrices
	Starting first half-transformation.
	Sorting half-transformed integrals.
	First half integral transformation complete.
	Starting second half-transformation.
	Two-electron integral transformation complete.

  Integral transformation done. 0.05795400 s
  Reading the two-electron integrals from disk
  Size of two-electron integrals:   0.118652 GB
  Frozen-core energy            -78.536477401560 a.u.

  FrozenOneBody Operator takes  0.12117900 s
  Resorting integrals after freezing core.
  Conventional integrals take 0.85925900 s

              ---------------------------------------------------
                               ACTIVE-DSRG-MRPT2
                Wrapper for Multiple SS-DSRG-MRPT2 Computations
                                  Chenyang Li
              ---------------------------------------------------

  Note: Orbitals are NOT optimized throughout the process.
  Reference selection criteria (CAS/CIS/CISD) will NOT change.
  Each state uses its OWN semicanonical orbitals.
  Ground state is assumed to be a singlet.
  Otherwise, please run separate DSRG-MRPT2 jobs.

  ==> Input Summary <==

    total roots requested (include S0)                     2
    multiplicity                                           1
    reference space type                                CISD
    separate HF in CISD                                 TURE
    DSRG-MRPT2 internal amplitudes           SINGLES_DOUBLES
    DSRG-MRPT2 internal type                            OOVV

  ==> Roots Summary <==

                Ag   B1g   B2g   B3g    Au   B1u   B2u   B3u
    ----------------------------------------------------------
      NROOTS     1     0     0     0     0     1     0     0
    ----------------------------------------------------------

  ==> Precomputation of ACTIVE-DSRGPT2 <==

  Note: Looping over all roots to
  1) determine excitation type;
  2) obtain original orbital extent;
  3) obtain unitary matrices that semicanonicalize orbitals of each state;
  4) compute singlet CIS/CISD oscillator strength;
  5) determine %T1 in CISD.


              ---------------------------------------------------
                Complete Active Space Configuration Interaction
                                  Chenyang Li
              ---------------------------------------------------


  ==> Input Summary <==

    number of atoms                =     6
    number of electrons            =    16
    molecular charge               =     0
    number of alpha electrons      =     8
    number of beta electrons       =     8
    multiplicity                   =     1
    ms (2 * Sz)                    =     0
    number of molecular orbitals   =    48

  ==> Orbital Spaces <==

    TOTAL MO                      [   11     2     4     7     2    11     7     4 ]
    FROZEN CORE                   [    1     0     0     0     0     1     0     0 ]
    FROZEN VIRTUAL                [    0     0     0     0     0     0     0     0 ]
    CORRELATED MO                 [   10     2     4     7     2    10     7     4 ]
    CORE                          [    1     0     0     1     0     1     1     0 ]
    ACTIVE                        [    1     0     1     1     0     1     1     1 ]
    VIRTUAL                       [    8     2     3     5     2     8     5     3 ]

  ==> Working on Irrep Ag <==

  Forming determinants                ...  Done. Timing        0.000034 s

  ==> Determinants Summary <==

    number of alpha active electrons         =     2
    number of beta active electrons          =     2
    root symmetry (zero based)               =     0
    number of determinants (include RHF)     =    15

  Isolate RHF determinant to the rest determinants.
  Recompute RHF energy ... Done.

  * * * * * * * * * * * * * * * * *
  *  CI Vectors & Configurations  *
  * * * * * * * * * * * * * * * * *

  ==> Root No. 0 <==

    2 0 0 0 0 2          1.0000000000

    Total Energy:   -78.039848389225853


  Forming one-particle density        ...  Done. Timing        0.000225 s
  Forming generalized Fock matrix     ...  Done. Timing        0.001899 s

  ==> Permanent Dipole Moments (Ag) <==

  Only print nonzero (> 1.0e-5) elements.

  Computing semicanonical orbital rotation matrix for root 0.
  Forming one-particle density        ...  Done. Timing        0.000109 s
  Forming generalized Fock matrix     ...  Done. Timing        0.001594 s
  Diagonalizing Fock                  ...  Done. Timing        0.000218 s

  Computing CISD reference oscillator strength 0Ag -> nAg ... Done.

  ==> Working on Irrep B1u <==

  Forming determinants                ...  Done. Timing        0.000011 s

  ==> Determinants Summary <==

    number of alpha active electrons         =     2
    number of beta active electrons          =     2
    root symmetry (zero based)               =     5
    number of determinants                   =     8

  Diagonalizing Hamiltonian           ...
  Found 4 roots with 2S+1 = 1 *
  Found 4 roots with 2S+1 = 3  Done. Timing        0.000193 s

  * * * * * * * * * * * * * * * * *
  *  CI Vectors & Configurations  *
  * * * * * * * * * * * * * * * * *

  ==> Root No. 0 <==

    2 a 0 0 0 b         -0.7064377598
    2 b 0 0 0 a         -0.7064377598

    Total Energy:   -77.686323936645223


  Forming one-particle density        ...  Done. Timing        0.000068 s
  Forming generalized Fock matrix     ...  Done. Timing        0.002262 s

  ==> Permanent Dipole Moments (B1u) <==

  Only print nonzero (> 1.0e-5) elements.

  Computing semicanonical orbital rotation matrix for root 0.
  Forming one-particle density        ...  Done. Timing        0.000070 s
  Forming generalized Fock matrix     ...  Done. Timing        0.002343 s
  Diagonalizing Fock                  ...  Done. Timing        0.000194 s

  Computing CISD reference oscillator strength 0Ag -> nB1u ... Done.

  ===================================
    Current Job:  Ag state, root  0
  ===================================

  Rotate to semicanonical orbitals.

    Molecular point group: d2h
    Full point group: D2h

    Geometry (in Angstrom), charge = 0, multiplicity = 1:

       Center              X                  Y                   Z               Mass       
    ------------   -----------------  -----------------  -----------------  -----------------
           H         -0.000000000000     0.923274000000     1.238289000000     1.007825032070
           H          0.000000000000    -0.923274000000     1.238289000000     1.007825032070
           H         -0.000000000000     0.923274000000    -1.238289000000     1.007825032070
           H          0.000000000000    -0.923274000000    -1.238289000000     1.007825032070
           C          0.000000000000     0.000000000000     0.668188000000    12.000000000000
           C          0.000000000000     0.000000000000    -0.668188000000    12.000000000000

  -AO BASIS SET INFORMATION:
    Name                   = CC-PVDZ
    Blend                  = CC-PVDZ
    Total number of shells = 24
    Number of primitives   = 64
    Number of AO           = 50
    Number of SO           = 48
    Maximum AM             = 2
    Spherical Harmonics    = TRUE

  -Contraction Scheme:
    Atom   Type   All Primitives // Shells:
   ------ ------ --------------------------
       1     H     4s 1p // 2s 1p 
       2     H     4s 1p // 2s 1p 
       3     H     4s 1p // 2s 1p 
       4     H     4s 1p // 2s 1p 
       5     C     17s 4p 1d // 3s 2p 1d 
       6     C     17s 4p 1d // 3s 2p 1d 

  ==> AO Basis Functions <==

    [ CC-PVDZ ]
    spherical
    ****
    H   1
    S   3 1.00
                        13.01000000           0.01968500
                         1.96200000           0.13797700
                         0.44460000           0.47814800
    S   1 1.00
                         0.12200000           1.00000000
    P   1 1.00
                         0.72700000           1.00000000
    ****
    C   5
    S   8 1.00
                      6665.00000000           0.00069200
                      1000.00000000           0.00532900
                       228.00000000           0.02707700
                        64.71000000           0.10171800
                        21.06000000           0.27474000
                         7.49500000           0.44856400
                         2.79700000           0.28507400
                         0.52150000           0.01520400
    S   8 1.00
                      6665.00000000          -0.00014600
                      1000.00000000          -0.00115400
                       228.00000000          -0.00572500
                        64.71000000          -0.02331200
                        21.06000000          -0.06395500
                         7.49500000          -0.14998100
                         2.79700000          -0.12726200
                         0.52150000           0.54452900
    S   1 1.00
                         0.15960000           1.00000000
    P   3 1.00
                         9.43900000           0.03810900
                         2.00200000           0.20948000
                         0.54560000           0.50855700
    P   1 1.00
                         0.15170000           1.00000000
    D   1 1.00
                         0.55000000           1.00000000
    ****


 Integrals are about to be computed.   (n = 8): 0  0  0  0  0  0  0  0  
  SOs per irrep (n = 8): 11  2  4  7  2  11  7  4  
  Frozen core orbitals per irrep (n = 8): 0  0  0  0  0  0  0  0  
  Frozen core orbitals per irrep (n = 8): 11  2  4  7  2  11  7  4  
	Presorting SO-basis two-electron integrals.
	Sorting File: SO Ints (nn|nn) nbuckets = 1
	Transforming the one-electron integrals and constructing Fock matrices
	Starting first half-transformation.
	Sorting half-transformed integrals.
	First half integral transformation complete.
	Starting second half-transformation.
	Two-electron integral transformation complete.

  Integral transformation done. 0.05238400 s
  Reading the two-electron integrals from disk
  Size of two-electron integrals:   0.118652 GB
 Integrals are about to be updated.
  Frozen-core energy            -78.536477401560 a.u.

  FrozenOneBody Operator takes  0.12940100 s
  Resorting integrals after freezing core.
  Frozen Orbitals takes     0.353 s.
  Forming determinants                ...  Done. Timing        0.000017 s

  ==> Determinants Summary <==

    number of alpha active electrons         =     2
    number of beta active electrons          =     2
    root symmetry (zero based)               =     0
    number of determinants (include RHF)     =    15

  Isolate RHF determinant to the rest determinants.
  Recompute RHF energy ... Done.

  * * * * * * * * * * * * * * * * *
  *  CI Vectors & Configurations  *
  * * * * * * * * * * * * * * * * *

  ==> Root No. 0 <==

    2 0 0 0 0 2          1.0000000000

    Total Energy:   -78.039848389225853


  Forming one-particle density        ...  Done. Timing        0.000111 s
  Forming generalized Fock matrix     ...  Done. Timing        0.001464 s

  ==> Permanent Dipole Moments (Ag) <==

  Only print nonzero (> 1.0e-5) elements.

  Computing 2- and 3-cumulants ... Done.

  Checking Fock matrices (Fa, Fb)     ...
  Nonzero criteria: > 1.00E-10
  Fa_CORE    block is diagonal.
  Fb_CORE    block is diagonal.
  Fa_ACT_H   block is diagonal.
  Fb_ACT_H   block is diagonal.
  Fa_ACT_P   block is diagonal.
  Fb_ACT_P   block is diagonal.
  Fa_VIRTUAL block is diagonal.
  Fb_VIRTUAL block is diagonal.
  Done checking Fock matrices.                   Timing        0.000057 s


              ----------------------------------------------------
                 Driven Similarity Renormalization Group MBPT2
                Chenyang Li, Kevin Hannon, Francesco Evangelista
              ----------------------------------------------------

    References:
      u-DSRG-MRPT2:    J. Chem. Theory Comput. 2015, 11, 2097.
      (pr-)DSRG-MRPT2: J. Chem. Phys. 2017, 146, 124132.

  ==> Calculation Information <==

    ntamp                                                 15
    flow parameter                                 5.000e-01
    taylor expansion threshold                     1.000e-03
    intruder_tamp                                  1.000e-01
    int_type                                    CONVENTIONAL
    source operator                                 STANDARD
    reference relaxation                                NONE
    state_type                                STATE-SPECIFIC
    internal_amp                             SINGLES_DOUBLES
    internal_amp_select                                 OOVV
    form Hbar3                                         FALSE

  ==> Checking Orbitals <==

    Checking if orbitals are semi-canonicalized ...     OK.
    Orbitals are semi-canonicalized.

  ==> Computing DSRG-MRPT2 ... <==

    Computing T2 amplitudes                  ...  Done. Timing        0.112637 s
    Computing T1 amplitudes                  ...  Done. Timing        0.005440 s
    Renormalizing two-electron integrals     ...  Done. Timing        0.116908 s
    Renormalizing Fock matrix elements       ...  Done. Timing        0.004972 s
    Computing <[F, T1]>                      ...  Done. Timing        0.002839 s
    Computing <[F, T2]>                      ...  Done. Timing        0.009465 s
    Computing <[V, T1]>                      ...  Done. Timing        0.007891 s
    Computing <[V, T2]> (C_2)^4              ...  Done. Timing        0.052884 s
    Computing <[V, T2]> C_4 (C_2)^2 HH       ...  Done. Timing        0.011041 s
    Computing <[V, T2]> C_4 (C_2)^2 PP       ...  Done. Timing        0.015141 s
    Computing <[V, T2]> C_4 (C_2)^2 PH       ...  Done. Timing        0.070335 s
    Computing <[V, T2]> C_6 C_2              ...  Done. Timing        0.091946 s

  ==> Excitation Amplitudes Summary <==

    Active Indices:    1   12   17   26   36   42 


    Largest T2 amplitudes for spin case AA:
       i   j   a   b              i   j   a   b              i   j   a   b           
    --------------------------------------------------------------------------------
    [  1  42   1  43]-0.034328 [  1  16   1  18]-0.029116 [  1  12   1  13]-0.026893 
    [  1  35   1  38]-0.026539 [ 16  42  18  42]-0.025500 [  1  42   3  42] 0.025140 
    [  1  35   1  36] 0.024572 [ 12  42  12  44] 0.024161 [ 25  42   1  12]-0.023316 
    [ 35  42  38  42]-0.023123 [ 35  42  36  42] 0.022124 [ 12  25   1  44] 0.021303 
    [  1  42  12  29]-0.020664 [  1  17   1  18]-0.020654 [  1  25   1  28]-0.020535 
    --------------------------------------------------------------------------------
    Norm of T2AA vector: (nonzero elements: 20356)                0.470183318074035.
    --------------------------------------------------------------------------------
    Largest T2 amplitudes for spin case AB:
           _       _                  _       _                  _       _           
       i   j   a   b              i   j   a   b              i   j   a   b           
    --------------------------------------------------------------------------------
    [ 42  42  12  12]-0.041280 [  1  42   1  43]-0.038632 [ 42  42  42  43]-0.035641 
    [  0   0   1   1]-0.034557 [  0   0  42  42]-0.030838 [ 12  12  13  13]-0.029320 
    [  1   1   1   3] 0.029260 [ 12  42  13  42]-0.028188 [  1  12   1  13]-0.028044 
    [ 12  42  13  43]-0.027763 [ 42  42  43  43]-0.027516 [ 16  42  18  42]-0.027111 
    [  1  35   1  38]-0.026249 [  1  42   3  42] 0.025144 [ 12  42  12  43]-0.025036 
    --------------------------------------------------------------------------------
    Norm of T2AB vector: (nonzero elements: 23404)                0.473201317874152.
    --------------------------------------------------------------------------------
    Largest T2 amplitudes for spin case BB:
       _   _   _   _              _   _   _   _              _   _   _   _           
       i   j   a   b              i   j   a   b              i   j   a   b           
    --------------------------------------------------------------------------------
    [  1  42   1  43]-0.034328 [  1  16   1  18]-0.029116 [  1  12   1  13]-0.026893 
    [  1  35   1  38]-0.026539 [ 16  42  18  42]-0.025500 [  1  42   3  42] 0.025140 
    [  1  35   1  36] 0.024572 [ 12  42  12  44] 0.024161 [ 25  42   1  12]-0.023316 
    [ 35  42  38  42]-0.023123 [ 35  42  36  42] 0.022124 [ 12  25   1  44] 0.021303 
    [  1  42  12  29]-0.020664 [  1  17   1  18]-0.020654 [  1  25   1  28]-0.020535 
    --------------------------------------------------------------------------------
    Norm of T2BB vector: (nonzero elements: 20356)                0.470183318074035.
    --------------------------------------------------------------------------------

  ==> Possible Intruders <==

    T1 amplitudes larger than 0.1000 for spin case A: NULL
    T1 amplitudes larger than 0.1000 for spin case B: NULL
    T2 amplitudes larger than 0.1000 for spin case AA: NULL
    T2 amplitudes larger than 0.1000 for spin case AB: NULL
    T2 amplitudes larger than 0.1000 for spin case BB: NULL

  ==> DSRG-MRPT2 Energy Summary <==

    E0 (reference)                 =    -78.039848389225853
    <[F, T1]>                      =      0.000000000000000
    <[F, T2]>                      =      0.000000000000000
    <[V, T1]>                      =      0.000000000000000
    <[V, T2]> (C_2)^4              =     -0.270170133476963
    <[V, T2]> C_4 (C_2)^2 HH       =      0.000000000000000
    <[V, T2]> C_4 (C_2)^2 PP       =      0.000000000000000
    <[V, T2]> C_4 (C_2)^2 PH       =      0.000000000000000
    <[V, T2]> C_6 C_2              =      0.000000000000000
    <[V, T2]>                      =     -0.270170133476963
    DSRG-MRPT2 correlation energy  =     -0.270170133476963
    DSRG-MRPT2 total energy        =    -78.310018522702819
    max(T1)                        =      0.000000000000000
    max(T2)                        =      0.041279815863018
    ||T1||                         =      0.000000000000000
    ||T2||                         =      1.156642837760022

  Energy took      0.623 s


  ==> Total Timings (s) for Computing Commutators <==

             [H1, T1]    [H1, T2]    [H2, T1]    [H2, T2]
    -----------------------------------------------------
    -> C0       0.003       0.009       0.008       0.241
    -> C1       0.000       0.000       0.000       0.000
    -> C2                   0.000       0.000       0.000
    -----------------------------------------------------


  ===================================
    Current Job: B1u state, root  0
  ===================================

  Rotate to semicanonical orbitals.

    Molecular point group: d2h
    Full point group: D2h

    Geometry (in Angstrom), charge = 0, multiplicity = 1:

       Center              X                  Y                   Z               Mass       
    ------------   -----------------  -----------------  -----------------  -----------------
           H         -0.000000000000     0.923274000000     1.238289000000     1.007825032070
           H          0.000000000000    -0.923274000000     1.238289000000     1.007825032070
           H         -0.000000000000     0.923274000000    -1.238289000000     1.007825032070
           H          0.000000000000    -0.923274000000    -1.238289000000     1.007825032070
           C          0.000000000000     0.000000000000     0.668188000000    12.000000000000
           C          0.000000000000     0.000000000000    -0.668188000000    12.000000000000

  -AO BASIS SET INFORMATION:
    Name                   = CC-PVDZ
    Blend                  = CC-PVDZ
    Total number of shells = 24
    Number of primitives   = 64
    Number of AO           = 50
    Number of SO           = 48
    Maximum AM             = 2
    Spherical Harmonics    = TRUE

  -Contraction Scheme:
    Atom   Type   All Primitives // Shells:
   ------ ------ --------------------------
       1     H     4s 1p // 2s 1p 
       2     H     4s 1p // 2s 1p 
       3     H     4s 1p // 2s 1p 
       4     H     4s 1p // 2s 1p 
       5     C     17s 4p 1d // 3s 2p 1d 
       6     C     17s 4p 1d // 3s 2p 1d 

  ==> AO Basis Functions <==

    [ CC-PVDZ ]
    spherical
    ****
    H   1
    S   3 1.00
                        13.01000000           0.01968500
                         1.96200000           0.13797700
                         0.44460000           0.47814800
    S   1 1.00
                         0.12200000           1.00000000
    P   1 1.00
                         0.72700000           1.00000000
    ****
    C   5
    S   8 1.00
                      6665.00000000           0.00069200
                      1000.00000000           0.00532900
                       228.00000000           0.02707700
                        64.71000000           0.10171800
                        21.06000000           0.27474000
                         7.49500000           0.44856400
                         2.79700000           0.28507400
                         0.52150000           0.01520400
    S   8 1.00
                      6665.00000000          -0.00014600
                      1000.00000000          -0.00115400
                       228.00000000          -0.00572500
                        64.71000000          -0.02331200
                        21.06000000          -0.06395500
                         7.49500000          -0.14998100
                         2.79700000          -0.12726200
                         0.52150000           0.54452900
    S   1 1.00
                         0.15960000           1.00000000
    P   3 1.00
                         9.43900000           0.03810900
                         2.00200000           0.20948000
                         0.54560000           0.50855700
    P   1 1.00
                         0.15170000           1.00000000
    D   1 1.00
                         0.55000000           1.00000000
    ****


 Integrals are about to be computed.   (n = 8): 0  0  0  0  0  0  0  0  
  SOs per irrep (n = 8): 11  2  4  7  2  11  7  4  
  Frozen core orbitals per irrep (n = 8): 0  0  0  0  0  0  0  0  
  Frozen core orbitals per irrep (n = 8): 11  2  4  7  2  11  7  4  
	Presorting SO-basis two-electron integrals.
	Sorting File: SO Ints (nn|nn) nbuckets = 1
	Transforming the one-electron integrals and constructing Fock matrices
	Starting first half-transformation.
	Sorting half-transformed integrals.
	First half integral transformation complete.
	Starting second half-transformation.
	Two-electron integral transformation complete.

  Integral transformation done. 0.05516400 s
  Reading the two-electron integrals from disk
  Size of two-electron integrals:   0.118652 GB
 Integrals are about to be updated.
  Frozen-core energy            -78.536477401560 a.u.

  FrozenOneBody Operator takes  0.13504500 s
  Resorting integrals after freezing core.
  Frozen Orbitals takes     0.382 s.
  Forming determinants                ...  Done. Timing        0.000014 s

  ==> Determinants Summary <==

    number of alpha active electrons         =     2
    number of beta active electrons          =     2
    root symmetry (zero based)               =     5
    number of determinants                   =     8

  Diagonalizing Hamiltonian           ...
  Found 4 roots with 2S+1 = 1 *
  Found 4 roots with 2S+1 = 3  Done. Timing        0.000178 s

  * * * * * * * * * * * * * * * * *
  *  CI Vectors & Configurations  *
  * * * * * * * * * * * * * * * * *

  ==> Root No. 0 <==

    2 a 0 0 0 b         -0.7064377598
    2 b 0 0 0 a         -0.7064377598

    Total Energy:   -77.686323936645223


  Forming one-particle density        ...  Done. Timing        0.000074 s
  Forming generalized Fock matrix     ...  Done. Timing        0.002366 s

  ==> Permanent Dipole Moments (B1u) <==

  Only print nonzero (> 1.0e-5) elements.

  Computing 2- and 3-cumulants ... Done.

  Checking Fock matrices (Fa, Fb)     ...
  Nonzero criteria: > 1.00E-10
  Fa_CORE    block is diagonal.
  Fb_CORE    block is diagonal.
  Fa_ACT_H   block is diagonal.
  Fb_ACT_H   block is diagonal.
  Fa_ACT_P   block is diagonal.
  Fb_ACT_P   block is diagonal.
  Fa_VIRTUAL block is diagonal.
  Fb_VIRTUAL block is diagonal.
  Done checking Fock matrices.                   Timing        0.000082 s


              ----------------------------------------------------
                 Driven Similarity Renormalization Group MBPT2
                Chenyang Li, Kevin Hannon, Francesco Evangelista
              ----------------------------------------------------

    References:
      u-DSRG-MRPT2:    J. Chem. Theory Comput. 2015, 11, 2097.
      (pr-)DSRG-MRPT2: J. Chem. Phys. 2017, 146, 124132.

  ==> Calculation Information <==

    ntamp                                                 15
    flow parameter                                 5.000e-01
    taylor expansion threshold                     1.000e-03
    intruder_tamp                                  1.000e-01
    int_type                                    CONVENTIONAL
    source operator                                 STANDARD
    reference relaxation                                NONE
    state_type                                STATE-SPECIFIC
    internal_amp                             SINGLES_DOUBLES
    internal_amp_select                                 OOVV
    form Hbar3                                         FALSE

  ==> Checking Orbitals <==

    Checking if orbitals are semi-canonicalized ...     OK.
    Orbitals are semi-canonicalized.

  ==> Computing DSRG-MRPT2 ... <==

    Computing T2 amplitudes                  ...  Done. Timing        0.120088 s
    Computing T1 amplitudes                  ...  Done. Timing        0.005077 s
    Renormalizing two-electron integrals     ...  Done. Timing        0.114836 s
    Renormalizing Fock matrix elements       ...  Done. Timing        0.004958 s
    Computing <[F, T1]>                      ...  Done. Timing        0.004335 s
    Computing <[F, T2]>                      ...  Done. Timing        0.010988 s
    Computing <[V, T1]>                      ...  Done. Timing        0.008029 s
    Computing <[V, T2]> (C_2)^4              ...  Done. Timing        0.052854 s
    Computing <[V, T2]> C_4 (C_2)^2 HH       ...  Done. Timing        0.011488 s
    Computing <[V, T2]> C_4 (C_2)^2 PP       ...  Done. Timing        0.013443 s
    Computing <[V, T2]> C_4 (C_2)^2 PH       ...  Done. Timing        0.056467 s
    Computing <[V, T2]> C_6 C_2              ...  Done. Timing        0.092891 s

  ==> Excitation Amplitudes Summary <==

    Active Indices:    1   12   17   26   36   42 
    Largest T1 amplitudes for spin case A:
       i       a                  i       a                  i       a               
    --------------------------------------------------------------------------------
    [ 12      13    ] 0.011325 [  1       3    ]-0.009715 [ 16      18    ]-0.008108 
    [ 25      28    ] 0.007546 [ 35      38    ]-0.006903 [  1       7    ] 0.006824 
    [ 35      37    ]-0.006760 [  0       1    ]-0.006597 [ 35      36    ]-0.006328 
    [ 12      14    ]-0.006115 [  0       4    ]-0.006017 [ 12      15    ] 0.005988 
    [ 25      27    ] 0.005778 [  1       4    ] 0.005491 [ 36      40    ] 0.004973 
    --------------------------------------------------------------------------------
    Norm of T1A vector: (nonzero elements: 62)                    0.032171876572720.
    --------------------------------------------------------------------------------
    Largest T1 amplitudes for spin case B:
       _       _                  _       _                  _       _               
       i       a                  i       a                  i       a               
    --------------------------------------------------------------------------------
    [ 12      13    ] 0.011325 [  1       3    ]-0.009715 [ 16      18    ]-0.008108 
    [ 25      28    ] 0.007546 [ 35      38    ]-0.006903 [  1       7    ] 0.006824 
    [ 35      37    ]-0.006760 [  0       1    ]-0.006597 [ 35      36    ]-0.006328 
    [ 12      14    ]-0.006115 [  0       4    ]-0.006017 [ 12      15    ] 0.005988 
    [ 25      27    ] 0.005778 [  1       4    ] 0.005491 [ 36      40    ] 0.004973 
    --------------------------------------------------------------------------------
    Norm of T1B vector: (nonzero elements: 62)                    0.032171876572720.
    --------------------------------------------------------------------------------
    Largest T2 amplitudes for spin case AA:
       i   j   a   b              i   j   a   b              i   j   a   b           
    --------------------------------------------------------------------------------
    [  1  42   1  43]-0.031726 [  1  12   1  13]-0.030679 [  1  16   1  18] 0.029176 
    [  1  42   3  42] 0.026615 [  1  35   1  38] 0.026547 [ 16  42  18  42] 0.025519 
    [  1  35   1  36] 0.024894 [ 12  42  12  44] 0.024218 [ 35  42  38  42] 0.023119 
    [ 35  42  36  42] 0.022414 [ 12  25   1  44] 0.021762 [  1  42  12  29]-0.020350 
    [  1  25   1  28]-0.020245 [  1  25   1  27]-0.020166 [  1  16   1  17]-0.020089 
    --------------------------------------------------------------------------------
    Norm of T2AA vector: (nonzero elements: 20356)                0.470301339970132.
    --------------------------------------------------------------------------------
    Largest T2 amplitudes for spin case AB:
           _       _                  _       _                  _       _           
       i   j   a   b              i   j   a   b              i   j   a   b           
    --------------------------------------------------------------------------------
    [  1  42   1  43]-0.035705 [  0   0   1   1]-0.034824 [ 42  42  42  43]-0.032940 
    [ 12  42  13  42]-0.032217 [  1  12   1  13]-0.031933 [  0   0  42  42]-0.031603 
    [  1   1   1   3] 0.030887 [ 12  12  13  13]-0.030368 [ 42  42  43  43]-0.028959 
    [ 12  42  13  43]-0.027894 [ 16  42  18  42] 0.027144 [  1  42   3  42] 0.026513 
    [  1  35   1  38] 0.026242 [ 42  42  12  12]-0.025411 [ 42  42  13  13]-0.024738 
    --------------------------------------------------------------------------------
    Norm of T2AB vector: (nonzero elements: 23404)                0.473991158098932.
    --------------------------------------------------------------------------------
    Largest T2 amplitudes for spin case BB:
       _   _   _   _              _   _   _   _              _   _   _   _           
       i   j   a   b              i   j   a   b              i   j   a   b           
    --------------------------------------------------------------------------------
    [  1  42   1  43]-0.031726 [  1  12   1  13]-0.030679 [  1  16   1  18] 0.029176 
    [  1  42   3  42] 0.026615 [  1  35   1  38] 0.026547 [ 16  42  18  42] 0.025519 
    [  1  35   1  36] 0.024894 [ 12  42  12  44] 0.024218 [ 35  42  38  42] 0.023119 
    [ 35  42  36  42] 0.022414 [ 12  25   1  44] 0.021762 [  1  42  12  29]-0.020350 
    [  1  25   1  28]-0.020245 [  1  25   1  27]-0.020166 [  1  16   1  17]-0.020089 
    --------------------------------------------------------------------------------
    Norm of T2BB vector: (nonzero elements: 20356)                0.470301339970132.
    --------------------------------------------------------------------------------

  ==> Possible Intruders <==

    T1 amplitudes larger than 0.1000 for spin case A: NULL
    T1 amplitudes larger than 0.1000 for spin case B: NULL
    T2 amplitudes larger than 0.1000 for spin case AA: NULL
    T2 amplitudes larger than 0.1000 for spin case AB: NULL
    T2 amplitudes larger than 0.1000 for spin case BB: NULL

  ==> DSRG-MRPT2 Energy Summary <==

    E0 (reference)                 =    -77.686323936645223
    <[F, T1]>                      =     -0.005202272428543
    <[F, T2]>                      =      0.001771414954157
    <[V, T1]>                      =      0.001762570146525
    <[V, T2]> (C_2)^4              =     -0.293446510003202
    <[V, T2]> C_4 (C_2)^2 HH       =     -0.000629646669611
    <[V, T2]> C_4 (C_2)^2 PP       =     -0.008852670173344
    <[V, T2]> C_4 (C_2)^2 PH       =     -0.004276573419814
    <[V, T2]> C_6 C_2              =      0.000026664293787
    <[V, T2]>                      =     -0.307178735972183
    DSRG-MRPT2 correlation energy  =     -0.308847023300044
    DSRG-MRPT2 total energy        =    -77.995170959945270
    max(T1)                        =      0.011325070317570
    max(T2)                        =      0.035705147573390
    ||T1||                         =      0.045497904176134
    ||T2||                         =      1.158031593946932

  Energy took      0.626 s


  ==> Total Timings (s) for Computing Commutators <==

             [H1, T1]    [H1, T2]    [H2, T1]    [H2, T2]
    -----------------------------------------------------
    -> C0       0.004       0.011       0.008       0.227
    -> C1       0.000       0.000       0.000       0.000
    -> C2                   0.000       0.000       0.000
    -----------------------------------------------------


  ==> CISD Oscillator Strength <==

  0  Ag ->  0  Ag:  X:  0.0000  Y:  0.0000  Z:  0.0000  Total:  0.0000
  0  Ag ->  0 B1u:  X:  0.0000  Y:  0.0000  Z:  0.9367  Total:  0.9367

  ==> ACTIVE-DSRG-MRPT2 Summary <==

    2S+1  Sym.  ROOT                CISD          DSRG-MRPT2    % T1
    ----------------------------------------------------------------
       1    Ag     0      -78.0398483892      -78.3100185227    0.00
    ----------------------------------------------------------------
       1   B1u     0      -77.6863239366      -77.9951709599  100.00
    ----------------------------------------------------------------

  ==> Relative Energy WRT Totally Symmetric Ground State (eV) <==

    2S+1  Sym.  ROOT      CISD  DSRG-PT2                           Excitation Type
    ------------------------------------------------------------------------------
       1   B1u     0     9.620     8.567                0B3u -> 0B2g (   8.34) (S)
    ------------------------------------------------------------------------------
    Excitation type: orbitals are zero-based (active only).
    <r^2> (in a.u.) is given in parentheses. "Diffuse" when <r^2> > 1.0e6.
    (S) for singles; (D) for doubles.

  Your calculation took 4.45566600 seconds
	VCISD-DSRG-MRPT2 INTERNAL: SD OOVV................................PASSED
   => Loading Basis Set <=

    Name: STO-3G
    Role: ORBITAL
    Keyword: MINAO_BASIS
    atoms 1-4 entry H          line    19 file /Users/york/src/psi4new/psi4/share/psi4/basis/sto-3g.gbs 
    atoms 5-6 entry C          line    61 file /Users/york/src/psi4new/psi4/share/psi4/basis/sto-3g.gbs 


Reading options from the FORTE block
Calling plugin forte.so.




  ==> MO Space Information <==

  Read options for space FROZEN_DOCC
  Read options for space RESTRICTED_DOCC
  Read options for space ACTIVE
 Removing orbital 0
 Removing orbital 26
  -------------------------------------------------------------------------
                       Ag   B1g   B2g   B3g    Au   B1u   B2u   B3u   Sum
  -------------------------------------------------------------------------
    FROZEN_DOCC         1     0     0     0     0     1     0     0     2
    RESTRICTED_DOCC     1     0     0     1     0     1     1     0     4
    ACTIVE              1     0     1     1     0     1     1     1     6
    RESTRICTED_UOCC     8     2     3     5     2     8     5     3    36
    FROZEN_UOCC         0     0     0     0     0     0     0     0     0
    Total              11     2     4     7     2    11     7     4    48
  -------------------------------------------------------------------------

  ==> Integral Transformation <==

  Number of molecular orbitals:               48
  Number of correlated molecular orbitals:    46
  Number of frozen occupied orbitals:          2
  Number of frozen unoccupied orbitals:        0

    Molecular point group: d2h
    Full point group: D2h

    Geometry (in Angstrom), charge = 0, multiplicity = 1:

       Center              X                  Y                   Z               Mass       
    ------------   -----------------  -----------------  -----------------  -----------------
           H         -0.000000000000     0.923274000000     1.238289000000     1.007825032070
           H          0.000000000000    -0.923274000000     1.238289000000     1.007825032070
           H         -0.000000000000     0.923274000000    -1.238289000000     1.007825032070
           H          0.000000000000    -0.923274000000    -1.238289000000     1.007825032070
           C          0.000000000000     0.000000000000     0.668188000000    12.000000000000
           C          0.000000000000     0.000000000000    -0.668188000000    12.000000000000

  -AO BASIS SET INFORMATION:
    Name                   = CC-PVDZ
    Blend                  = CC-PVDZ
    Total number of shells = 24
    Number of primitives   = 64
    Number of AO           = 50
    Number of SO           = 48
    Maximum AM             = 2
    Spherical Harmonics    = TRUE

  -Contraction Scheme:
    Atom   Type   All Primitives // Shells:
   ------ ------ --------------------------
       1     H     4s 1p // 2s 1p 
       2     H     4s 1p // 2s 1p 
       3     H     4s 1p // 2s 1p 
       4     H     4s 1p // 2s 1p 
       5     C     17s 4p 1d // 3s 2p 1d 
       6     C     17s 4p 1d // 3s 2p 1d 

  ==> AO Basis Functions <==

    [ CC-PVDZ ]
    spherical
    ****
    H   1
    S   3 1.00
                        13.01000000           0.01968500
                         1.96200000           0.13797700
                         0.44460000           0.47814800
    S   1 1.00
                         0.12200000           1.00000000
    P   1 1.00
                         0.72700000           1.00000000
    ****
    C   5
    S   8 1.00
                      6665.00000000           0.00069200
                      1000.00000000           0.00532900
                       228.00000000           0.02707700
                        64.71000000           0.10171800
                        21.06000000           0.27474000
                         7.49500000           0.44856400
                         2.79700000           0.28507400
                         0.52150000           0.01520400
    S   8 1.00
                      6665.00000000          -0.00014600
                      1000.00000000          -0.00115400
                       228.00000000          -0.00572500
                        64.71000000          -0.02331200
                        21.06000000          -0.06395500
                         7.49500000          -0.14998100
                         2.79700000          -0.12726200
                         0.52150000           0.54452900
    S   1 1.00
                         0.15960000           1.00000000
    P   3 1.00
                         9.43900000           0.03810900
                         2.00200000           0.20948000
                         0.54560000           0.50855700
    P   1 1.00
                         0.15170000           1.00000000
    D   1 1.00
                         0.55000000           1.00000000
    ****


  Overall Conventional Integrals timings

   (n = 8): 0  0  0  0  0  0  0  0  
  SOs per irrep (n = 8): 11  2  4  7  2  11  7  4  
  Frozen core orbitals per irrep (n = 8): 0  0  0  0  0  0  0  0  
  Frozen core orbitals per irrep (n = 8): 11  2  4  7  2  11  7  4  
	Presorting SO-basis two-electron integrals.
	Sorting File: SO Ints (nn|nn) nbuckets = 1
	Transforming the one-electron integrals and constructing Fock matrices
	Starting first half-transformation.
	Sorting half-transformed integrals.
	First half integral transformation complete.
	Starting second half-transformation.
	Two-electron integral transformation complete.

  Integral transformation done. 0.05013000 s
  Reading the two-electron integrals from disk
  Size of two-electron integrals:   0.118652 GB
  Frozen-core energy            -78.536477401560 a.u.

  FrozenOneBody Operator takes  0.15330900 s
  Resorting integrals after freezing core.
  Conventional integrals take 0.85166700 s

              ---------------------------------------------------
                               ACTIVE-DSRG-MRPT2
                Wrapper for Multiple SS-DSRG-MRPT2 Computations
                                  Chenyang Li
              ---------------------------------------------------

  Note: Orbitals are NOT optimized throughout the process.
  Reference selection criteria (CAS/CIS/CISD) will NOT change.
  Each state uses its OWN semicanonical orbitals.
  Ground state is assumed to be a singlet.
  Otherwise, please run separate DSRG-MRPT2 jobs.

  ==> Input Summary <==

    total roots requested (include S0)                     2
    multiplicity                                           1
    reference space type                                CISD
    separate HF in CISD                                 TURE
    DSRG-MRPT2 internal amplitudes           SINGLES_DOUBLES
    DSRG-MRPT2 internal type                             ALL

  ==> Roots Summary <==

                Ag   B1g   B2g   B3g    Au   B1u   B2u   B3u
    ----------------------------------------------------------
      NROOTS     1     0     0     0     0     1     0     0
    ----------------------------------------------------------

  ==> Precomputation of ACTIVE-DSRGPT2 <==

  Note: Looping over all roots to
  1) determine excitation type;
  2) obtain original orbital extent;
  3) obtain unitary matrices that semicanonicalize orbitals of each state;
  4) compute singlet CIS/CISD oscillator strength;
  5) determine %T1 in CISD.


              ---------------------------------------------------
                Complete Active Space Configuration Interaction
                                  Chenyang Li
              ---------------------------------------------------


  ==> Input Summary <==

    number of atoms                =     6
    number of electrons            =    16
    molecular charge               =     0
    number of alpha electrons      =     8
    number of beta electrons       =     8
    multiplicity                   =     1
    ms (2 * Sz)                    =     0
    number of molecular orbitals   =    48

  ==> Orbital Spaces <==

    TOTAL MO                      [   11     2     4     7     2    11     7     4 ]
    FROZEN CORE                   [    1     0     0     0     0     1     0     0 ]
    FROZEN VIRTUAL                [    0     0     0     0     0     0     0     0 ]
    CORRELATED MO                 [   10     2     4     7     2    10     7     4 ]
    CORE                          [    1     0     0     1     0     1     1     0 ]
    ACTIVE                        [    1     0     1     1     0     1     1     1 ]
    VIRTUAL                       [    8     2     3     5     2     8     5     3 ]

  ==> Working on Irrep Ag <==

  Forming determinants                ...  Done. Timing        0.000016 s

  ==> Determinants Summary <==

    number of alpha active electrons         =     2
    number of beta active electrons          =     2
    root symmetry (zero based)               =     0
    number of determinants (include RHF)     =    15

  Isolate RHF determinant to the rest determinants.
  Recompute RHF energy ... Done.

  * * * * * * * * * * * * * * * * *
  *  CI Vectors & Configurations  *
  * * * * * * * * * * * * * * * * *

  ==> Root No. 0 <==

    2 0 0 0 0 2          1.0000000000

    Total Energy:   -78.039848389225853


  Forming one-particle density        ...  Done. Timing        0.000111 s
  Forming generalized Fock matrix     ...  Done. Timing        0.001434 s

  ==> Permanent Dipole Moments (Ag) <==

  Only print nonzero (> 1.0e-5) elements.

  Computing semicanonical orbital rotation matrix for root 0.
  Forming one-particle density        ...  Done. Timing        0.000107 s
  Forming generalized Fock matrix     ...  Done. Timing        0.001384 s
  Diagonalizing Fock                  ...  Done. Timing        0.000169 s

  Computing CISD reference oscillator strength 0Ag -> nAg ... Done.

  ==> Working on Irrep B1u <==

  Forming determinants                ...  Done. Timing        0.000010 s

  ==> Determinants Summary <==

    number of alpha active electrons         =     2
    number of beta active electrons          =     2
    root symmetry (zero based)               =     5
    number of determinants                   =     8

  Diagonalizing Hamiltonian           ...
  Found 4 roots with 2S+1 = 1 *
  Found 4 roots with 2S+1 = 3  Done. Timing        0.000162 s

  * * * * * * * * * * * * * * * * *
  *  CI Vectors & Configurations  *
  * * * * * * * * * * * * * * * * *

  ==> Root No. 0 <==

    2 a 0 0 0 b         -0.7064377598
    2 b 0 0 0 a         -0.7064377598

    Total Energy:   -77.686323936645223


  Forming one-particle density        ...  Done. Timing        0.000068 s
  Forming generalized Fock matrix     ...  Done. Timing        0.002260 s

  ==> Permanent Dipole Moments (B1u) <==

  Only print nonzero (> 1.0e-5) elements.

  Computing semicanonical orbital rotation matrix for root 0.
  Forming one-particle density        ...  Done. Timing        0.000066 s
  Forming generalized Fock matrix     ...  Done. Timing        0.002959 s
  Diagonalizing Fock                  ...  Done. Timing        0.000171 s

  Computing CISD reference oscillator strength 0Ag -> nB1u ... Done.

  ===================================
    Current Job:  Ag state, root  0
  ===================================

  Rotate to semicanonical orbitals.

    Molecular point group: d2h
    Full point group: D2h

    Geometry (in Angstrom), charge = 0, multiplicity = 1:

       Center              X                  Y                   Z               Mass       
    ------------   -----------------  -----------------  -----------------  -----------------
           H         -0.000000000000     0.923274000000     1.238289000000     1.007825032070
           H          0.000000000000    -0.923274000000     1.238289000000     1.007825032070
           H         -0.000000000000     0.923274000000    -1.238289000000     1.007825032070
           H          0.000000000000    -0.923274000000    -1.238289000000     1.007825032070
           C          0.000000000000     0.000000000000     0.668188000000    12.000000000000
           C          0.000000000000     0.000000000000    -0.668188000000    12.000000000000

  -AO BASIS SET INFORMATION:
    Name                   = CC-PVDZ
    Blend                  = CC-PVDZ
    Total number of shells = 24
    Number of primitives   = 64
    Number of AO           = 50
    Number of SO           = 48
    Maximum AM             = 2
    Spherical Harmonics    = TRUE

  -Contraction Scheme:
    Atom   Type   All Primitives // Shells:
   ------ ------ --------------------------
       1     H     4s 1p // 2s 1p 
       2     H     4s 1p // 2s 1p 
       3     H     4s 1p // 2s 1p 
       4     H     4s 1p // 2s 1p 
       5     C     17s 4p 1d // 3s 2p 1d 
       6     C     17s 4p 1d // 3s 2p 1d 

  ==> AO Basis Functions <==

    [ CC-PVDZ ]
    spherical
    ****
    H   1
    S   3 1.00
                        13.01000000           0.01968500
                         1.96200000           0.13797700
                         0.44460000           0.47814800
    S   1 1.00
                         0.12200000           1.00000000
    P   1 1.00
                         0.72700000           1.00000000
    ****
    C   5
    S   8 1.00
                      6665.00000000           0.00069200
                      1000.00000000           0.00532900
                       228.00000000           0.02707700
                        64.71000000           0.10171800
                        21.06000000           0.27474000
                         7.49500000           0.44856400
                         2.79700000           0.28507400
                         0.52150000           0.01520400
    S   8 1.00
                      6665.00000000          -0.00014600
                      1000.00000000          -0.00115400
                       228.00000000          -0.00572500
                        64.71000000          -0.02331200
                        21.06000000          -0.06395500
                         7.49500000          -0.14998100
                         2.79700000          -0.12726200
                         0.52150000           0.54452900
    S   1 1.00
                         0.15960000           1.00000000
    P   3 1.00
                         9.43900000           0.03810900
                         2.00200000           0.20948000
                         0.54560000           0.50855700
    P   1 1.00
                         0.15170000           1.00000000
    D   1 1.00
                         0.55000000           1.00000000
    ****


 Integrals are about to be computed.   (n = 8): 0  0  0  0  0  0  0  0  
  SOs per irrep (n = 8): 11  2  4  7  2  11  7  4  
  Frozen core orbitals per irrep (n = 8): 0  0  0  0  0  0  0  0  
  Frozen core orbitals per irrep (n = 8): 11  2  4  7  2  11  7  4  
	Presorting SO-basis two-electron integrals.
	Sorting File: SO Ints (nn|nn) nbuckets = 1
	Transforming the one-electron integrals and constructing Fock matrices
	Starting first half-transformation.
	Sorting half-transformed integrals.
	First half integral transformation complete.
	Starting second half-transformation.
	Two-electron integral transformation complete.

  Integral transformation done. 0.06030200 s
  Reading the two-electron integrals from disk
  Size of two-electron integrals:   0.118652 GB
 Integrals are about to be updated.
  Frozen-core energy            -78.536477401560 a.u.

  FrozenOneBody Operator takes  0.11847100 s
  Resorting integrals after freezing core.
  Frozen Orbitals takes     0.343 s.
  Forming determinants                ...  Done. Timing        0.000029 s

  ==> Determinants Summary <==

    number of alpha active electrons         =     2
    number of beta active electrons          =     2
    root symmetry (zero based)               =     0
    number of determinants (include RHF)     =    15

  Isolate RHF determinant to the rest determinants.
  Recompute RHF energy ... Done.

  * * * * * * * * * * * * * * * * *
  *  CI Vectors & Configurations  *
  * * * * * * * * * * * * * * * * *

  ==> Root No. 0 <==

    2 0 0 0 0 2          1.0000000000

    Total Energy:   -78.039848389225853


  Forming one-particle density        ...  Done. Timing        0.000112 s
  Forming generalized Fock matrix     ...  Done. Timing        0.001489 s

  ==> Permanent Dipole Moments (Ag) <==

  Only print nonzero (> 1.0e-5) elements.

  Computing 2- and 3-cumulants ... Done.

  Checking Fock matrices (Fa, Fb)     ...
  Nonzero criteria: > 1.00E-10
  Fa_CORE    block is diagonal.
  Fb_CORE    block is diagonal.
  Fa_ACT_H   block is diagonal.
  Fb_ACT_H   block is diagonal.
  Fa_ACT_P   block is diagonal.
  Fb_ACT_P   block is diagonal.
  Fa_VIRTUAL block is diagonal.
  Fb_VIRTUAL block is diagonal.
  Done checking Fock matrices.                   Timing        0.000053 s


              ----------------------------------------------------
                 Driven Similarity Renormalization Group MBPT2
                Chenyang Li, Kevin Hannon, Francesco Evangelista
              ----------------------------------------------------

    References:
      u-DSRG-MRPT2:    J. Chem. Theory Comput. 2015, 11, 2097.
      (pr-)DSRG-MRPT2: J. Chem. Phys. 2017, 146, 124132.

  ==> Calculation Information <==

    ntamp                                                 15
    flow parameter                                 5.000e-01
    taylor expansion threshold                     1.000e-03
    intruder_tamp                                  1.000e-01
    int_type                                    CONVENTIONAL
    source operator                                 STANDARD
    reference relaxation                                NONE
    state_type                                STATE-SPECIFIC
    internal_amp                             SINGLES_DOUBLES
    internal_amp_select                                  ALL
    form Hbar3                                         FALSE

  ==> Checking Orbitals <==

    Checking if orbitals are semi-canonicalized ...     OK.
    Orbitals are semi-canonicalized.

  ==> Computing DSRG-MRPT2 ... <==

    Computing T2 amplitudes                  ...  Done. Timing        0.121257 s
    Computing T1 amplitudes                  ...  Done. Timing        0.006585 s
    Renormalizing two-electron integrals     ...  Done. Timing        0.105857 s
    Renormalizing Fock matrix elements       ...  Done. Timing        0.006668 s
    Computing <[F, T1]>                      ...  Done. Timing        0.006158 s
    Computing <[F, T2]>                      ...  Done. Timing        0.009181 s
    Computing <[V, T1]>                      ...  Done. Timing        0.008216 s
    Computing <[V, T2]> (C_2)^4              ...  Done. Timing        0.055780 s
    Computing <[V, T2]> C_4 (C_2)^2 HH       ...  Done. Timing        0.011705 s
    Computing <[V, T2]> C_4 (C_2)^2 PP       ...  Done. Timing        0.013673 s
    Computing <[V, T2]> C_4 (C_2)^2 PH       ...  Done. Timing        0.056571 s
    Computing <[V, T2]> C_6 C_2              ...  Done. Timing        0.093023 s

  ==> Excitation Amplitudes Summary <==

    Active Indices:    1   12   17   26   36   42 


    Largest T2 amplitudes for spin case AA:
       i   j   a   b              i   j   a   b              i   j   a   b           
    --------------------------------------------------------------------------------
    [  1  42   1  43]-0.034328 [  1  16   1  18] 0.029116 [  1  12   1  13]-0.026893 
    [  1  35   1  38]-0.026539 [ 16  42  18  42] 0.025500 [  1  42   3  42]-0.025140 
    [  1  35   1  36] 0.024572 [ 12  42  12  44] 0.024161 [ 25  42   1  12]-0.023316 
    [ 35  42  38  42]-0.023123 [ 35  42  36  42] 0.022124 [ 12  25   1  44] 0.021303 
    [  1  42  12  29] 0.020664 [  1  17   1  18] 0.020654 [  1  25   1  28]-0.020535 
    --------------------------------------------------------------------------------
    Norm of T2AA vector: (nonzero elements: 20389)                0.471091018836515.
    --------------------------------------------------------------------------------
    Largest T2 amplitudes for spin case AB:
           _       _                  _       _                  _       _           
       i   j   a   b              i   j   a   b              i   j   a   b           
    --------------------------------------------------------------------------------
    [ 12  12  42  42] 0.041280 [  1  42   1  43]-0.038632 [ 42  42  42  43]-0.035641 
    [  0   0   1   1]-0.034557 [  0   0  42  42]-0.030838 [ 12  12  13  13]-0.029320 
    [  1   1   1   3]-0.029260 [ 12  42  13  42]-0.028188 [  1  12   1  13]-0.028044 
    [ 12  42  13  43]-0.027763 [ 42  42  43  43]-0.027516 [ 16  42  18  42] 0.027111 
    [  1  35   1  38]-0.026249 [  1  42   3  42]-0.025144 [ 12  42  12  43]-0.025036 
    --------------------------------------------------------------------------------
    Norm of T2AB vector: (nonzero elements: 23444)                0.473975624706940.
    --------------------------------------------------------------------------------
    Largest T2 amplitudes for spin case BB:
       _   _   _   _              _   _   _   _              _   _   _   _           
       i   j   a   b              i   j   a   b              i   j   a   b           
    --------------------------------------------------------------------------------
    [  1  42   1  43]-0.034328 [  1  16   1  18] 0.029116 [  1  12   1  13]-0.026893 
    [  1  35   1  38]-0.026539 [ 16  42  18  42] 0.025500 [  1  42   3  42]-0.025140 
    [  1  35   1  36] 0.024572 [ 12  42  12  44] 0.024161 [ 25  42   1  12]-0.023316 
    [ 35  42  38  42]-0.023123 [ 35  42  36  42] 0.022124 [ 12  25   1  44] 0.021303 
    [  1  42  12  29] 0.020664 [  1  17   1  18] 0.020654 [  1  25   1  28]-0.020535 
    --------------------------------------------------------------------------------
    Norm of T2BB vector: (nonzero elements: 20389)                0.471091018836515.
    --------------------------------------------------------------------------------

  ==> Possible Intruders <==

    T1 amplitudes larger than 0.1000 for spin case A: NULL
    T1 amplitudes larger than 0.1000 for spin case B: NULL
    T2 amplitudes larger than 0.1000 for spin case AA: NULL
    T2 amplitudes larger than 0.1000 for spin case AB: NULL
    T2 amplitudes larger than 0.1000 for spin case BB: NULL

  ==> DSRG-MRPT2 Energy Summary <==

    E0 (reference)                 =    -78.039848389225853
    <[F, T1]>                      =      0.000000000000000
    <[F, T2]>                      =      0.000000000000000
    <[V, T1]>                      =      0.000000000000000
    <[V, T2]> (C_2)^4              =     -0.270170133476964
    <[V, T2]> C_4 (C_2)^2 HH       =      0.000000000000000
    <[V, T2]> C_4 (C_2)^2 PP       =      0.000000000000000
    <[V, T2]> C_4 (C_2)^2 PH       =      0.000000000000000
    <[V, T2]> C_6 C_2              =      0.000000000000000
    <[V, T2]>                      =     -0.270170133476964
    DSRG-MRPT2 correlation energy  =     -0.270170133476964
    DSRG-MRPT2 total energy        =    -78.310018522702819
    max(T1)                        =      0.000000000000000
    max(T2)                        =      0.041279815863018
    ||T1||                         =      0.000000000000000
    ||T2||                         =      1.158647947964431

  Energy took      0.618 s


  ==> Total Timings (s) for Computing Commutators <==

             [H1, T1]    [H1, T2]    [H2, T1]    [H2, T2]
    -----------------------------------------------------
    -> C0       0.006       0.009       0.008       0.231
    -> C1       0.000       0.000       0.000       0.000
    -> C2                   0.000       0.000       0.000
    -----------------------------------------------------


  ===================================
    Current Job: B1u state, root  0
  ===================================

  Rotate to semicanonical orbitals.

    Molecular point group: d2h
    Full point group: D2h

    Geometry (in Angstrom), charge = 0, multiplicity = 1:

       Center              X                  Y                   Z               Mass       
    ------------   -----------------  -----------------  -----------------  -----------------
           H         -0.000000000000     0.923274000000     1.238289000000     1.007825032070
           H          0.000000000000    -0.923274000000     1.238289000000     1.007825032070
           H         -0.000000000000     0.923274000000    -1.238289000000     1.007825032070
           H          0.000000000000    -0.923274000000    -1.238289000000     1.007825032070
           C          0.000000000000     0.000000000000     0.668188000000    12.000000000000
           C          0.000000000000     0.000000000000    -0.668188000000    12.000000000000

  -AO BASIS SET INFORMATION:
    Name                   = CC-PVDZ
    Blend                  = CC-PVDZ
    Total number of shells = 24
    Number of primitives   = 64
    Number of AO           = 50
    Number of SO           = 48
    Maximum AM             = 2
    Spherical Harmonics    = TRUE

  -Contraction Scheme:
    Atom   Type   All Primitives // Shells:
   ------ ------ --------------------------
       1     H     4s 1p // 2s 1p 
       2     H     4s 1p // 2s 1p 
       3     H     4s 1p // 2s 1p 
       4     H     4s 1p // 2s 1p 
       5     C     17s 4p 1d // 3s 2p 1d 
       6     C     17s 4p 1d // 3s 2p 1d 

  ==> AO Basis Functions <==

    [ CC-PVDZ ]
    spherical
    ****
    H   1
    S   3 1.00
                        13.01000000           0.01968500
                         1.96200000           0.13797700
                         0.44460000           0.47814800
    S   1 1.00
                         0.12200000           1.00000000
    P   1 1.00
                         0.72700000           1.00000000
    ****
    C   5
    S   8 1.00
                      6665.00000000           0.00069200
                      1000.00000000           0.00532900
                       228.00000000           0.02707700
                        64.71000000           0.10171800
                        21.06000000           0.27474000
                         7.49500000           0.44856400
                         2.79700000           0.28507400
                         0.52150000           0.01520400
    S   8 1.00
                      6665.00000000          -0.00014600
                      1000.00000000          -0.00115400
                       228.00000000          -0.00572500
                        64.71000000          -0.02331200
                        21.06000000          -0.06395500
                         7.49500000          -0.14998100
                         2.79700000          -0.12726200
                         0.52150000           0.54452900
    S   1 1.00
                         0.15960000           1.00000000
    P   3 1.00
                         9.43900000           0.03810900
                         2.00200000           0.20948000
                         0.54560000           0.50855700
    P   1 1.00
                         0.15170000           1.00000000
    D   1 1.00
                         0.55000000           1.00000000
    ****


 Integrals are about to be computed.   (n = 8): 0  0  0  0  0  0  0  0  
  SOs per irrep (n = 8): 11  2  4  7  2  11  7  4  
  Frozen core orbitals per irrep (n = 8): 0  0  0  0  0  0  0  0  
  Frozen core orbitals per irrep (n = 8): 11  2  4  7  2  11  7  4  
	Presorting SO-basis two-electron integrals.
	Sorting File: SO Ints (nn|nn) nbuckets = 1
	Transforming the one-electron integrals and constructing Fock matrices
	Starting first half-transformation.
	Sorting half-transformed integrals.
	First half integral transformation complete.
	Starting second half-transformation.
	Two-electron integral transformation complete.

  Integral transformation done. 0.05140500 s
  Reading the two-electron integrals from disk
  Size of two-electron integrals:   0.118652 GB
 Integrals are about to be updated.
  Frozen-core energy            -78.536477401560 a.u.

  FrozenOneBody Operator takes  0.12280900 s
  Resorting integrals after freezing core.
  Frozen Orbitals takes     0.386 s.
  Forming determinants                ...  Done. Timing        0.000025 s

  ==> Determinants Summary <==

    number of alpha active electrons         =     2
    number of beta active electrons          =     2
    root symmetry (zero based)               =     5
    number of determinants                   =     8

  Diagonalizing Hamiltonian           ...
  Found 4 roots with 2S+1 = 1 *
  Found 4 roots with 2S+1 = 3  Done. Timing        0.000182 s

  * * * * * * * * * * * * * * * * *
  *  CI Vectors & Configurations  *
  * * * * * * * * * * * * * * * * *

  ==> Root No. 0 <==

    2 a 0 0 0 b         -0.7064377598
    2 b 0 0 0 a         -0.7064377598

    Total Energy:   -77.686323936645223


  Forming one-particle density        ...  Done. Timing        0.000074 s
  Forming generalized Fock matrix     ...  Done. Timing        0.002316 s

  ==> Permanent Dipole Moments (B1u) <==

  Only print nonzero (> 1.0e-5) elements.

  Computing 2- and 3-cumulants ... Done.

  Checking Fock matrices (Fa, Fb)     ...
  Nonzero criteria: > 1.00E-10
  Fa_CORE    block is diagonal.
  Fb_CORE    block is diagonal.
  Fa_ACT_H   block is diagonal.
  Fb_ACT_H   block is diagonal.
  Fa_ACT_P   block is diagonal.
  Fb_ACT_P   block is diagonal.
  Fa_VIRTUAL block is diagonal.
  Fb_VIRTUAL block is diagonal.
  Done checking Fock matrices.                   Timing        0.000056 s


              ----------------------------------------------------
                 Driven Similarity Renormalization Group MBPT2
                Chenyang Li, Kevin Hannon, Francesco Evangelista
              ----------------------------------------------------

    References:
      u-DSRG-MRPT2:    J. Chem. Theory Comput. 2015, 11, 2097.
      (pr-)DSRG-MRPT2: J. Chem. Phys. 2017, 146, 124132.

[...]
    Norm of T2AA vector: (nonzero elements: 20380)                0.471088031830334.
    --------------------------------------------------------------------------------
    Largest T2 amplitudes for spin case AB:
           _       _                  _       _                  _       _           
       i   j   a   b              i   j   a   b              i   j   a   b           
    --------------------------------------------------------------------------------
    [ 42  42  12  12]-0.041280 [  1  42   1  43] 0.038632 [ 42  42  42  43] 0.035641 
    [  0   0   1   1]-0.034557 [  0   0  42  42]-0.030838 [ 12  12  13  13]-0.029320 
    [  1   1   1   3]-0.029260 [ 12  42  13  42] 0.028188 [  1  12   1  13] 0.028044 
    [ 12  42  13  43]-0.027763 [ 42  42  43  43]-0.027516 [ 16  42  18  42]-0.027111 
    [  1  35   1  38]-0.026249 [  1  42   3  42]-0.025144 [ 12  42  12  43] 0.025036 
    --------------------------------------------------------------------------------
    Norm of T2AB vector: (nonzero elements: 23428)                0.473925272046750.
    --------------------------------------------------------------------------------
    Largest T2 amplitudes for spin case BB:
       _   _   _   _              _   _   _   _              _   _   _   _           
       i   j   a   b              i   j   a   b              i   j   a   b           
    --------------------------------------------------------------------------------
    [  1  42   1  43] 0.034328 [  1  16   1  18]-0.029116 [  1  12   1  13] 0.026893 
    [  1  35   1  38]-0.026539 [ 16  42  18  42]-0.025500 [  1  42   3  42]-0.025140 
    [  1  35   1  36] 0.024572 [ 12  42  12  44]-0.024161 [ 25  42   1  12]-0.023316 
    [ 35  42  38  42]-0.023123 [ 35  42  36  42] 0.022124 [ 12  25   1  44]-0.021303 
    [  1  42  12  29]-0.020664 [  1  17   1  18]-0.020654 [  1  25   1  28]-0.020535 
    --------------------------------------------------------------------------------
    Norm of T2BB vector: (nonzero elements: 20380)                0.471088031830334.
    --------------------------------------------------------------------------------

  ==> Possible Intruders <==

    T1 amplitudes larger than 0.1000 for spin case A: NULL
    T1 amplitudes larger than 0.1000 for spin case B: NULL
    T2 amplitudes larger than 0.1000 for spin case AA: NULL
    T2 amplitudes larger than 0.1000 for spin case AB: NULL
    T2 amplitudes larger than 0.1000 for spin case BB: NULL

  ==> DSRG-MRPT2 Energy Summary <==

    E0 (reference)                 =    -78.039848389225853
    <[F, T1]>                      =      0.000000000000000
    <[F, T2]>                      =      0.000000000000000
    <[V, T1]>                      =      0.000000000000000
    <[V, T2]> (C_2)^4              =     -0.270170133476963
    <[V, T2]> C_4 (C_2)^2 HH       =      0.000000000000000
    <[V, T2]> C_4 (C_2)^2 PP       =      0.000000000000000
    <[V, T2]> C_4 (C_2)^2 PH       =      0.000000000000000
    <[V, T2]> C_6 C_2              =      0.000000000000000
    <[V, T2]>                      =     -0.270170133476963
    DSRG-MRPT2 correlation energy  =     -0.270170133476963
    DSRG-MRPT2 total energy        =    -78.310018522702819
    max(T1)                        =      0.000000000000000
    max(T2)                        =      0.041279815863018
    ||T1||                         =      0.000000000000000
    ||T2||                         =      1.158563127933001

  Energy took      0.624 s


  ==> Total Timings (s) for Computing Commutators <==

             [H1, T1]    [H1, T2]    [H2, T1]    [H2, T2]
    -----------------------------------------------------
    -> C0       0.003       0.015       0.008       0.230
    -> C1       0.000       0.000       0.000       0.000
    -> C2                   0.000       0.000       0.000
    -----------------------------------------------------


  ===================================
    Current Job: B1u state, root  0
  ===================================

  Rotate to semicanonical orbitals.

    Molecular point group: d2h
    Full point group: D2h

    Geometry (in Angstrom), charge = 0, multiplicity = 1:

       Center              X                  Y                   Z               Mass       
    ------------   -----------------  -----------------  -----------------  -----------------
           H         -0.000000000000     0.923274000000     1.238289000000     1.007825032070
           H          0.000000000000    -0.923274000000     1.238289000000     1.007825032070
           H         -0.000000000000     0.923274000000    -1.238289000000     1.007825032070
           H          0.000000000000    -0.923274000000    -1.238289000000     1.007825032070
           C          0.000000000000     0.000000000000     0.668188000000    12.000000000000
           C          0.000000000000     0.000000000000    -0.668188000000    12.000000000000

  -AO BASIS SET INFORMATION:
    Name                   = CC-PVDZ
    Blend                  = CC-PVDZ
    Total number of shells = 24
    Number of primitives   = 64
    Number of AO           = 50
    Number of SO           = 48
    Maximum AM             = 2
    Spherical Harmonics    = TRUE

  -Contraction Scheme:
    Atom   Type   All Primitives // Shells:
   ------ ------ --------------------------
       1     H     4s 1p // 2s 1p 
       2     H     4s 1p // 2s 1p 
       3     H     4s 1p // 2s 1p 
       4     H     4s 1p // 2s 1p 
       5     C     17s 4p 1d // 3s 2p 1d 
       6     C     17s 4p 1d // 3s 2p 1d 

  ==> AO Basis Functions <==

    [ CC-PVDZ ]
    spherical
    ****
    H   1
    S   3 1.00
                        13.01000000           0.01968500
                         1.96200000           0.13797700
                         0.44460000           0.47814800
    S   1 1.00
                         0.12200000           1.00000000
    P   1 1.00
                         0.72700000           1.00000000
    ****
    C   5
    S   8 1.00
                      6665.00000000           0.00069200
                      1000.00000000           0.00532900
                       228.00000000           0.02707700
                        64.71000000           0.10171800
                        21.06000000           0.27474000
                         7.49500000           0.44856400
                         2.79700000           0.28507400
                         0.52150000           0.01520400
    S   8 1.00
                      6665.00000000          -0.00014600
                      1000.00000000          -0.00115400
                       228.00000000          -0.00572500
                        64.71000000          -0.02331200
                        21.06000000          -0.06395500
                         7.49500000          -0.14998100
                         2.79700000          -0.12726200
                         0.52150000           0.54452900
    S   1 1.00
                         0.15960000           1.00000000
    P   3 1.00
                         9.43900000           0.03810900
                         2.00200000           0.20948000
                         0.54560000           0.50855700
    P   1 1.00
                         0.15170000           1.00000000
    D   1 1.00
                         0.55000000           1.00000000
    ****


 Integrals are about to be computed.   (n = 8): 0  0  0  0  0  0  0  0  
  SOs per irrep (n = 8): 11  2  4  7  2  11  7  4  
  Frozen core orbitals per irrep (n = 8): 0  0  0  0  0  0  0  0  
  Frozen core orbitals per irrep (n = 8): 11  2  4  7  2  11  7  4  
	Presorting SO-basis two-electron integrals.
	Sorting File: SO Ints (nn|nn) nbuckets = 1
	Transforming the one-electron integrals and constructing Fock matrices
	Starting first half-transformation.
	Sorting half-transformed integrals.
	First half integral transformation complete.
	Starting second half-transformation.
	Two-electron integral transformation complete.

  Integral transformation done. 0.04829200 s
  Reading the two-electron integrals from disk
  Size of two-electron integrals:   0.118652 GB
 Integrals are about to be updated.
  Frozen-core energy            -78.536477401560 a.u.

  FrozenOneBody Operator takes  0.12468300 s
  Resorting integrals after freezing core.
  Frozen Orbitals takes     0.368 s.
  Forming determinants                ...  Done. Timing        0.000013 s

  ==> Determinants Summary <==

    number of alpha active electrons         =     2
    number of beta active electrons          =     2
    root symmetry (zero based)               =     5
    number of determinants                   =     8

  Diagonalizing Hamiltonian           ...
  Found 4 roots with 2S+1 = 1 *
  Found 4 roots with 2S+1 = 3  Done. Timing        0.000175 s

  * * * * * * * * * * * * * * * * *
  *  CI Vectors & Configurations  *
  * * * * * * * * * * * * * * * * *

  ==> Root No. 0 <==

    2 a 0 0 0 b         -0.7064377598
    2 b 0 0 0 a         -0.7064377598

    Total Energy:   -77.686323936645223


  Forming one-particle density        ...  Done. Timing        0.000071 s
  Forming generalized Fock matrix     ...  Done. Timing        0.003064 s

  ==> Permanent Dipole Moments (B1u) <==

  Only print nonzero (> 1.0e-5) elements.

  Computing 2- and 3-cumulants ... Done.

  Checking Fock matrices (Fa, Fb)     ...
  Nonzero criteria: > 1.00E-10
  Fa_CORE    block is diagonal.
  Fb_CORE    block is diagonal.
  Fa_ACT_H   block is diagonal.
  Fb_ACT_H   block is diagonal.
  Fa_ACT_P   block is diagonal.
  Fb_ACT_P   block is diagonal.
  Fa_VIRTUAL block is diagonal.
  Fb_VIRTUAL block is diagonal.
  Done checking Fock matrices.                   Timing        0.000052 s


              ----------------------------------------------------
                 Driven Similarity Renormalization Group MBPT2
                Chenyang Li, Kevin Hannon, Francesco Evangelista
              ----------------------------------------------------

    References:
      u-DSRG-MRPT2:    J. Chem. Theory Comput. 2015, 11, 2097.
      (pr-)DSRG-MRPT2: J. Chem. Phys. 2017, 146, 124132.

  ==> Calculation Information <==

    ntamp                                                 15
    flow parameter                                 5.000e-01
    taylor expansion threshold                     1.000e-03
    intruder_tamp                                  1.000e-01
    int_type                                    CONVENTIONAL
    source operator                                 STANDARD
    reference relaxation                                NONE
    state_type                                STATE-SPECIFIC
    internal_amp                             SINGLES_DOUBLES
    internal_amp_select                                 AUTO
    form Hbar3                                         FALSE

  ==> Checking Orbitals <==

    Checking if orbitals are semi-canonicalized ...     OK.
    Orbitals are semi-canonicalized.

  ==> Computing DSRG-MRPT2 ... <==

    Computing T2 amplitudes                  ...  Done. Timing        0.119165 s
    Computing T1 amplitudes                  ...  Done. Timing        0.011955 s
    Renormalizing two-electron integrals     ...  Done. Timing        0.116416 s
    Renormalizing Fock matrix elements       ...  Done. Timing        0.005234 s
    Computing <[F, T1]>                      ...  Done. Timing        0.002992 s
    Computing <[F, T2]>                      ...  Done. Timing        0.009148 s
    Computing <[V, T1]>                      ...  Done. Timing        0.007791 s
    Computing <[V, T2]> (C_2)^4              ...  Done. Timing        0.053377 s
    Computing <[V, T2]> C_4 (C_2)^2 HH       ...  Done. Timing        0.010913 s
    Computing <[V, T2]> C_4 (C_2)^2 PP       ...  Done. Timing        0.013555 s
    Computing <[V, T2]> C_4 (C_2)^2 PH       ...  Done. Timing        0.054517 s
    Computing <[V, T2]> C_6 C_2              ...  Done. Timing        0.091807 s

  ==> Excitation Amplitudes Summary <==

    Active Indices:    1   12   17   26   36   42 
    Largest T1 amplitudes for spin case A:
       i       a                  i       a                  i       a               
    --------------------------------------------------------------------------------
    [ 12      13    ]-0.011325 [  1       3    ]-0.009715 [ 16      18    ]-0.008108 
    [ 25      28    ]-0.007546 [ 35      38    ] 0.006903 [  1       7    ] 0.006824 
    [ 35      37    ] 0.006760 [  0       1    ]-0.006597 [ 35      36    ]-0.006328 
    [ 12      14    ]-0.006115 [  0       4    ] 0.006017 [ 12      15    ] 0.005988 
    [ 25      27    ] 0.005778 [  1       4    ]-0.005491 [ 36      40    ]-0.004973 
    --------------------------------------------------------------------------------
    Norm of T1A vector: (nonzero elements: 62)                    0.032171876572720.
    --------------------------------------------------------------------------------
    Largest T1 amplitudes for spin case B:
       _       _                  _       _                  _       _               
       i       a                  i       a                  i       a               
    --------------------------------------------------------------------------------
    [ 12      13    ]-0.011325 [  1       3    ]-0.009715 [ 16      18    ]-0.008108 
    [ 25      28    ]-0.007546 [ 35      38    ] 0.006903 [  1       7    ] 0.006824 
    [ 35      37    ] 0.006760 [  0       1    ]-0.006597 [ 35      36    ]-0.006328 
    [ 12      14    ]-0.006115 [  0       4    ] 0.006017 [ 12      15    ] 0.005988 
    [ 25      27    ] 0.005778 [  1       4    ]-0.005491 [ 36      40    ]-0.004973 
    --------------------------------------------------------------------------------
    Norm of T1B vector: (nonzero elements: 62)                    0.032171876572720.
    --------------------------------------------------------------------------------
    Largest T2 amplitudes for spin case AA:
       i   j   a   b              i   j   a   b              i   j   a   b           
    --------------------------------------------------------------------------------
    [  1  42   1  43] 0.031726 [  1  12   1  13] 0.030679 [  1  16   1  18] 0.029176 
    [  1  42   3  42] 0.026615 [  1  35   1  38]-0.026547 [ 16  42  18  42] 0.025519 
    [  1  35   1  36] 0.024894 [ 12  42  12  44] 0.024218 [ 35  42  38  42]-0.023119 
    [ 35  42  36  42] 0.022414 [ 12  25   1  44] 0.021762 [  1  42  12  29] 0.020350 
    [  1  25   1  28] 0.020245 [  1  25   1  27]-0.020166 [  1  16   1  17]-0.020089 
    --------------------------------------------------------------------------------
    Norm of T2AA vector: (nonzero elements: 20380)                0.470641286070239.
    --------------------------------------------------------------------------------
    Largest T2 amplitudes for spin case AB:
           _       _                  _       _                  _       _           
       i   j   a   b              i   j   a   b              i   j   a   b           
    --------------------------------------------------------------------------------
    [  1  42   1  43] 0.035705 [  0   0   1   1]-0.034824 [ 42  42  42  43] 0.032940 
    [ 12  42  13  42] 0.032217 [  1  12   1  13] 0.031933 [  0   0  42  42]-0.031603 
    [  1   1   1   3] 0.030887 [ 12  12  13  13]-0.030368 [ 42  42  43  43]-0.028959 
    [ 12  42  13  43]-0.027894 [ 16  42  18  42] 0.027144 [  1  42   3  42] 0.026513 
    [  1  35   1  38]-0.026242 [ 42  42  12  12]-0.025411 [ 42  42  13  13]-0.024738 
    --------------------------------------------------------------------------------
    Norm of T2AB vector: (nonzero elements: 23428)                0.474410209207464.
    --------------------------------------------------------------------------------
    Largest T2 amplitudes for spin case BB:
       _   _   _   _              _   _   _   _              _   _   _   _           
       i   j   a   b              i   j   a   b              i   j   a   b           
    --------------------------------------------------------------------------------
    [  1  42   1  43] 0.031726 [  1  12   1  13] 0.030679 [  1  16   1  18] 0.029176 
    [  1  42   3  42] 0.026615 [  1  35   1  38]-0.026547 [ 16  42  18  42] 0.025519 
    [  1  35   1  36] 0.024894 [ 12  42  12  44] 0.024218 [ 35  42  38  42]-0.023119 
    [ 35  42  36  42] 0.022414 [ 12  25   1  44] 0.021762 [  1  42  12  29] 0.020350 
    [  1  25   1  28] 0.020245 [  1  25   1  27]-0.020166 [  1  16   1  17]-0.020089 
    --------------------------------------------------------------------------------
    Norm of T2BB vector: (nonzero elements: 20380)                0.470641286070239.
    --------------------------------------------------------------------------------

  ==> Possible Intruders <==

    T1 amplitudes larger than 0.1000 for spin case A: NULL
    T1 amplitudes larger than 0.1000 for spin case B: NULL
    T2 amplitudes larger than 0.1000 for spin case AA: NULL
    T2 amplitudes larger than 0.1000 for spin case AB: NULL
    T2 amplitudes larger than 0.1000 for spin case BB: NULL

  ==> DSRG-MRPT2 Energy Summary <==

    E0 (reference)                 =    -77.686323936645223
    <[F, T1]>                      =     -0.005202272428543
    <[F, T2]>                      =      0.001787228747768
    <[V, T1]>                      =      0.001762570146525
    <[V, T2]> (C_2)^4              =     -0.293450300506167
    <[V, T2]> C_4 (C_2)^2 HH       =     -0.000629664710357
    <[V, T2]> C_4 (C_2)^2 PP       =     -0.008856237428580
    <[V, T2]> C_4 (C_2)^2 PH       =     -0.004286039120632
    <[V, T2]> C_6 C_2              =      0.000029745945271
    <[V, T2]>                      =     -0.307192495820465
    DSRG-MRPT2 correlation energy  =     -0.308844969354714
    DSRG-MRPT2 total energy        =    -77.995168905999932
    max(T1)                        =      0.011325070317570
    max(T2)                        =      0.035705147573390
    ||T1||                         =      0.045497904176134
    ||T2||                         =      1.158993799253807

  Energy took      0.627 s


  ==> Total Timings (s) for Computing Commutators <==

             [H1, T1]    [H1, T2]    [H2, T1]    [H2, T2]
    -----------------------------------------------------
    -> C0       0.003       0.009       0.008       0.224
    -> C1       0.000       0.000       0.000       0.000
    -> C2                   0.000       0.000       0.000
    -----------------------------------------------------


  ==> CISD Oscillator Strength <==

  0  Ag ->  0  Ag:  X:  0.0000  Y:  0.0000  Z:  0.0000  Total:  0.0000
  0  Ag ->  0 B1u:  X:  0.0000  Y:  0.0000  Z:  0.9367  Total:  0.9367

  ==> ACTIVE-DSRG-MRPT2 Summary <==

    2S+1  Sym.  ROOT                CISD          DSRG-MRPT2    % T1
    ----------------------------------------------------------------
       1    Ag     0      -78.0398483892      -78.3100185227    0.00
    ----------------------------------------------------------------
       1   B1u     0      -77.6863239366      -77.9951689060  100.00
    ----------------------------------------------------------------

  ==> Relative Energy WRT Totally Symmetric Ground State (eV) <==

    2S+1  Sym.  ROOT      CISD  DSRG-PT2                           Excitation Type
    ------------------------------------------------------------------------------
       1   B1u     0     9.620     8.567                0B3u -> 0B2g (   8.34) (S)
    ------------------------------------------------------------------------------
    Excitation type: orbitals are zero-based (active only).
    <r^2> (in a.u.) is given in parentheses. "Diffuse" when <r^2> > 1.0e6.
    (S) for singles; (D) for doubles.

  Your calculation took 4.49446600 seconds
	VCISD-DSRG-MRPT2 INTERNAL: SD AUTO................................PASSED

*** Psi4 exiting successfully. Buy a developer a beer!
