
    -----------------------------------------------------------------------
          Psi4: An Open-Source Ab Initio Electronic Structure Package
                               Psi4 undefined 

                         Git: Rev {fcidump_sym} 00c99be dirty


    R. M. Parrish, L. A. Burns, D. G. A. Smith, A. C. Simmonett,
    A. E. DePrince III, E. G. Hohenstein, U. Bozkaya, A. Yu. Sokolov,
    R. Di Remigio, R. M. Richard, J. F. Gonthier, A. M. James,
    H. R. McAlexander, A. Kumar, M. Saitow, X. Wang, B. P. Pritchard,
    P. Verma, H. F. Schaefer III, K. Patkowski, R. A. King, E. F. Valeev,
    F. A. Evangelista, J. M. Turney, T. D. Crawford, and C. D. Sherrill,
    J. Chem. Theory Comput. 13(7) pp 3185--3197 (2017).
    (doi: 10.1021/acs.jctc.7b00174)


                         Additional Contributions by
    P. Kraus, H. Kruse, M. H. Lechner, M. C. Schieber, R. A. Shaw,
    A. Alenaizan, R. Galvelis, Z. L. Glick, S. Lehtola, and J. P. Misiewicz

    -----------------------------------------------------------------------


    Psi4 started on: Tuesday, 07 July 2020 07:37PM

    Process ID: 74343
    Host:       CHE-FEVANGE-01I (2)
    PSIDATADIR: /Users/fevange/Source/psi4/objdir-Debug/stage/share/psi4
    Memory:     500.0 MiB
    Threads:    1
    
  ==> Input File <==

--------------------------------------------------------------------------
#! Generated using commit GITCOMMIT

import forte

refrohf   = -15.611546532146010
refudsrg  = -15.545626672782701
refprdsrg = -15.545638769660899

#        1      -15.545622051580 -1.555e+01      -15.545634134941 -1.555e+01


molecule {
  0 3
  Be 0.00000000    0.00000000   0.000000000
  H  0.00000000    1.2750       2.7500
  H  0.00000000   -1.2750       2.7500
  units bohr
  no_reorient
}

basis {
cartesian
****
Be 0
S 6 1.00
 1267.07000 0.001940
  190.35600 0.014786
   43.29590 0.071795
   12.14420 0.236348
    3.80923 0.471763
    1.26847 0.355183
S 3 1.00
    5.69388 -0.028876
    1.55563 -0.177565
    0.171855 1.071630
S 1 1.0
    0.057181 1.000000
P 1 1.0
    5.69388  1.000000
P 2 1.0
    1.55563  0.144045
    0.171855 0.949692
****
H 0
S 3 1.00
   19.24060  0.032828
    2.899200 0.231208
    0.653400 0.817238
S 1 1.0
    0.177600  1.00000
****
}

set {
  docc               [2,0,0,0]
  socc               [1,0,0,1]
  reference          rohf
  scf_type           pk
  maxiter            300
  e_convergence      8
  d_convergence      10
}

set forte {
  active_space_solver    fci
  correlation_solver     mrdsrg
  int_type               cholesky
  cholesky_tolerance     1e-4
  corr_level             ldsrg2
  frozen_docc            [1,0,0,0]
  restricted_docc        [1,0,0,0]
  active                 [1,0,0,1]
  multiplicity           1
  root_sym               0
  nroot                  1
  root                   0
  dsrg_s                 1.0
  maxiter                100
  e_convergence          8
  dsrg_hbar_seq          true
  dsrg_nivo              true
  relax_ref              once
}

Escf, wfn = energy('scf', return_wfn=True)
compare_values(refrohf,variable("CURRENT ENERGY"),10,"ROHF energy")

energy('forte', ref_wfn=wfn)
compare_values(refudsrg,variable("UNRELAXED ENERGY"),8, "MRDSRG unrelaxed energy")
compare_values(refprdsrg,variable("PARTIALLY RELAXED ENERGY"),8, "MRDSRG partially relaxed energy")
--------------------------------------------------------------------------

Scratch directory: /tmp/

*** tstart() called on CHE-FEVANGE-01I (2)
*** at Tue Jul  7 19:37:34 2020

   => Loading Basis Set <=

    Name: ANONYMOUSA95DAD2E
    Role: ORBITAL
    Keyword: BASIS
    atoms 1   entry BE         line     5 inputblock anonymousa95dad2e 
    atoms 2-3 entry H          line    25 inputblock anonymousa95dad2e 


         ---------------------------------------------------------
                                   SCF
               by Justin Turney, Rob Parrish, Andy Simmonett
                          and Daniel G. A. Smith
                             ROHF Reference
                        1 Threads,    500 MiB Core
         ---------------------------------------------------------

  ==> Geometry <==

    Molecular point group: c2v
    Full point group: C2v

    Geometry (in Bohr), charge = 0, multiplicity = 3:

       Center              X                  Y                   Z               Mass       
    ------------   -----------------  -----------------  -----------------  -----------------
         BE           0.000000000000     0.000000000000    -0.502640692164     9.012183065000
         H           -0.000000000000     1.275000000000     2.247359307836     1.007825032230
         H            0.000000000000    -1.275000000000     2.247359307836     1.007825032230

  Running in c2v symmetry.

  Rotational constants: A =     18.37210  B =      4.83252  C =      3.82612 [cm^-1]
  Rotational constants: A = 550781.60528  B = 144875.38071  C = 114704.08026 [MHz]
  Nuclear repulsion =    3.031382610983898

  Charge       = 0
  Multiplicity = 3
  Electrons    = 6
  Nalpha       = 4
  Nbeta        = 2

  ==> Algorithm <==

  SCF Algorithm Type is PK.
  DIIS enabled.
  MOM disabled.
  Fractional occupation disabled.
  Guess Type is SAD.
  Energy threshold   = 1.00e-08
  Density threshold  = 1.00e-10
  Integral threshold = 0.00e+00

  ==> Primary Basis <==

  Basis Set: ANONYMOUSA95DAD2E
    Blend: ANONYMOUSA95DAD2E
    Number of shells: 9
    Number of basis function: 13
    Number of Cartesian functions: 13
    Spherical Harmonics?: false
    Max angular momentum: 1

  ==> Integral Setup <==

  Using in-core PK algorithm.
   Calculation information:
      Number of atoms:                   3
      Number of AO shells:               9
      Number of primitives:             21
      Number of atomic orbitals:        13
      Number of basis functions:        13

      Integral cutoff                 1.00e-12
      Number of threads:                 1

  Performing in-core PK
  Using 8372 doubles for integral storage.
  We computed 1035 shell quartets total.
  Whereas there are 1035 unique shell quartets.

  ==> DiskJK: Disk-Based J/K Matrices <==

    J tasked:                  Yes
    K tasked:                  Yes
    wK tasked:                  No
    Memory [MiB]:              375
    Schwarz Cutoff:          1E-12

    OpenMP threads:              1

  Minimum eigenvalue in the overlap matrix is 1.1003853897E-01.
  Reciprocal condition number of the overlap matrix is 3.9029480024E-02.
    Using symmetric orthogonalization.

  ==> Pre-Iterations <==

  SCF Guess: Superposition of Atomic Densities via on-the-fly atomic UHF (no occupation information).

   -------------------------
    Irrep   Nso     Nmo    
   -------------------------
     A1         7       7 
     A2         0       0 
     B1         2       2 
     B2         4       4 
   -------------------------
    Total      13      13
   -------------------------

  ==> Iterations <==

                        Total Energy        Delta E     RMS |[F,P]|

   @ROHF iter SAD:   -15.06028478590316   -1.50603e+01   0.00000e+00 
   @ROHF iter   1:   -15.59520591963554   -5.34921e-01   9.84985e-03 DIIS
   @ROHF iter   2:   -15.61082888151819   -1.56230e-02   1.87848e-03 DIIS
   @ROHF iter   3:   -15.61146844802308   -6.39567e-04   5.25043e-04 DIIS
   @ROHF iter   4:   -15.61153840102467   -6.99530e-05   1.64240e-04 DIIS
   @ROHF iter   5:   -15.61154611961296   -7.71859e-06   3.94313e-05 DIIS
   @ROHF iter   6:   -15.61154652335217   -4.03739e-07   5.86541e-06 DIIS
   @ROHF iter   7:   -15.61154653205681   -8.70464e-09   6.56789e-07 DIIS
   @ROHF iter   8:   -15.61154653214473   -8.79190e-11   8.18041e-08 DIIS
   @ROHF iter   9:   -15.61154653214600   -1.27542e-12   6.66485e-09 DIIS
   @ROHF iter  10:   -15.61154653214601   -3.55271e-15   6.28751e-10 DIIS
   @ROHF iter  11:   -15.61154653214602   -1.06581e-14   5.01225e-11 DIIS
  Energy and wave function converged.


  ==> Post-Iterations <==

    Orbital Energies [Eh]
    ---------------------

    Doubly Occupied:                                                      

       1A1    -4.739412     2A1    -0.555329  

    Singly Occupied:                                                      

       1B2    -0.124111     3A1    -0.109925  

    Virtual:                                                              

       1B1     0.145758     2B2     0.257460     4A1     0.272612  
       5A1     0.325586     3B2     1.130941     6A1     1.208293  
       2B1     8.963573     4B2     9.001730     7A1     9.081773  

    Final Occupation by Irrep:
             A1    A2    B1    B2 
    DOCC [     2,    0,    0,    0 ]
    SOCC [     1,    0,    0,    1 ]

  @ROHF Final Energy:   -15.61154653214602

   => Energetics <=

    Nuclear Repulsion Energy =              3.0313826109838984
    One-Electron Energy =                 -26.0505763815632001
    Two-Electron Energy =                   7.4076472384332845
    Total Energy =                        -15.6115465321460185

Computation Completed


Properties will be evaluated at   0.000000,   0.000000,   0.000000 [a0]

Properties computed using the SCF density matrix

  Nuclear Dipole Moment: [e a0]
     X:     0.0000      Y:     0.0000      Z:     2.4842

  Electronic Dipole Moment: [e a0]
     X:     0.0000      Y:     0.0000      Z:    -2.5844

  Dipole Moment: [e a0]
     X:     0.0000      Y:     0.0000      Z:    -0.1002     Total:     0.1002

  Dipole Moment: [D]
     X:     0.0000      Y:     0.0000      Z:    -0.2548     Total:     0.2548


*** tstop() called on CHE-FEVANGE-01I (2) at Tue Jul  7 19:37:34 2020
Module time:
	user time   =       0.56 seconds =       0.01 minutes
	system time =       0.02 seconds =       0.00 minutes
	total time  =          0 seconds =       0.00 minutes
Total time:
	user time   =       0.56 seconds =       0.01 minutes
	system time =       0.02 seconds =       0.00 minutes
	total time  =          0 seconds =       0.00 minutes
    ROHF energy.......................................................PASSED

Scratch directory: /tmp/

  Forte
  ----------------------------------------------------------------------------
  A suite of quantum chemistry methods for strongly correlated electrons

    git branch: fcidump - git commit: fdbbae70

  Developed by:
    Francesco A. Evangelista, Chenyang Li, Kevin P. Hannon,
    Jeffrey B. Schriber, Tianyuan Zhang, Chenxi Cai,
    Nan He, Nicholas Stair, Shuhe Wang, Renke Huang
  ----------------------------------------------------------------------------

  Size of Determinant class: 256 bits
  Preparing forte objects from a psi4 Wavefunction object   => Loading Basis Set <=

    Name: STO-3G
    Role: ORBITAL
    Keyword: MINAO_BASIS
    atoms 1   entry BE         line    41 file /Users/fevange/Source/psi4/objdir-Debug/stage/share/psi4/basis/sto-3g.gbs 
    atoms 2-3 entry H          line    19 file /Users/fevange/Source/psi4/objdir-Debug/stage/share/psi4/basis/sto-3g.gbs 


  Read options for space FROZEN_DOCC
  Read options for space RESTRICTED_DOCC
  Read options for space ACTIVE

  ==> MO Space Information <==

  -------------------------------------------------
                       A1    A2    B1    B2   Sum
  -------------------------------------------------
    FROZEN_DOCC         1     0     0     0     1
    RESTRICTED_DOCC     1     0     0     0     1
    ACTIVE              1     0     0     1     2
    RESTRICTED_UOCC     4     0     2     3     9
    FROZEN_UOCC         0     0     0     0     0
    Total               7     0     2     4    13
  -------------------------------------------------
  Forte will use psi4 integrals

  ==> Integral Transformation <==

  Number of molecular orbitals:                    13
  Number of correlated molecular orbitals:         12
  Number of frozen occupied orbitals:               1
  Number of frozen unoccupied orbitals:             0
  Two-electron integral type:              Cholesky decomposition


  Computing the Cholesky Vectors 

  Computing CD Integrals
  Timing for cholesky transformation:                         0.040 s.
  Need 74.36 KB to store CD integrals in core

  Number of Cholesky vectors required for 1.000e-04 tolerance: 55

  Building frozen-core operator using Cholesky integrals

  Frozen-core energy            -14.929378863559 a.u.
  Timing for frozen one-body operator:                        0.066 s.
  Resorting integrals after freezing core.
  Timing for freezing core and virtual orbitals:              0.066 s.
  Timing for computing Cholesky integrals:                    0.111 s.

  ==> Summary of Active Space Solver Input <==

    Irrep.  Multi.(2ms)      N
    --------------------------
       A1      1  (  0)      1
    --------------------------
    N: number of roots
    ms: spin z component
    Total number of roots:   1
    --------------------------


  ==> String Lists <==

  Number of alpha electrons     = 1
  Number of beta electrons      = 1
  Number of alpha strings       = 2
  Number of beta strings        = 2
  Timing for strings        =      0.000 s
  Timing for NN strings     =      0.000 s
  Timing for VO strings     =      0.000 s
  Timing for OO strings     =      0.000 s
  Timing for VVOO strings   =      0.000 s
  Timing for VOVO strings   =      0.000 s
  Timing for 1-hole strings =      0.000 s
  Timing for 2-hole strings =      0.000 s
  Timing for 3-hole strings =      0.000 s
  Total timing              =      0.000 s

  ==> FCI Solver <==

    Number of determinants                           2
    Symmetry                                         0
    Multiplicity                                     1
    Number of roots                                  1
    Target root                                      0
    Trial vectors per root                          10

  Allocating memory for the Hamiltonian algorithm. Size: 2 x 1 x 1.   Memory: 0.000000 GB

  ==> FCI Initial Guess <==

  ---------------------------------------------
    Root            Energy     <S^2>   Spin
  ---------------------------------------------
      0      -15.483406416384  0.000  singlet
      1      -15.440214743852  0.000  singlet
  ---------------------------------------------
  Timing for initial guess  =      0.000 s


  ==> Diagonalizing Hamiltonian <==

  Energy   convergence: 1.00e-08
  Residual convergence: 1.00e-06
  -----------------------------------------------------
    Iter.      Avg. Energy       Delta_E     Res. Norm
  -----------------------------------------------------
      1      -15.483406416384  -1.548e+01  +1.776e-15
      2      -15.483406416384  +0.000e+00  +1.776e-15
  -----------------------------------------------------
  The Davidson-Liu algorithm converged in 3 iterations.

  ==> Root No. 0 <==

    0 2     -0.91016103
    2 0      0.41425464

    Total Energy:       -15.483406416384174

  ==> Energy Summary <==

    Multi.(2ms)  Irrep.  No.               Energy
    ---------------------------------------------
       1  (  0)    A1     0      -15.483406416384
    ---------------------------------------------

  ==> Computing RDMs for Root No. 0 <==

    Timing for 1-RDM: 0.000 s
    Timing for 2-RDM: 0.000 s
    Timing for 3-RDM: 0.000 s

  ==> NATURAL ORBITALS <==

        1B2     1.656786      1A1     0.343214  


       -----------------------------------------------------------------
                            Semi-Canonical Orbitals
         Chenyang Li, Jeffrey B. Schriber and Francesco A. Evangelista
       -----------------------------------------------------------------

  Took 0.001326 s to build Fock matrix

  ==> Checking Fock Matrix Diagonal Blocks <==

    Off-Diag. Elements       Max           2-Norm
    ------------------------------------------------
    Fa actv              0.0000000000   0.0000000000
    Fb actv              0.0000000000   0.0000000000
    ------------------------------------------------
    Fa core              0.0000000000   0.0000000000
    Fb core              0.0000000000   0.0000000000
    ------------------------------------------------
    Fa virt              0.0179817598   0.0459265748
    Fb virt              0.0179817598   0.0459265748
    ------------------------------------------------
  Integrals are about to be computed.
  Computing the Cholesky Vectors 

  Computing CD Integrals
  Timing for cholesky transformation:                         0.042 s.
  Need 74.36 KB to store CD integrals in core

  Number of Cholesky vectors required for 1.000e-04 tolerance: 55

  Integrals are about to be updated.
  Building frozen-core operator using Cholesky integrals

  Frozen-core energy            -14.929378863559 a.u.
  Timing for frozen one-body operator:                        0.061 s.
  Resorting integrals after freezing core.
  Timing for freezing core and virtual orbitals:              0.061 s.

  ==> RDMs Transformation to Semicanonical Basis <==

    Transformed 1 RDMs.
    Transformed 2 RDMs.
    Transformed 3 RDMs.
  Timing for semi-canonicalization:                           0.593 s.

  ==> Multireference Driven Similarity Renormalization Group <==

    Reading DSRG options ............................ Done
    Setting ambit MO space .......................... Done
    Preparing tensors for density cumulants ......... Done
    Building Fock matrix ............................ Done

           ----------------------------------------------------------
             Multireference Driven Similarity Renormalization Group
                   written by Chenyang Li and Tianyuan Zhang
           ----------------------------------------------------------


  ==> Density Cumulant Summary <==

    2-body             AA           AB           BB
    -----------------------------------------------
    max          0.142158     0.377038     0.142158
    norm         0.284316     0.604278     0.284316
    -----------------------------------------------
    3-body            AAA          AAB          ABB          BBB
    ------------------------------------------------------------
    max          0.000000     0.093367     0.093367     0.000000
    norm         0.000000     0.264083     0.264083     0.000000
    ------------------------------------------------------------

  ==> Checking Semicanonical Orbitals <==

    Abs. max of Fock core, active, virtual blocks (Fij, i != j)
                  core          active         virtual
    --------------------------------------------------
    Fα    0.0000000000    0.0000027020    0.0000348573
    Fβ    0.0000000000    0.0000027020    0.0000348573
    --------------------------------------------------

    1-Norm of Fock core, active, virtual blocks (Fij, i != j)
                  core          active         virtual
    --------------------------------------------------
    Fα    0.0000000000    0.0000054041    0.0002098374
    Fβ    0.0000000000    0.0000054041    0.0002098374
    --------------------------------------------------

    Orbitals are semi-canonicalized.

  ==> Calculation Information <==

    Number of T amplitudes                                15
    DIIS start                                             2
    Min DIIS vectors                                       2
    Max DIIS vectors                                       6
    DIIS extrapolating freq                                1
    Flow parameter                                 1.000e+00
    Taylor expansion threshold                     1.000e-03
    Intruder amplitudes threshold                  1.000e-01
    Correlation level                                 LDSRG2
    Integral type                                   CHOLESKY
    Source operator                                 STANDARD
    Adaptive DSRG flow type                           DSRG_S
    Reference relaxation                                ONCE
    DSRG transformation type                         UNITARY
    Core-Virtual source type                          NORMAL
    Sequential DSRG transformation                      TRUE
    Omit blocks of >= 3 virtual indices                 TRUE


  ==> Build Initial Amplitude from DSRG-MRPT2 <==

    Computing T2 amplitudes ...          Done. Timing      0.014 s
    Computing T1 amplitudes ...          Done. Timing      0.003 s

  ==> First-Order Excitation Amplitudes Summary <==

    Active Indices:    1    8 
    Largest T1 amplitudes for spin case A:
       i       a                  i       a                  i       a               
    --------------------------------------------------------------------------------
    [  8      10    ]-0.030715 [  8       9    ]-0.020913 [  0       3    ]-0.015844 
    [  1       4    ]-0.015314 [  0       4    ] 0.012582 [  0       1    ] 0.011844 
    [  1       2    ]-0.010015 [  1       3    ] 0.006369 [  0       2    ]-0.002533 
    [  1       5    ]-0.000644 [  8      11    ] 0.000513 [  0       5    ]-0.000441 
    [  8       3    ]-0.000009 [  1      10    ] 0.000004 [  8       4    ]-0.000002 
    --------------------------------------------------------------------------------
    Norm of T1A vector: (nonzero elements: 23)                    0.048094107945298.
    --------------------------------------------------------------------------------
    Largest T1 amplitudes for spin case B:
       _       _                  _       _                  _       _               
       i       a                  i       a                  i       a               
    --------------------------------------------------------------------------------
    [  8      10    ]-0.030715 [  8       9    ]-0.020913 [  0       3    ]-0.015844 
    [  1       4    ]-0.015314 [  0       4    ] 0.012582 [  0       1    ] 0.011844 
    [  1       2    ]-0.010015 [  1       3    ] 0.006369 [  0       2    ]-0.002533 
    [  1       5    ]-0.000644 [  8      11    ] 0.000513 [  0       5    ]-0.000441 
    [  8       3    ]-0.000009 [  1      10    ] 0.000004 [  8       4    ]-0.000002 
    --------------------------------------------------------------------------------
    Norm of T1B vector: (nonzero elements: 23)                    0.048094107945298.
    --------------------------------------------------------------------------------
    Largest T2 amplitudes for spin case AA:
       i   j   a   b              i   j   a   b              i   j   a   b           
    --------------------------------------------------------------------------------
    [  0   1   1   3]-0.031123 [  1   8   1   9] 0.015439 [  0   8   3   9]-0.014312 
    [  1   8   3   9] 0.012538 [  0   1   8   9] 0.012234 [  0   8   2   8]-0.012230 
    [  1   8   4   8]-0.012204 [  1   8   2   9] 0.011231 [  0   8   3   8] 0.009942 
    [  0   1   2   3]-0.009786 [  0   8   1   9] 0.008910 [  0   8   4   8] 0.008832 
    [  1   8   2   8]-0.008289 [  1   8   3   8] 0.008093 [  0   8   1   8] 0.007581 
    --------------------------------------------------------------------------------
    Norm of T2AA vector: (nonzero elements: 432)                  0.106891352751978.
    --------------------------------------------------------------------------------
    Largest T2 amplitudes for spin case AB:
           _       _                  _       _                  _       _           
       i   j   a   b              i   j   a   b              i   j   a   b           
    --------------------------------------------------------------------------------
    [  0   0   8   8]-0.060732 [  8   8   8  10]-0.042448 [  8   8   9   9]-0.041150 
    [  0   8   4   8] 0.033136 [  0   0   3   3]-0.032661 [  1   1   9   9]-0.029473 
    [  0   8   3   9]-0.029301 [  0   0   8  10]-0.026106 [  8   8  10  10]-0.025647 
    [  1   1   1   2]-0.025101 [  0   0   8   9]-0.023634 [  1   8   1   9] 0.023380 
    [  1   1   2   2]-0.022528 [  1   1   6   6]-0.021019 [  0   1   8   9] 0.020932 
    --------------------------------------------------------------------------------
    Norm of T2AB vector: (nonzero elements: 733)                  0.199958878538297.
    --------------------------------------------------------------------------------
    Largest T2 amplitudes for spin case BB:
       _   _   _   _              _   _   _   _              _   _   _   _           
       i   j   a   b              i   j   a   b              i   j   a   b           
    --------------------------------------------------------------------------------
    [  0   1   1   3]-0.031123 [  1   8   1   9] 0.015439 [  0   8   3   9]-0.014312 
    [  1   8   3   9] 0.012538 [  0   1   8   9] 0.012234 [  0   8   2   8]-0.012230 
    [  1   8   4   8]-0.012204 [  1   8   2   9] 0.011231 [  0   8   3   8] 0.009942 
    [  0   1   2   3]-0.009786 [  0   8   1   9] 0.008910 [  0   8   4   8] 0.008832 
    [  1   8   2   8]-0.008289 [  1   8   3   8] 0.008093 [  0   8   1   8] 0.007581 
    --------------------------------------------------------------------------------
    Norm of T2BB vector: (nonzero elements: 432)                  0.106891352751978.
    --------------------------------------------------------------------------------

  ==> Possible Intruders <==

    T1 amplitudes larger than 0.1000 for spin case A: NULL
    T1 amplitudes larger than 0.1000 for spin case B: NULL
    T2 amplitudes larger than 0.1000 for spin case AA: NULL
    T2 amplitudes larger than 0.1000 for spin case AB: NULL
    T2 amplitudes larger than 0.1000 for spin case BB: NULL

  ==> Computing MR-LDSRG(2) Energy <==

    Reference:
      J. Chem. Phys. 2016, 144, 164114.

                  Energy (a.u.)           Non-Diagonal Norm        Amplitude RMS         Timings (s)
           ---------------------------  ---------------------  ---------------------  -----------------
    Iter.        Corr.         Delta       Hbar1      Hbar2        T1         T2        Hbar     Amp.    DIIS
    ---------------------------------------------------------------------------------------------------------
       1    -0.058034521157 -5.803e-02   1.273e-01  3.999e-01   8.731e-03  3.668e-02    11.905    0.010
       2    -0.061183522632 -3.149e-03   1.288e-01  3.878e-01   2.890e-03  9.555e-03    10.461    0.012  S
       3    -0.061935011014 -7.515e-04   1.290e-01  3.858e-01   1.017e-03  3.089e-03    10.850    0.020  S/E
       4    -0.062202737250 -2.677e-04   1.293e-01  3.854e-01   9.298e-05  4.348e-04    18.707    0.011  S/E
       5    -0.062215196760 -1.246e-05   1.293e-01  3.854e-01   1.870e-05  9.127e-05    21.940    0.013  S/E
       6    -0.062215809116 -6.124e-07   1.293e-01  3.854e-01   4.076e-06  1.901e-05    11.588    0.011  S/E
       7    -0.062215714261  9.486e-08   1.293e-01  3.854e-01   4.402e-07  3.512e-06    10.310    0.010  S/E
       8    -0.062215659420  5.484e-08   1.293e-01  3.854e-01   9.398e-08  7.075e-07    10.409    0.011  S/E
       9    -0.062215636087  2.333e-08   1.293e-01  3.854e-01   2.497e-08  1.045e-07    10.051    0.008  S/E
      10    -0.062215635196  8.917e-10   1.293e-01  3.854e-01   7.782e-09  1.904e-08    11.058    0.009  S/E
    ---------------------------------------------------------------------------------------------------------

  ==> MR-LDSRG(2) Energy Summary <==

    E0 (reference)                 =     -15.483406416384174
    MR-LDSRG(2) correlation energy =      -0.062215635195640
    MR-LDSRG(2) total energy       =     -15.545622051579814

  ==> Final Excitation Amplitudes Summary <==

    Active Indices:    1    8 
    Largest T1 amplitudes for spin case A:
       i       a                  i       a                  i       a               
    --------------------------------------------------------------------------------
    [  8      10    ]-0.025613 [  8       9    ]-0.020691 [  0       3    ]-0.014962 
    [  1       4    ]-0.013013 [  0       1    ] 0.012268 [  1       2    ]-0.010530 
    [  0       4    ] 0.005781 [  1       3    ] 0.005390 [  0       2    ]-0.001327 
    [  8      11    ] 0.000648 [  0       5    ]-0.000619 [  1       5    ]-0.000532 
    [  8       3    ]-0.000012 [  8       4    ]-0.000005 [  1      10    ] 0.000005 
    --------------------------------------------------------------------------------
    Norm of T1A vector: (nonzero elements: 23)                    0.042474316331488.
    --------------------------------------------------------------------------------
    Largest T1 amplitudes for spin case B:
       _       _                  _       _                  _       _               
       i       a                  i       a                  i       a               
    --------------------------------------------------------------------------------
    [  8      10    ]-0.025613 [  8       9    ]-0.020691 [  0       3    ]-0.014962 
    [  1       4    ]-0.013013 [  0       1    ] 0.012268 [  1       2    ]-0.010530 
    [  0       4    ] 0.005781 [  1       3    ] 0.005390 [  0       2    ]-0.001327 
    [  8      11    ] 0.000648 [  0       5    ]-0.000619 [  1       5    ]-0.000532 
    [  8       3    ]-0.000012 [  8       4    ]-0.000005 [  1      10    ] 0.000005 
    --------------------------------------------------------------------------------
    Norm of T1B vector: (nonzero elements: 23)                    0.042474316331488.
    --------------------------------------------------------------------------------
    Largest T2 amplitudes for spin case AA:
       i   j   a   b              i   j   a   b              i   j   a   b           
    --------------------------------------------------------------------------------
    [  0   1   1   3]-0.030414 [  0   8   3   9]-0.015843 [  0   1   8   9] 0.013595 
    [  1   8   3   9] 0.013215 [  0   8   3   8] 0.013149 [  1   8   1   9] 0.012823 
    [  0   8   2   8]-0.012798 [  1   8   4   8]-0.012698 [  1   8   1  10]-0.010760 
    [  1   8   2   9] 0.010417 [  0   8   4   8] 0.010181 [  0   1   2   3]-0.008987 
    [  0   8   1   9] 0.008967 [  1   8   2   8]-0.008501 [  1   8   3   8] 0.007379 
    --------------------------------------------------------------------------------
    Norm of T2AA vector: (nonzero elements: 440)                  0.110064319547746.
    --------------------------------------------------------------------------------
    Largest T2 amplitudes for spin case AB:
           _       _                  _       _                  _       _           
       i   j   a   b              i   j   a   b              i   j   a   b           
    --------------------------------------------------------------------------------
    [  0   0   8   8]-0.058314 [  8   8   9   9]-0.050167 [  0   0   3   3]-0.046914 
    [  8   8   8  10]-0.042859 [  0   8   3   9]-0.039640 [  0   8   4   8] 0.038326 
    [  0   0   8  10]-0.034292 [  1   1   9   9]-0.029286 [  0   0   8   9]-0.029128 
    [  8   8  10  10]-0.026189 [  0   0   9   9]-0.024778 [  0   1   8   9] 0.024082 
    [  0   0  10  10]-0.023936 [  1   1   1   2]-0.023604 [  1   8   4   8]-0.023021 
    --------------------------------------------------------------------------------
    Norm of T2AB vector: (nonzero elements: 749)                  0.230008513356132.
    --------------------------------------------------------------------------------
    Largest T2 amplitudes for spin case BB:
       _   _   _   _              _   _   _   _              _   _   _   _           
       i   j   a   b              i   j   a   b              i   j   a   b           
    --------------------------------------------------------------------------------
    [  0   1   1   3]-0.030414 [  0   8   3   9]-0.015843 [  0   1   8   9] 0.013595 
    [  1   8   3   9] 0.013215 [  0   8   3   8] 0.013149 [  1   8   1   9] 0.012823 
    [  0   8   2   8]-0.012798 [  1   8   4   8]-0.012698 [  1   8   1  10]-0.010760 
    [  1   8   2   9] 0.010417 [  0   8   4   8] 0.010181 [  0   1   2   3]-0.008987 
    [  0   8   1   9] 0.008967 [  1   8   2   8]-0.008501 [  1   8   3   8] 0.007379 
    --------------------------------------------------------------------------------
    Norm of T2BB vector: (nonzero elements: 440)                  0.110064319547746.
    --------------------------------------------------------------------------------

  ==> Possible Intruders <==

    T1 amplitudes larger than 0.1000 for spin case A: NULL
    T1 amplitudes larger than 0.1000 for spin case B: NULL
    T2 amplitudes larger than 0.1000 for spin case AA: NULL
    T2 amplitudes larger than 0.1000 for spin case AB: NULL
    T2 amplitudes larger than 0.1000 for spin case BB: NULL

  ==> De-Normal-Order DSRG Transformed Hamiltonian <==

    Computing the scalar term                ... Done. Timing    0.004 s
    Computing the 1-body term                ... Done. Timing    0.004 s

  ==> Rotate DSRG Transformed Hamiltonian back to Original Basis <==

    Rotating 1-body term to original basis   ... Done. Timing    0.000 s
    Rotating 2-body term to original basis   ... Done. Timing    0.007 s

  ==> Summary of Active Space Solver Input <==

    Irrep.  Multi.(2ms)      N
    --------------------------
       A1      1  (  0)      1
    --------------------------
    N: number of roots
    ms: spin z component
    Total number of roots:   1
    --------------------------


  ==> String Lists <==

  Number of alpha electrons     = 1
  Number of beta electrons      = 1
  Number of alpha strings       = 2
  Number of beta strings        = 2
  Timing for strings        =      0.000 s
  Timing for NN strings     =      0.000 s
  Timing for VO strings     =      0.000 s
  Timing for OO strings     =      0.000 s
  Timing for VVOO strings   =      0.000 s
  Timing for VOVO strings   =      0.000 s
  Timing for 1-hole strings =      0.000 s
  Timing for 2-hole strings =      0.000 s
  Timing for 3-hole strings =      0.000 s
  Total timing              =      0.000 s

  ==> FCI Solver <==

    Number of determinants                           2
    Symmetry                                         0
    Multiplicity                                     1
    Number of roots                                  1
    Target root                                      0
    Trial vectors per root                          10

  Allocating memory for the Hamiltonian algorithm. Size: 2 x 1 x 1.   Memory: 0.000000 GB

  ==> FCI Initial Guess <==

  ---------------------------------------------
    Root            Energy     <S^2>   Spin
  ---------------------------------------------
      0      -15.545634134941  0.000  singlet
      1      -15.498934814550  0.000  singlet
  ---------------------------------------------
  Timing for initial guess  =      0.000 s


  ==> Diagonalizing Hamiltonian <==

  Energy   convergence: 1.00e-08
  Residual convergence: 1.00e-06
  -----------------------------------------------------
    Iter.      Avg. Energy       Delta_E     Res. Norm
  -----------------------------------------------------
      1      -15.545634134941  -1.555e+01  +0.000e+00
      2      -15.545634134941  +0.000e+00  +0.000e+00
  -----------------------------------------------------
  The Davidson-Liu algorithm converged in 3 iterations.

  ==> Root No. 0 <==

    0 2     -0.90337971
    2 0      0.42884157

    Total Energy:       -15.545634134940585

  ==> Energy Summary <==

    Multi.(2ms)  Irrep.  No.               Energy
    ---------------------------------------------
       1  (  0)    A1     0      -15.545634134941
    ---------------------------------------------

  => MRDSRG Reference Relaxation Energy Summary <=

                         Fixed Ref. (a.u.)              Relaxed Ref. (a.u.)
           -------------------------------  -------------------------------
    Iter.          Total Energy      Delta          Total Energy      Delta
    -----------------------------------------------------------------------
        1      -15.545622051580 -1.555e+01      -15.545634134941 -1.555e+01
    -----------------------------------------------------------------------

  ==> Total Timings (s) for Computing Commutators <==

             [H1, T1]    [H1, T2]    [H2, T1]    [H2, T2]
    -----------------------------------------------------
    -> C0       0.000       0.324       0.000      14.947
    -> C1       0.000       1.685       0.000      40.606
    -> C2                   6.270       0.000      61.296
    -----------------------------------------------------


  Time to prepare integrals:        0.113 seconds
  Time to run job          :      128.071 seconds
  Total                    :      128.071 seconds    MRDSRG unrelaxed energy...........................................FAILED
Traceback (most recent call last):
  File "/Users/fevange/Source/psi4/objdir-Debug/stage/bin/psi4", line 331, in <module>
    exec(content)
  File "<string>", line 98, in <module>
  File "/Users/fevange/Source/psi4/objdir-Debug/stage/lib/psi4/driver/qcdb/testing.py", line 104, in _mergedapis_compare_values
    return qcel.testing.compare_values(expected, computed, **kwargs)
  File "/Users/fevange/Source/psi4/objdir-Debug/stage/lib/qcelemental/testing.py", line 166, in compare_values
    return return_handler(allclose, label, message, return_message, quiet)
  File "/Users/fevange/Source/psi4/objdir-Debug/stage/lib/psi4/driver/p4util/testing.py", line 188, in _psi4_true_raise_handler
    raise TestComparisonError(message)

psi4.driver.p4util.exceptions.TestComparisonError: 	MRDSRG unrelaxed energy: computed value (-15.5456220516) does not match (-15.5456266728) to atol=1e-08 by difference (0.0000046212).


Printing out the relevant lines from the Psithon --> Python processed input file:
    core.set_local_option("FORTE", "DSRG_NIVO", "true")
    core.set_local_option("FORTE", "RELAX_REF", "once")
    Escf, wfn = energy('scf', return_wfn=True)
    compare_values(refrohf,variable("CURRENT ENERGY"),10,"ROHF energy")
    energy('forte', ref_wfn=wfn)
--> compare_values(refudsrg,variable("UNRELAXED ENERGY"),8, "MRDSRG unrelaxed energy")
    compare_values(refprdsrg,variable("PARTIALLY RELAXED ENERGY"),8, "MRDSRG partially relaxed energy")

!----------------------------------------------------------------------------------!
!                                                                                  !
!         MRDSRG unrelaxed energy: computed value (-15.5456220516) does not match  !
! (-15.5456266728) to atol=1e-08 by difference (0.0000046212).                     !
!                                                                                  !
!----------------------------------------------------------------------------------!

    Psi4 stopped on: Tuesday, 07 July 2020 07:39PM
    Psi4 wall time for execution: 0:02:09.03

*** Psi4 encountered an error. Buy a developer more coffee!
*** Resources and help at github.com/psi4/psi4.
