
    -----------------------------------------------------------------------
          Psi4: An Open-Source Ab Initio Electronic Structure Package
                               Psi4 1.4a2.dev1024 

                         Git: Rev {master} b603cfc dirty


    D. G. A. Smith, L. A. Burns, A. C. Simmonett, R. M. Parrish,
    M. C. Schieber, R. Galvelis, P. Kraus, H. Kruse, R. Di Remigio,
    A. Alenaizan, A. M. James, S. Lehtola, J. P. Misiewicz, M. Scheurer,
    R. A. Shaw, J. B. Schriber, Y. Xie, Z. L. Glick, D. A. Sirianni,
    J. S. O'Brien, J. M. Waldrop, A. Kumar, E. G. Hohenstein,
    B. P. Pritchard, B. R. Brooks, H. F. Schaefer III, A. Yu. Sokolov,
    K. Patkowski, A. E. DePrince III, U. Bozkaya, R. A. King,
    F. A. Evangelista, J. M. Turney, T. D. Crawford, C. D. Sherrill,
    J. Chem. Phys. 152(18) 184108 (2020). https://doi.org/10.1063/5.0006002

                            Additional Code Authors
    E. T. Seidl, C. L. Janssen, E. F. Valeev, M. L. Leininger,
    J. F. Gonthier, R. M. Richard, H. R. McAlexander, M. Saitow, X. Wang,
    P. Verma, and M. H. Lechner

             Previous Authors, Complete List of Code Contributors,
                       and Citations for Specific Modules
    https://github.com/psi4/psi4/blob/master/codemeta.json
    https://github.com/psi4/psi4/graphs/contributors
    http://psicode.org/psi4manual/master/introduction.html#citing-psifour

    -----------------------------------------------------------------------


    Psi4 started on: Saturday, 31 October 2020 12:27AM

    Process ID: 71882
    Host:       Yorks-Mac.local
    PSIDATADIR: /Users/york/src/psi4new/psi4/share/psi4
    Memory:     500.0 MiB
    Threads:    1
    
  ==> Input File <==

--------------------------------------------------------------------------
#! Generated using commit GITCOMMIT

import forte

refrohf   = -15.611546532146
refudsrg  = -15.545622051580
refprdsrg = -15.545634134941

molecule {
  0 3
  Be 0.00000000    0.00000000   0.000000000
  H  0.00000000    1.2750       2.7500
  H  0.00000000   -1.2750       2.7500
  units bohr
  no_reorient
}

basis {
cartesian
****
Be 0
S 6 1.00
 1267.07000 0.001940
  190.35600 0.014786
   43.29590 0.071795
   12.14420 0.236348
    3.80923 0.471763
    1.26847 0.355183
S 3 1.00
    5.69388 -0.028876
    1.55563 -0.177565
    0.171855 1.071630
S 1 1.0
    0.057181 1.000000
P 1 1.0
    5.69388  1.000000
P 2 1.0
    1.55563  0.144045
    0.171855 0.949692
****
H 0
S 3 1.00
   19.24060  0.032828
    2.899200 0.231208
    0.653400 0.817238
S 1 1.0
    0.177600  1.00000
****
}

set {
  docc               [2,0,0,0]
  socc               [1,0,0,1]
  reference          rohf
  scf_type           pk
  maxiter            300
  e_convergence      8
  d_convergence      10
}

set forte {
  active_space_solver    fci
  correlation_solver     mrdsrg
  int_type               cholesky
  cholesky_tolerance     1e-4
  corr_level             ldsrg2
  frozen_docc            [1,0,0,0]
  restricted_docc        [1,0,0,0]
  active                 [1,0,0,1]
  multiplicity           1
  root_sym               0
  nroot                  1
  root                   0
  dsrg_s                 1.0
  maxiter                100
  e_convergence          8
  r_convergence          8
  dsrg_hbar_seq          true
  dsrg_nivo              true
  relax_ref              once
  dsrg_read_amps         true
  dsrg_diis_start        1
  dsrg_rsc_ncomm         4
}

Escf, wfn = energy('scf', return_wfn=True)
compare_values(refrohf,variable("CURRENT ENERGY"),10,"ROHF energy")

energy('forte', ref_wfn=wfn)
compare_values(refudsrg, variable("UNRELAXED ENERGY"), 5, "MRDSRG unrelaxed energy")
compare_values(refprdsrg, variable("PARTIALLY RELAXED ENERGY"), 5, "MRDSRG partially relaxed energy")
--------------------------------------------------------------------------

Scratch directory: /Users/york/scratch/psi4/

*** tstart() called on Yorks-Mac.local
*** at Sat Oct 31 00:27:38 2020

   => Loading Basis Set <=

    Name: ANONYMOUS04DF54D9
    Role: ORBITAL
    Keyword: BASIS
    atoms 1   entry BE         line     5 inputblock anonymous04df54d9 
    atoms 2-3 entry H          line    25 inputblock anonymous04df54d9 


         ---------------------------------------------------------
                                   SCF
               by Justin Turney, Rob Parrish, Andy Simmonett
                          and Daniel G. A. Smith
                             ROHF Reference
                        1 Threads,    500 MiB Core
         ---------------------------------------------------------

  ==> Geometry <==

    Molecular point group: c2v
    Full point group: C2v

    Geometry (in Bohr), charge = 0, multiplicity = 3:

       Center              X                  Y                   Z               Mass       
    ------------   -----------------  -----------------  -----------------  -----------------
         BE           0.000000000000     0.000000000000    -0.502640692164     9.012183065000
         H           -0.000000000000     1.275000000000     2.247359307836     1.007825032230
         H            0.000000000000    -1.275000000000     2.247359307836     1.007825032230

  Running in c2v symmetry.

  Rotational constants: A =     18.37210  B =      4.83252  C =      3.82612 [cm^-1]
  Rotational constants: A = 550781.60528  B = 144875.38071  C = 114704.08026 [MHz]
  Nuclear repulsion =    3.031382610983898

  Charge       = 0
  Multiplicity = 3
  Electrons    = 6
  Nalpha       = 4
  Nbeta        = 2

  ==> Algorithm <==

  SCF Algorithm Type is PK.
  DIIS enabled.
  MOM disabled.
  Fractional occupation disabled.
  Guess Type is SAD.
  Energy threshold   = 1.00e-08
  Density threshold  = 1.00e-10
  Integral threshold = 0.00e+00

  ==> Primary Basis <==

  Basis Set: ANONYMOUS04DF54D9
    Blend: ANONYMOUS04DF54D9
    Number of shells: 9
    Number of basis function: 13
    Number of Cartesian functions: 13
    Spherical Harmonics?: false
    Max angular momentum: 1

  ==> Integral Setup <==

  Using in-core PK algorithm.
   Calculation information:
      Number of atoms:                   3
      Number of AO shells:               9
      Number of primitives:             21
      Number of atomic orbitals:        13
      Number of basis functions:        13

      Integral cutoff                 1.00e-12
      Number of threads:                 1

  Performing in-core PK
  Using 8372 doubles for integral storage.
  We computed 1035 shell quartets total.
  Whereas there are 1035 unique shell quartets.

  ==> DiskJK: Disk-Based J/K Matrices <==

    J tasked:                  Yes
    K tasked:                  Yes
    wK tasked:                  No
    Memory [MiB]:              375
    Schwarz Cutoff:          1E-12

    OpenMP threads:              1

  Minimum eigenvalue in the overlap matrix is 1.1003853897E-01.
  Reciprocal condition number of the overlap matrix is 3.9029480024E-02.
    Using symmetric orthogonalization.

  ==> Pre-Iterations <==

  SCF Guess: Superposition of Atomic Densities via on-the-fly atomic UHF (no occupation information).

   -------------------------
    Irrep   Nso     Nmo    
   -------------------------
     A1         7       7 
     A2         0       0 
     B1         2       2 
     B2         4       4 
   -------------------------
    Total      13      13
   -------------------------

  ==> Iterations <==

                        Total Energy        Delta E     RMS |[F,P]|

   @ROHF iter SAD:   -15.06028478590317   -1.50603e+01   0.00000e+00 
   @ROHF iter   1:   -15.59520591963553   -5.34921e-01   9.84985e-03 DIIS
   @ROHF iter   2:   -15.61082888151818   -1.56230e-02   1.87848e-03 DIIS
   @ROHF iter   3:   -15.61146844802307   -6.39567e-04   5.25043e-04 DIIS
   @ROHF iter   4:   -15.61153840102463   -6.99530e-05   1.64240e-04 DIIS
   @ROHF iter   5:   -15.61154611961294   -7.71859e-06   3.94313e-05 DIIS
   @ROHF iter   6:   -15.61154652335218   -4.03739e-07   5.86541e-06 DIIS
   @ROHF iter   7:   -15.61154653205680   -8.70462e-09   6.56789e-07 DIIS
   @ROHF iter   8:   -15.61154653214472   -8.79261e-11   8.18041e-08 DIIS
   @ROHF iter   9:   -15.61154653214598   -1.25766e-12   6.66485e-09 DIIS
   @ROHF iter  10:   -15.61154653214600   -1.77636e-14   6.28751e-10 DIIS
   @ROHF iter  11:   -15.61154653214600    0.00000e+00   5.01225e-11 DIIS
  Energy and wave function converged.


  ==> Post-Iterations <==

    Orbital Energies [Eh]
    ---------------------

    Doubly Occupied:                                                      

       1A1    -4.739412     2A1    -0.555329  

    Singly Occupied:                                                      

       1B2    -0.124111     3A1    -0.109925  

    Virtual:                                                              

       1B1     0.145758     2B2     0.257460     4A1     0.272612  
       5A1     0.325586     3B2     1.130941     6A1     1.208293  
       2B1     8.963573     4B2     9.001730     7A1     9.081773  

    Final Occupation by Irrep:
             A1    A2    B1    B2 
    DOCC [     2,    0,    0,    0 ]
    SOCC [     1,    0,    0,    1 ]

  @ROHF Final Energy:   -15.61154653214600

   => Energetics <=

    Nuclear Repulsion Energy =              3.0313826109838984
    One-Electron Energy =                 -26.0505763815631717
    Two-Electron Energy =                   7.4076472384332739
    Total Energy =                        -15.6115465321460007

Computation Completed


Properties will be evaluated at   0.000000,   0.000000,   0.000000 [a0]

Properties computed using the SCF density matrix

  Nuclear Dipole Moment: [e a0]
     X:     0.0000      Y:     0.0000      Z:     2.4842

  Electronic Dipole Moment: [e a0]
     X:     0.0000      Y:     0.0000      Z:    -2.5844

  Dipole Moment: [e a0]
     X:     0.0000      Y:     0.0000      Z:    -0.1002     Total:     0.1002

  Dipole Moment: [D]
     X:     0.0000      Y:     0.0000      Z:    -0.2548     Total:     0.2548


*** tstop() called on Yorks-Mac.local at Sat Oct 31 00:27:38 2020
Module time:
	user time   =       0.20 seconds =       0.00 minutes
	system time =       0.01 seconds =       0.00 minutes
	total time  =          0 seconds =       0.00 minutes
Total time:
	user time   =       0.20 seconds =       0.00 minutes
	system time =       0.01 seconds =       0.00 minutes
	total time  =          0 seconds =       0.00 minutes
    ROHF energy...........................................................................PASSED

Scratch directory: /Users/york/scratch/psi4/

  Forte
  ----------------------------------------------------------------------------
  A suite of quantum chemistry methods for strongly correlated electrons

    git branch: dsrg_file_io - git commit: 058d6cdf

  Developed by:
    Francesco A. Evangelista, Chenyang Li, Kevin P. Hannon,
    Jeffrey B. Schriber, Tianyuan Zhang, Chenxi Cai,
    Nan He, Nicholas Stair, Shuhe Wang, Renke Huang
  ----------------------------------------------------------------------------

  Size of Determinant class: 128 bits
  Preparing forte objects from a psi4 Wavefunction object   => Loading Basis Set <=

    Name: STO-3G
    Role: ORBITAL
    Keyword: MINAO_BASIS
    atoms 1   entry BE         line    41 file /Users/york/src/psi4new/psi4/share/psi4/basis/sto-3g.gbs 
    atoms 2-3 entry H          line    19 file /Users/york/src/psi4new/psi4/share/psi4/basis/sto-3g.gbs 


  Read options for space FROZEN_DOCC
  Read options for space RESTRICTED_DOCC
  Read options for space ACTIVE
  Read options for space FROZEN_DOCC
  Read options for space RESTRICTED_DOCC

  ==> MO Space Information <==

  -------------------------------------------------
                       A1    A2    B1    B2   Sum
  -------------------------------------------------
    FROZEN_DOCC         1     0     0     0     1
    RESTRICTED_DOCC     1     0     0     0     1
    GAS1                1     0     0     1     2
    GAS2                0     0     0     0     0
    GAS3                0     0     0     0     0
    GAS4                0     0     0     0     0
    GAS5                0     0     0     0     0
    GAS6                0     0     0     0     0
    RESTRICTED_UOCC     4     0     2     3     9
    FROZEN_UOCC         0     0     0     0     0
    Total               7     0     2     4    13
  -------------------------------------------------
  Forte will use psi4 integrals

  ==> Integral Transformation <==

  Number of molecular orbitals:                    13
  Number of correlated molecular orbitals:         12
  Number of frozen occupied orbitals:               1
  Number of frozen unoccupied orbitals:             0
  Two-electron integral type:              Cholesky decomposition


  Computing the Cholesky Vectors 

  Computing CD Integrals
  Timing for cholesky transformation:                         0.009 s.
  Need 74.36 KB to store CD integrals in core

  Number of Cholesky vectors required for 1.000e-04 tolerance: 55

  Building frozen-core operator using Cholesky integrals

  Frozen-core energy            -14.929378863559 a.u.
  Timing for frozen one-body operator:                        0.018 s.
  Resorting integrals after freezing core.
  Timing for freezing core and virtual orbitals:              0.018 s.
  Timing for computing Cholesky integrals:                    0.030 s.

  ==> Summary of Active Space Solver Input <==

    Irrep.  Multi.(2ms)      N
    --------------------------
       A1      1  (  0)      1
    --------------------------
    N: number of roots
    ms: spin z component
    Total number of roots:   1
    --------------------------


  ==> String Lists <==

  Number of alpha electrons     = 1
  Number of beta electrons      = 1
  Number of alpha strings       = 2
  Number of beta strings        = 2
  Timing for strings        =      0.000 s
  Timing for NN strings     =      0.000 s
  Timing for VO strings     =      0.000 s
  Timing for OO strings     =      0.000 s
  Timing for VVOO strings   =      0.000 s
  Timing for VOVO strings   =      0.000 s
  Timing for 1-hole strings =      0.000 s
  Timing for 2-hole strings =      0.000 s
  Timing for 3-hole strings =      0.000 s
  Total timing              =      0.000 s

  ==> FCI Solver <==

    Number of determinants                           2
    Symmetry                                         0
    Multiplicity                                     1
    Number of roots                                  1
    Target root                                      0
    Trial vectors per root                          10

  Allocating memory for the Hamiltonian algorithm. Size: 2 x 1 x 1.   Memory: 0.000000 GB

  ==> FCI Initial Guess <==

  ---------------------------------------------
    Root            Energy     <S^2>   Spin
  ---------------------------------------------
      0      -15.483406416384  0.000  singlet
      1      -15.440214743852  0.000  singlet
  ---------------------------------------------
  Timing for initial guess  =      0.000 s


  ==> Diagonalizing Hamiltonian <==

  Energy   convergence: 1.00e-08
  Residual convergence: 1.00e-08
  -----------------------------------------------------
    Iter.      Avg. Energy       Delta_E     Res. Norm
  -----------------------------------------------------
      1      -15.483406416384  -1.548e+01  +3.097e+01
      2      -15.483406416384  +0.000e+00  +8.882e-16
  -----------------------------------------------------
  The Davidson-Liu algorithm converged in 3 iterations.

  ==> Root No. 0 <==

    0 2      0.91016103
    2 0     -0.41425464

    Total Energy:       -15.483406416384152

  ==> Energy Summary <==

    Multi.(2ms)  Irrep.  No.               Energy
    ---------------------------------------------
       1  (  0)    A1     0      -15.483406416384
    ---------------------------------------------

  ==> Computing RDMs for Root No. 0 <==

    Timing for 1-RDM: 0.000 s
    Timing for 2-RDM: 0.000 s
    Timing for 3-RDM: 0.000 s

  ==> NATURAL ORBITALS <==

        1B2     1.656786      1A1     0.343214  


       -----------------------------------------------------------------
                            Semi-Canonical Orbitals
         Chenyang Li, Jeffrey B. Schriber and Francesco A. Evangelista
       -----------------------------------------------------------------

  Took 0.000588 s to build Fock matrix

  ==> Checking Fock Matrix Diagonal Blocks <==

    Off-Diag. Elements       Max           2-Norm
    ------------------------------------------------
    Fa GAS1              0.0000000000   0.0000000000
    Fb GAS1              0.0000000000   0.0000000000
    ------------------------------------------------
    Fa GAS2              0.0000000000   0.0000000000
    Fb GAS2              0.0000000000   0.0000000000
    ------------------------------------------------
    Fa GAS3              0.0000000000   0.0000000000
    Fb GAS3              0.0000000000   0.0000000000
    ------------------------------------------------
    Fa GAS4              0.0000000000   0.0000000000
    Fb GAS4              0.0000000000   0.0000000000
    ------------------------------------------------
    Fa GAS5              0.0000000000   0.0000000000
    Fb GAS5              0.0000000000   0.0000000000
    ------------------------------------------------
    Fa GAS6              0.0000000000   0.0000000000
    Fb GAS6              0.0000000000   0.0000000000
    ------------------------------------------------
    Fa RESTRICTED_DOCC   0.0000000000   0.0000000000
    Fb RESTRICTED_DOCC   0.0000000000   0.0000000000
    ------------------------------------------------
    Fa RESTRICTED_UOCC   0.0179817598   0.0459265748
    Fb RESTRICTED_UOCC   0.0179817598   0.0459265748
    ------------------------------------------------
  Integrals are about to be computed.
  Computing the Cholesky Vectors 

  Computing CD Integrals
  Timing for cholesky transformation:                         0.008 s.
  Need 74.36 KB to store CD integrals in core

  Number of Cholesky vectors required for 1.000e-04 tolerance: 55

  Integrals are about to be updated.
  Building frozen-core operator using Cholesky integrals

  Frozen-core energy            -14.929378863559 a.u.
  Timing for frozen one-body operator:                        0.018 s.
  Resorting integrals after freezing core.
  Timing for freezing core and virtual orbitals:              0.018 s.

  ==> RDMs Transformation to Semicanonical Basis <==

    Transformed 1 RDMs.
    Transformed 2 RDMs.
    Transformed 3 RDMs.
  Timing for semi-canonicalization:                           0.360 s.

  ==> Multireference Driven Similarity Renormalization Group <==

    Reading DSRG options ............................ Done
    Setting ambit MO space .......................... Done
    Preparing tensors for density cumulants ......... Done
    Building Fock matrix ............................ Done

           ----------------------------------------------------------
             Multireference Driven Similarity Renormalization Group
                   written by Chenyang Li and Tianyuan Zhang
           ----------------------------------------------------------


  ==> Density Cumulant Summary <==

    2-body             AA           AB           BB
    -----------------------------------------------
    max          0.142158     0.377038     0.142158
    norm         0.284316     0.604278     0.284316
    -----------------------------------------------
    3-body            AAA          AAB          ABB          BBB
    ------------------------------------------------------------
    max          0.000000     0.093367     0.093367     0.000000
    norm         0.000000     0.264083     0.264083     0.000000
    ------------------------------------------------------------

  ==> Checking Semicanonical Orbitals <==

    Abs. max of Fock core, active, virtual blocks (Fij, i != j)
                  core          active         virtual
    --------------------------------------------------
    Fα    0.0000000000    0.0000027020    0.0000348573
    Fβ    0.0000000000    0.0000027020    0.0000348573
    --------------------------------------------------

    1-Norm of Fock core, active, virtual blocks (Fij, i != j)
                  core          active         virtual
    --------------------------------------------------
    Fα    0.0000000000    0.0000054041    0.0002098374
    Fβ    0.0000000000    0.0000054041    0.0002098374
    --------------------------------------------------

    Orbitals are semi-canonicalized.

  ==> Calculation Information <==

    Number of T amplitudes                                15
    DIIS start                                             1
    Min DIIS vectors                                       2
    Max DIIS vectors                                       6
    DIIS extrapolating freq                                1
    Flow parameter                                 1.000e+00
    Taylor expansion threshold                     1.000e-03
    Intruder amplitudes threshold                  1.000e-01
    Correlation level                                 LDSRG2
    Integral type                                   CHOLESKY
    Source operator                                 STANDARD
    Adaptive DSRG flow type                           DSRG_S
    Reference relaxation                                ONCE
    DSRG transformation type                         UNITARY
    Core-Virtual source type                          NORMAL
    Restart amplitudes                                  TRUE
    Sequential DSRG transformation                      TRUE
    Omit blocks of >= 3 virtual indices                 TRUE
    Read amplitudes from current dir                    TRUE
    Write amplitudes to current dir                    FALSE


  ==> Build Initial Amplitudes Guesses <==

    Reading T2 amplitudes from current directory ... Done.
    Reading T1 amplitudes from current directory ... Done.

  ==> Initial Excitation Amplitudes Summary <==

    Active Indices:    1    8 
    Largest T1 amplitudes for spin case A:
       i       a                  i       a                  i       a               
    --------------------------------------------------------------------------------
    [  8      10    ] 0.025613 [  8       9    ]-0.020691 [  0       3    ] 0.014962 
    [  1       4    ]-0.013013 [  0       1    ] 0.012268 [  1       2    ]-0.010530 
    [  0       4    ] 0.005781 [  1       3    ]-0.005390 [  0       2    ]-0.001327 
    [  8      11    ] 0.000648 [  0       5    ]-0.000619 [  1       5    ]-0.000532 
    [  8       3    ] 0.000012 [  8       4    ]-0.000005 [  1      10    ]-0.000005 
    --------------------------------------------------------------------------------
    Norm of T1A vector: (nonzero elements: 23)                    0.042474299421494.
    --------------------------------------------------------------------------------
    Largest T1 amplitudes for spin case B:
       _       _                  _       _                  _       _               
       i       a                  i       a                  i       a               
    --------------------------------------------------------------------------------
    [  8      10    ] 0.025613 [  8       9    ]-0.020691 [  0       3    ] 0.014962 
    [  1       4    ]-0.013013 [  0       1    ] 0.012268 [  1       2    ]-0.010530 
    [  0       4    ] 0.005781 [  1       3    ]-0.005390 [  0       2    ]-0.001327 
    [  8      11    ] 0.000648 [  0       5    ]-0.000619 [  1       5    ]-0.000532 
    [  8       3    ] 0.000012 [  8       4    ]-0.000005 [  1      10    ]-0.000005 
    --------------------------------------------------------------------------------
    Norm of T1B vector: (nonzero elements: 23)                    0.042474299421494.
    --------------------------------------------------------------------------------
    Largest T2 amplitudes for spin case AA:
       i   j   a   b              i   j   a   b              i   j   a   b           
    --------------------------------------------------------------------------------
    [  0   1   1   3] 0.030414 [  0   8   3   9] 0.015843 [  0   1   8   9] 0.013595 
    [  1   8   3   9]-0.013215 [  0   8   3   8]-0.013149 [  1   8   1   9] 0.012823 
    [  0   8   2   8]-0.012798 [  1   8   4   8]-0.012698 [  1   8   1  10] 0.010760 
    [  1   8   2   9] 0.010417 [  0   8   4   8] 0.010181 [  0   1   2   3] 0.008987 
    [  0   8   1   9] 0.008967 [  1   8   2   8]-0.008501 [  1   8   3   8]-0.007379 
    --------------------------------------------------------------------------------
    Norm of T2AA vector: (nonzero elements: 440)                  0.110064332571847.
    --------------------------------------------------------------------------------
    Largest T2 amplitudes for spin case AB:
           _       _                  _       _                  _       _           
       i   j   a   b              i   j   a   b              i   j   a   b           
    --------------------------------------------------------------------------------
    [  0   0   8   8]-0.058314 [  8   8   9   9]-0.050167 [  0   0   3   3]-0.046914 
    [  8   8   8  10] 0.042859 [  0   8   3   9] 0.039640 [  0   8   4   8] 0.038326 
    [  0   0   8  10] 0.034292 [  1   1   9   9]-0.029286 [  0   0   8   9]-0.029128 
    [  8   8  10  10]-0.026189 [  0   0   9   9]-0.024778 [  0   1   8   9] 0.024082 
    [  0   0  10  10]-0.023936 [  1   1   1   2]-0.023604 [  1   8   4   8]-0.023021 
    --------------------------------------------------------------------------------
    Norm of T2AB vector: (nonzero elements: 749)                  0.230008507753485.
    --------------------------------------------------------------------------------
    Largest T2 amplitudes for spin case BB:
       _   _   _   _              _   _   _   _              _   _   _   _           
       i   j   a   b              i   j   a   b              i   j   a   b           
    --------------------------------------------------------------------------------
    [  0   1   1   3] 0.030414 [  0   8   3   9] 0.015843 [  0   1   8   9] 0.013595 
    [  1   8   3   9]-0.013215 [  0   8   3   8]-0.013149 [  1   8   1   9] 0.012823 
    [  0   8   2   8]-0.012798 [  1   8   4   8]-0.012698 [  1   8   1  10] 0.010760 
    [  1   8   2   9] 0.010417 [  0   8   4   8] 0.010181 [  0   1   2   3] 0.008987 
    [  0   8   1   9] 0.008967 [  1   8   2   8]-0.008501 [  1   8   3   8]-0.007379 
    --------------------------------------------------------------------------------
    Norm of T2BB vector: (nonzero elements: 440)                  0.110064332571847.
    --------------------------------------------------------------------------------

  ==> Possible Intruders <==

    T1 amplitudes larger than 0.1000 for spin case A: NULL
    T1 amplitudes larger than 0.1000 for spin case B: NULL
    T2 amplitudes larger than 0.1000 for spin case AA: NULL
    T2 amplitudes larger than 0.1000 for spin case AB: NULL
    T2 amplitudes larger than 0.1000 for spin case BB: NULL

  ==> Computing MR-LDSRG(2) Energy <==

    Reference:
      J. Chem. Phys. 2016, 144, 164114.

                  Energy (a.u.)           Non-Diagonal Norm        Amplitude RMS         Timings (s)
           ---------------------------  ---------------------  ---------------------  -----------------
    Iter.        Corr.         Delta       Hbar1      Hbar2        T1         T2        Hbar     Amp.    DIIS
    ---------------------------------------------------------------------------------------------------------
    Warning! Hbar is not converged in   4-nested commutators!
    Please increase DSRG_RSC_NCOMM.
       1    -0.062215193925 -6.222e-02   1.293e-01  3.854e-01   7.334e-08  6.942e-07     2.855    0.005  S
    Warning! Hbar is not converged in   4-nested commutators!
    Please increase DSRG_RSC_NCOMM.
       2    -0.062215215788 -2.186e-08   1.293e-01  3.854e-01   2.261e-08  1.217e-07     2.513    0.005  S/E
    Warning! Hbar is not converged in   4-nested commutators!
    Please increase DSRG_RSC_NCOMM.
       3    -0.062215212629  3.158e-09   1.293e-01  3.854e-01   6.475e-09  2.775e-08     2.557    0.005  S/E
    Warning! Hbar is not converged in   4-nested commutators!
    Please increase DSRG_RSC_NCOMM.
       4    -0.062215211970  6.599e-10   1.293e-01  3.854e-01   5.679e-10  5.010e-09     2.495    0.005  S/E
    ---------------------------------------------------------------------------------------------------------

  ==> MR-LDSRG(2) Energy Summary <==

    E0 (reference)                 =     -15.483406416384149
    MR-LDSRG(2) correlation energy =      -0.062215211969536
    MR-LDSRG(2) total energy       =     -15.545621628353684

  ==> Final Excitation Amplitudes Summary <==

    Active Indices:    1    8 
    Largest T1 amplitudes for spin case A:
       i       a                  i       a                  i       a               
    --------------------------------------------------------------------------------
    [  8      10    ] 0.025613 [  8       9    ]-0.020691 [  0       3    ] 0.014962 
    [  1       4    ]-0.013013 [  0       1    ] 0.012268 [  1       2    ]-0.010530 
    [  0       4    ] 0.005781 [  1       3    ]-0.005390 [  0       2    ]-0.001328 
    [  8      11    ] 0.000648 [  0       5    ]-0.000619 [  1       5    ]-0.000532 
    [  8       3    ] 0.000012 [  8       4    ]-0.000005 [  1      10    ]-0.000005 
    --------------------------------------------------------------------------------
    Norm of T1A vector: (nonzero elements: 23)                    0.042474333915747.
    --------------------------------------------------------------------------------
    Largest T1 amplitudes for spin case B:
       _       _                  _       _                  _       _               
       i       a                  i       a                  i       a               
    --------------------------------------------------------------------------------
    [  8      10    ] 0.025613 [  8       9    ]-0.020691 [  0       3    ] 0.014962 
    [  1       4    ]-0.013013 [  0       1    ] 0.012268 [  1       2    ]-0.010530 
    [  0       4    ] 0.005781 [  1       3    ]-0.005390 [  0       2    ]-0.001328 
    [  8      11    ] 0.000648 [  0       5    ]-0.000619 [  1       5    ]-0.000532 
    [  8       3    ] 0.000012 [  8       4    ]-0.000005 [  1      10    ]-0.000005 
    --------------------------------------------------------------------------------
    Norm of T1B vector: (nonzero elements: 23)                    0.042474333915747.
    --------------------------------------------------------------------------------
    Largest T2 amplitudes for spin case AA:
       i   j   a   b              i   j   a   b              i   j   a   b           
    --------------------------------------------------------------------------------
    [  0   1   1   3] 0.030414 [  0   8   3   9] 0.015843 [  0   1   8   9] 0.013595 
    [  1   8   3   9]-0.013215 [  0   8   3   8]-0.013149 [  1   8   1   9] 0.012823 
    [  0   8   2   8]-0.012798 [  1   8   4   8]-0.012698 [  1   8   1  10] 0.010760 
    [  1   8   2   9] 0.010417 [  0   8   4   8] 0.010181 [  0   1   2   3] 0.008987 
    [  0   8   1   9] 0.008967 [  1   8   2   8]-0.008501 [  1   8   3   8]-0.007379 
    --------------------------------------------------------------------------------
    Norm of T2AA vector: (nonzero elements: 440)                  0.110064554234587.
    --------------------------------------------------------------------------------
    Largest T2 amplitudes for spin case AB:
           _       _                  _       _                  _       _           
       i   j   a   b              i   j   a   b              i   j   a   b           
    --------------------------------------------------------------------------------
    [  0   0   8   8]-0.058315 [  8   8   9   9]-0.050167 [  0   0   3   3]-0.046914 
    [  8   8   8  10] 0.042859 [  0   8   3   9] 0.039640 [  0   8   4   8] 0.038327 
    [  0   0   8  10] 0.034292 [  1   1   9   9]-0.029286 [  0   0   8   9]-0.029128 
    [  8   8  10  10]-0.026189 [  0   0   9   9]-0.024778 [  0   1   8   9] 0.024082 
    [  0   0  10  10]-0.023936 [  1   1   1   2]-0.023604 [  1   8   4   8]-0.023021 
    --------------------------------------------------------------------------------
    Norm of T2AB vector: (nonzero elements: 749)                  0.230008840380879.
    --------------------------------------------------------------------------------
    Largest T2 amplitudes for spin case BB:
       _   _   _   _              _   _   _   _              _   _   _   _           
       i   j   a   b              i   j   a   b              i   j   a   b           
    --------------------------------------------------------------------------------
    [  0   1   1   3] 0.030414 [  0   8   3   9] 0.015843 [  0   1   8   9] 0.013595 
    [  1   8   3   9]-0.013215 [  0   8   3   8]-0.013149 [  1   8   1   9] 0.012823 
    [  0   8   2   8]-0.012798 [  1   8   4   8]-0.012698 [  1   8   1  10] 0.010760 
    [  1   8   2   9] 0.010417 [  0   8   4   8] 0.010181 [  0   1   2   3] 0.008987 
    [  0   8   1   9] 0.008967 [  1   8   2   8]-0.008501 [  1   8   3   8]-0.007379 
    --------------------------------------------------------------------------------
    Norm of T2BB vector: (nonzero elements: 440)                  0.110064554234587.
    --------------------------------------------------------------------------------

  ==> Possible Intruders <==

    T1 amplitudes larger than 0.1000 for spin case A: NULL
    T1 amplitudes larger than 0.1000 for spin case B: NULL
    T2 amplitudes larger than 0.1000 for spin case AA: NULL
    T2 amplitudes larger than 0.1000 for spin case AB: NULL
    T2 amplitudes larger than 0.1000 for spin case BB: NULL
    Dumping amplitudes to scratch directory ... Done.

  ==> De-Normal-Order DSRG Transformed Hamiltonian <==

    Computing the scalar term                ... Done. Timing    0.002 s
    Computing the 1-body term                ... Done. Timing    0.002 s

  ==> Rotate DSRG Transformed Hamiltonian back to Original Basis <==

    Rotating 1-body term to original basis   ... Done. Timing    0.000 s
    Rotating 2-body term to original basis   ... Done. Timing    0.003 s

  ==> String Lists <==

  Number of alpha electrons     = 1
  Number of beta electrons      = 1
  Number of alpha strings       = 2
  Number of beta strings        = 2
  Timing for strings        =      0.000 s
  Timing for NN strings     =      0.000 s
  Timing for VO strings     =      0.000 s
  Timing for OO strings     =      0.000 s
  Timing for VVOO strings   =      0.000 s
  Timing for VOVO strings   =      0.000 s
  Timing for 1-hole strings =      0.000 s
  Timing for 2-hole strings =      0.000 s
  Timing for 3-hole strings =      0.000 s
  Total timing              =      0.000 s

  ==> FCI Solver <==

    Number of determinants                           2
    Symmetry                                         0
    Multiplicity                                     1
    Number of roots                                  1
    Target root                                      0
    Trial vectors per root                          10

  Allocating memory for the Hamiltonian algorithm. Size: 2 x 1 x 1.   Memory: 0.000000 GB

  ==> FCI Initial Guess <==

  ---------------------------------------------
    Root            Energy     <S^2>   Spin
  ---------------------------------------------
      0      -15.545633708827  0.000  singlet
      1      -15.498934811518  0.000  singlet
  ---------------------------------------------
  Timing for initial guess  =      0.000 s


  ==> Diagonalizing Hamiltonian <==

  Energy   convergence: 1.00e-08
  Residual convergence: 1.00e-08
  -----------------------------------------------------
    Iter.      Avg. Energy       Delta_E     Res. Norm
  -----------------------------------------------------
      1      -15.545633708827  -1.555e+01  +3.109e+01
      2      -15.545633708827  +3.553e-15  +1.776e-15
  -----------------------------------------------------
  The Davidson-Liu algorithm converged in 3 iterations.

  ==> Root No. 0 <==

    0 2      0.90338051
    2 0     -0.42883990

    Total Energy:       -15.545633708826912

  ==> Energy Summary <==

    Multi.(2ms)  Irrep.  No.               Energy
    ---------------------------------------------
       1  (  0)    A1     0      -15.545633708827
    ---------------------------------------------

  => MRDSRG Reference Relaxation Energy Summary <=

                         Fixed Ref. (a.u.)              Relaxed Ref. (a.u.)
           -------------------------------  -------------------------------
    Iter.          Total Energy      Delta          Total Energy      Delta
    -----------------------------------------------------------------------
        1      -15.545621628354 -1.555e+01      -15.545633708827 -1.555e+01
    -----------------------------------------------------------------------

  ==> Total Timings (s) for Computing Commutators <==

             [H1, T1]    [H1, T2]    [H2, T1]    [H2, T2]
    -----------------------------------------------------
    -> C0       0.000       0.025       0.000       1.043
    -> C1       0.000       0.109       0.000       3.746
    -> C2                   0.339       0.000       4.915
    -----------------------------------------------------


  Time to prepare integrals:        0.032 seconds
  Time to run job          :       10.828 seconds
  Total                    :       10.828 seconds    MRDSRG unrelaxed energy...............................................................PASSED
    MRDSRG partially relaxed energy.......................................................PASSED

    Psi4 stopped on: Saturday, 31 October 2020 12:27AM
    Psi4 wall time for execution: 0:00:11.11

*** Psi4 exiting successfully. Buy a developer a beer!
