
    -----------------------------------------------------------------------
          Psi4: An Open-Source Ab Initio Electronic Structure Package
                               Psi4 1.9a1.dev50 

                         Git: Rev {fixtemp} 466ebc2 


    D. G. A. Smith, L. A. Burns, A. C. Simmonett, R. M. Parrish,
    M. C. Schieber, R. Galvelis, P. Kraus, H. Kruse, R. Di Remigio,
    A. Alenaizan, A. M. James, S. Lehtola, J. P. Misiewicz, M. Scheurer,
    R. A. Shaw, J. B. Schriber, Y. Xie, Z. L. Glick, D. A. Sirianni,
    J. S. O'Brien, J. M. Waldrop, A. Kumar, E. G. Hohenstein,
    B. P. Pritchard, B. R. Brooks, H. F. Schaefer III, A. Yu. Sokolov,
    K. Patkowski, A. E. DePrince III, U. Bozkaya, R. A. King,
    F. A. Evangelista, J. M. Turney, T. D. Crawford, C. D. Sherrill,
    J. Chem. Phys. 152(18) 184108 (2020). https://doi.org/10.1063/5.0006002

                            Additional Code Authors
    E. T. Seidl, C. L. Janssen, E. F. Valeev, M. L. Leininger,
    J. F. Gonthier, R. M. Richard, H. R. McAlexander, M. Saitow, X. Wang,
    P. Verma, M. H. Lechner, A. Jiang, S. Behnle, A. G. Heide,
    M. F. Herbst, and D. L. Poole

             Previous Authors, Complete List of Code Contributors,
                       and Citations for Specific Modules
    https://github.com/psi4/psi4/blob/master/codemeta.json
    https://github.com/psi4/psi4/graphs/contributors
    http://psicode.org/psi4manual/master/introduction.html#citing-psifour

    -----------------------------------------------------------------------


    Psi4 started on: Wednesday, 08 November 2023 04:34PM

    Process ID: 73257
    Host:       macbook-pro-158.wireless.emory.edu
    PSIDATADIR: /Users/fevange/Source/psi4/objdir-Release/stage/share/psi4
    Memory:     500.0 MiB
    Threads:    1
    
  ==> Input File <==

--------------------------------------------------------------------------
# GASCI calculation on energy and transition dipole with states of different symmetries

import forte

refscf = -76.0172965561
refaci = -65.52803723267440716
refacipt2 = -55.02612867161270316
refosc_0a1_0b1 =  0.00000307 
s_max_0a1_0b1 = 0.00986351

molecule h2o{
   O
   H  1 1.00
   H  1 1.00 2 103.1
}

set global {
  basis 6-31g**
  e_convergence 10
  d_convergence 10
  r_convergence 10
  guess gwh
  scf_type pk
  reference rhf
}

set scf_type direct
set forte {
  active_space_solver gasci
  ms 0.0
  multiplicity 1
  root_sym 0
  charge 0
  e_convergence 10
  charge 0
  GAS1 [1,0,0,0]
  GAS2 [3,0,1,2]
  GAS1MAX [2,1]
  GAS1MIN [0,0]
  avg_state [[0,1,1],[2,1,1]]
  transition_dipoles true
}

escf, wfn = energy('scf', return_wfn=True)
compare_values(refscf, variable("CURRENT ENERGY"), 9, "SCF energy")

eaci = energy('forte', ref_wfn=wfn)
compare_values(refaci, eaci, 8, "Averaged ACI energy")
compare_values(refosc_0a1_0b1, variable("OSC. SINGLET 0A1 -> 0B1"), 6, "Oscillator strength singlet 0A1 -> 0B1")
compare_values(s_max_0a1_0b1, variable("TRANS SINGLET S_MAX 0A1 -> 0B1"), 6, "S_MAX singlet 0A1 -> 0B1")
--------------------------------------------------------------------------

Scratch directory: /tmp/
   => Libint2 <=

    Primary   basis highest AM E, G, H:  5, 4, 3
    Auxiliary basis highest AM E, G, H:  6, 5, 4
    Onebody   basis highest AM E, G, H:  6, 5, 4
    Solid Harmonics ordering:            gaussian

*** tstart() called on macbook-pro-158.wireless.emory.edu
*** at Wed Nov  8 16:34:36 2023

   => Loading Basis Set <=

    Name: 6-31G**
    Role: ORBITAL
    Keyword: BASIS
    atoms 1   entry O          line   149 file /Users/fevange/Source/psi4/objdir-Release/stage/share/psi4/basis/6-31gss.gbs 
    atoms 2-3 entry H          line    44 file /Users/fevange/Source/psi4/objdir-Release/stage/share/psi4/basis/6-31gss.gbs 


         ---------------------------------------------------------
                                   SCF
               by Justin Turney, Rob Parrish, Andy Simmonett
                          and Daniel G. A. Smith
                              RHF Reference
                        1 Threads,    500 MiB Core
         ---------------------------------------------------------

  ==> Geometry <==

    Molecular point group: c2v
    Full point group: C2v

    Geometry (in Angstrom), charge = 0, multiplicity = 1:

       Center              X                  Y                   Z               Mass       
    ------------   -----------------  -----------------  -----------------  -----------------
         O            0.000000000000     0.000000000000    -0.069592187400    15.994914619570
         H            0.000000000000    -0.783151105291     0.552239257834     1.007825032230
         H            0.000000000000     0.783151105291     0.552239257834     1.007825032230

  Running in c2v symmetry.

  Rotational constants: A =     24.35462  B =     13.63610  C =      8.74166 [cm^-1]
  Rotational constants: A = 730133.21529  B = 408800.04239  C = 262068.46393 [MHz]
  Nuclear repulsion =    8.804686653247025

  Charge       = 0
  Multiplicity = 1
  Electrons    = 10
  Nalpha       = 5
  Nbeta        = 5

  ==> Algorithm <==

  SCF Algorithm Type is DIRECT.
  DIIS enabled.
  MOM disabled.
  Fractional occupation disabled.
  Guess Type is GWH.
  Energy threshold   = 1.00e-10
  Density threshold  = 1.00e-10
  Integral threshold = 1.00e-12

  ==> Primary Basis <==

  Basis Set: 6-31G**
    Blend: 6-31G**
    Number of shells: 12
    Number of basis functions: 25
    Number of Cartesian functions: 25
    Spherical Harmonics?: false
    Max angular momentum: 2

   => Loading Basis Set <=

    Name: (6-31G** AUX)
    Role: JKFIT
    Keyword: DF_BASIS_SCF
    atoms 1   entry O          line   221 file /Users/fevange/Source/psi4/objdir-Release/stage/share/psi4/basis/cc-pvdz-jkfit.gbs 
    atoms 2-3 entry H          line    51 file /Users/fevange/Source/psi4/objdir-Release/stage/share/psi4/basis/cc-pvdz-jkfit.gbs 

  Starting with a DF guess...

  ==> Integral Setup <==

  DFHelper Memory: AOs need 0.001 GiB; user supplied 0.366 GiB. 
  Using in-core AOs.

  ==> MemDFJK: Density-Fitted J/K Matrices <==

    J tasked:                   Yes
    K tasked:                   Yes
    wK tasked:                   No
    OpenMP threads:               1
    Memory [MiB]:               375
    Algorithm:                 Core
    Schwarz Cutoff:           1E-12
    Mask sparsity (%):       0.0000
    Fitting Condition:        1E-10

   => Auxiliary Basis Set <=

  Basis Set: (6-31G** AUX)
    Blend: CC-PVDZ-JKFIT
    Number of shells: 42
    Number of basis functions: 131
    Number of Cartesian functions: 131
    Spherical Harmonics?: false
    Max angular momentum: 3

  Minimum eigenvalue in the overlap matrix is 2.2571686435E-02.
  Reciprocal condition number of the overlap matrix is 5.1514795888E-03.
    Using symmetric orthogonalization.

  ==> Pre-Iterations <==

  SCF Guess: Generalized Wolfsberg-Helmholtz applied to core Hamiltonian.

   -------------------------------------------------------
    Irrep   Nso     Nmo     Nalpha   Nbeta   Ndocc  Nsocc
   -------------------------------------------------------
     A1        12      12       3       3       3       0
     A2         2       2       0       0       0       0
     B1         4       4       1       1       1       0
     B2         7       7       1       1       1       0
   -------------------------------------------------------
    Total      25      25       5       5       5       0
   -------------------------------------------------------

  ==> Iterations <==

                           Total Energy        Delta E     RMS |[F,P]|

   @DF-RHF iter   1:   -74.69502194331444   -7.46950e+01   1.19380e-01 ADIIS
   @DF-RHF iter   2:   -75.63883488360122   -9.43813e-01   7.21524e-02 DIIS/ADIIS
   @DF-RHF iter   3:   -75.93342927299685   -2.94594e-01   3.35851e-02 DIIS/ADIIS
   @DF-RHF iter   4:   -76.01430516301365   -8.08759e-02   6.34354e-03 DIIS/ADIIS
   @DF-RHF iter   5:   -76.01724291941886   -2.93776e-03   2.66323e-04 DIIS/ADIIS
   @DF-RHF iter   6:   -76.01725899679892   -1.60774e-05   5.79129e-05 DIIS
   @DF-RHF iter   7:   -76.01725995996928   -9.63170e-07   9.69416e-06 DIIS
   @DF-RHF iter   8:   -76.01725998251197   -2.25427e-08   2.06478e-06 DIIS
   @DF-RHF iter   9:   -76.01725998413119   -1.61921e-09   5.25388e-07 DIIS
   @DF-RHF iter  10:   -76.01725998416302   -3.18323e-11   3.67583e-08 DIIS
   @DF-RHF iter  11:   -76.01725998416325   -2.27374e-13   3.41540e-09 DIIS
   @DF-RHF iter  12:   -76.01725998416322    2.84217e-14   5.26149e-10 DIIS
   @DF-RHF iter  13:   -76.01725998416323   -1.42109e-14   4.86461e-11 DIIS

  DF guess converged.

  ==> DirectJK: Integral-Direct J/K Matrices <==

    J tasked:                  Yes
    K tasked:                  Yes
    wK tasked:                  No
    Integrals threads:           1
    Screening Type:           CSAM
    Screening Cutoff:        1E-12
    Incremental Fock:           No

   @RHF iter  14:   -76.01729654450106   -7.60173e+01   1.19915e-05 DIIS
   @RHF iter  15:   -76.01729655577874   -1.12777e-08   1.64017e-06 DIIS
   @RHF iter  16:   -76.01729655606739   -2.88651e-10   4.89637e-07 DIIS
   @RHF iter  17:   -76.01729655608844   -2.10463e-11   1.68506e-07 DIIS
   @RHF iter  18:   -76.01729655609141   -2.97007e-12   4.58642e-08 DIIS
   @RHF iter  19:   -76.01729655609159   -1.84741e-13   5.21058e-09 DIIS
   @RHF iter  20:   -76.01729655609164   -4.26326e-14   7.84807e-10 DIIS
   @RHF iter  21:   -76.01729655609162    1.42109e-14   1.27027e-10 DIIS
   @RHF iter  22:   -76.01729655609171   -8.52651e-14   2.82297e-11 DIIS
  Energy and wave function converged.


  ==> Post-Iterations <==

    Orbital Energies [Eh]
    ---------------------

    Doubly Occupied:                                                      

       1A1   -20.569000     2A1    -1.320609     1B2    -0.678724  
       3A1    -0.563930     1B1    -0.495004  

    Virtual:                                                              

       4A1     0.202466     2B2     0.292719     3B2     0.981164  
       5A1     1.056318     6A1     1.129179     2B1     1.168639  
       4B2     1.294985     7A1     1.413596     1A2     1.802875  
       8A1     1.806916     3B1     1.918871     9A1     2.513249  
       5B2     2.537822     6B2     2.713577     2A2     2.921065  
       4B1     2.947486    10A1     3.291755    11A1     3.620730  
       7B2     3.874917    12A1     4.077740  

    Final Occupation by Irrep:
             A1    A2    B1    B2 
    DOCC [     3,    0,    1,    1 ]
    NA   [     3,    0,    1,    1 ]
    NB   [     3,    0,    1,    1 ]

  @RHF Final Energy:   -76.01729655609171

   => Energetics <=

    Nuclear Repulsion Energy =              8.8046866532470247
    One-Electron Energy =                -122.3894315645720070
    Two-Electron Energy =                  37.5674483552332674
    Total Energy =                        -76.0172965560917078

Computation Completed


Properties will be evaluated at   0.000000,   0.000000,   0.000000 [a0]

Properties computed using the SCF density matrix


 Multipole Moments:

 ------------------------------------------------------------------------------------
     Multipole            Electronic (a.u.)      Nuclear  (a.u.)        Total (a.u.)
 ------------------------------------------------------------------------------------

 L = 1.  Multiply by 2.5417464519 to convert [e a0] to [Debye]
 Dipole X            :          0.0000000            0.0000000            0.0000000
 Dipole Y            :          0.0000000            0.0000000            0.0000000
 Dipole Z            :         -0.1532271            1.0350805            0.8818534
 Magnitude           :                                                    0.8818534

 ------------------------------------------------------------------------------------

*** tstop() called on macbook-pro-158.wireless.emory.edu at Wed Nov  8 16:34:36 2023
Module time:
	user time   =       0.44 seconds =       0.01 minutes
	system time =       1.47 seconds =       0.02 minutes
	total time  =          0 seconds =       0.00 minutes
Total time:
	user time   =       0.44 seconds =       0.01 minutes
	system time =       1.47 seconds =       0.02 minutes
	total time  =          0 seconds =       0.00 minutes
    SCF energy............................................................................PASSED

Scratch directory: /tmp/

  Forte
  ----------------------------------------------------------------------------
  A suite of quantum chemistry methods for strongly correlated electrons

    git branch: strgas - git commit: 9d1877e9

  Developed by:
    Francesco A. Evangelista, Chenyang Li, Kevin P. Hannon,
    Jeffrey B. Schriber, Tianyuan Zhang, Chenxi Cai,
    Nan He, Nicholas Stair, Shuhe Wang, Renke Huang
  ----------------------------------------------------------------------------

  Size of Determinant class: 128 bits

  Preparing forte objects from a Psi4 Wavefunction object
  Read options for space GAS1
  Read options for space GAS2
  Read options for space GAS1
  Read options for space GAS2

  ==> MO Space Information <==

  -------------------------------------------------
                       A1    A2    B1    B2   Sum
  -------------------------------------------------
    FROZEN_DOCC         0     0     0     0     0
    RESTRICTED_DOCC     0     0     0     0     0
    GAS1                1     0     0     0     1
    GAS2                3     0     1     2     6
    GAS3                0     0     0     0     0
    GAS4                0     0     0     0     0
    GAS5                0     0     0     0     0
    GAS6                0     0     0     0     0
    RESTRICTED_UOCC     8     2     3     5    18
    FROZEN_UOCC         0     0     0     0     0
    Total              12     2     4     7    25
  -------------------------------------------------   => Loading Basis Set <=

    Name: 6-31G**
    Role: ORBITAL
    Keyword: BASIS
    atoms 1   entry O          line   149 file /Users/fevange/Source/psi4/objdir-Release/stage/share/psi4/basis/6-31gss.gbs 
    atoms 2-3 entry H          line    44 file /Users/fevange/Source/psi4/objdir-Release/stage/share/psi4/basis/6-31gss.gbs 


  Checking orbital orthonormality against current geometry ... Done (OK)

   => Loading Basis Set <=

    Name: STO-3G
    Role: ORBITAL
    Keyword: MINAO_BASIS
    atoms 1   entry O          line    81 file /Users/fevange/Source/psi4/objdir-Release/stage/share/psi4/basis/sto-3g.gbs 
    atoms 2-3 entry H          line    19 file /Users/fevange/Source/psi4/objdir-Release/stage/share/psi4/basis/sto-3g.gbs 


  Forte will use psi4 integrals

  ==> Primary Basis Set Summary <==

  Basis Set: 6-31G**
    Blend: 6-31G**
    Number of shells: 12
    Number of basis functions: 25
    Number of Cartesian functions: 25
    Spherical Harmonics?: false
    Max angular momentum: 2


  JK created using conventional PK integrals
  Using in-core PK algorithm.
   Calculation information:
      Number of atoms:                   3
      Number of AO shells:              12
      Number of primitives:             25
      Number of atomic orbitals:        25
      Number of basis functions:        25

      Integral cutoff                 1.00e-12
      Number of threads:                 1

  Performing in-core PK
  Using 105950 doubles for integral storage.
  We computed 3081 shell quartets total.
  Whereas there are 3081 unique shell quartets.

  ==> DiskJK: Disk-Based J/K Matrices <==

    J tasked:                  Yes
    K tasked:                  Yes
    wK tasked:                  No
    Memory [MiB]:              400
    Schwarz Cutoff:          1E-12

    OpenMP threads:              1



  ==> Integral Transformation <==

  Number of molecular orbitals:                         25
  Number of correlated molecular orbitals:              25
  Number of frozen occupied orbitals:                    0
  Number of frozen unoccupied orbitals:                  0
  Two-electron integral type:                 Conventional


  Computing Conventional Integrals	Presorting SO-basis two-electron integrals.
	Sorting File: SO Ints (nn|nn) nbuckets = 1
	Constructing frozen core operators
	Starting first half-transformation.
	Sorting half-transformed integrals.
	First half integral transformation complete.
	Starting second half-transformation.
	Two-electron integral transformation complete.

  Integral transformation done. 0.00918133 s
  Reading the two-electron integrals from disk
  Size of two-electron integrals:   0.008731 GB
  Timing for conventional integral transformation:            0.027 s.
  Timing for freezing core and virtual orbitals:              0.000 s.
  Timing for computing conventional integrals:                0.027 s.

  ==> Summary of Active Space Solver Input <==

    Irrep.  Multi.(2ms)      N
    --------------------------
       A1      1  (  0)      1
       B1      1  (  0)      1
    --------------------------
    N: number of roots
    ms: spin z component
    Total number of roots:   2
    --------------------------


  ==> Number of Electrons in GAS <==

    GAS  MAX  MIN
    -------------
      1    2    0
      2   10    0
    -------------

  ==> Possible Electron Occupations in GAS <==

    Config.  1_A  1_B  2_A  2_B  Alfa Conf.  Beta Conf.
    ---------------------------
         1     1    1    4    4    0    0
         2     1    0    4    5    0    1
         3     0    1    5    4    1    0
         4     0    0    5    5    1    1

  ==> String Lists <==

    number of alpha electrons                              5
    number of beta electrons                               5
    number of alpha strings                               21
    number of beta strings                                21
    timing for strings                                 0.000 s
    timing for NN strings                              0.000 s
    timing for VO strings                              0.000 s
    timing for OO strings                              0.000 s
    timing for VVOO strings                            0.000 s
    timing for 1-hole strings                          0.000 s
    timing for 2-hole strings                          0.000 s
    timing for 3-hole strings                          0.000 s
    total timing                                       0.000 s


  ==> GASCI Solver <==

    Spin adapt                                         FALSE
    Number of determinants                               133
    Symmetry                                               0
    Multiplicity                                           1
    Number of roots                                        1
    Target root                                            0

  Allocating memory for the Hamiltonian algorithm. Size: 2 x 6 x 6.   Memory: 0.000001 GB
  Initial guess space is incomplete.
  Adding 1 determinant(s).

  ==> Initial Guess <==

  Initial guess determinants:         51

  Classification of the initial guess solutions

  Number   2S+1   Selected
  ------------------------
    27       1       *
    21       3        
     3       5        
  ------------------------

    Spin    Root           Energy        <S^2>    Status
  -------------------------------------------------------
   singlet    0      -84.834586908546  -0.000000  added
  -------------------------------------------------------

  ==> Davidson-Liu Solver <==

    Energy convergence threshold                   1.000e-10
    Residual convergence threshold                 1.000e-10
    Schmidt orthogonality threshold                1.000e-12
    Schmidt discard threshold                      1.000e-07
    Size of the space                                    133
    Number of roots                                        1
    Maximum number of iterations                         100
    Collapse subspace size                                 2
    Maximum subspace size                                 10
    Print level                                            1


  Davidson-Liu solver: adding 1 guess vectors
  Iteration     Average Energy            max(∆E)            max(Residual)  Vectors
  ---------------------------------------------------------------------------------
       0      -76.029900255299       76.029900255299        0.021751815816      1
       1      -76.029944647856        0.000044392557        0.002017138410      2
       2      -76.029945651484        0.000001003628        0.000542330237      3
       3      -76.029945784077        0.000000132593        0.000229504979      4
       4      -76.029945793466        0.000000009389        0.000032892673      5
       5      -76.029945793725        0.000000000259        0.000005704627      6
       6      -76.029945793736        0.000000000011        0.000001317778      7
       7      -76.029945793736        0.000000000000        0.000000209721      8
       8      -76.029945793736        0.000000000000        0.000000038931      9
       9      -76.029945793736        0.000000000000        0.000000007774     10
      10      -76.029945793736        0.000000000000        0.000000001324      3
      11      -76.029945793736        0.000000000000        0.000000000390      4
      12      -76.029945793736        0.000000000000        0.000000000094      5
  ---------------------------------------------------------------------------------

  ==> Root No. 0 <==

    2220 2 20     -0.99554992

    Total Energy:     -76.029945793736, <S^2>: -0.000000
    Time for GASCI:       0.003032791000

  ==> Number of Electrons in GAS <==

    GAS  MAX  MIN
    -------------
      1    1    0
      2   10    0
    -------------

  ==> Possible Electron Occupations in GAS <==

    Config.  1_A  1_B  2_A  2_B  Alfa Conf.  Beta Conf.
    ---------------------------
         1     1    0    4    5    0    0
         2     0    1    5    4    1    1
         3     0    0    5    5    1    0

  ==> String Lists <==

    number of alpha electrons                              5
    number of beta electrons                               5
    number of alpha strings                               21
    number of beta strings                                21
    timing for strings                                 0.000 s
    timing for NN strings                              0.000 s
    timing for VO strings                              0.000 s
    timing for OO strings                              0.000 s
    timing for VVOO strings                            0.000 s
    timing for 1-hole strings                          0.000 s
    timing for 2-hole strings                          0.000 s
    timing for 3-hole strings                          0.000 s
    total timing                                       0.000 s


  ==> GASCI Solver <==

    Spin adapt                                         FALSE
    Number of determinants                                40
    Symmetry                                               2
    Multiplicity                                           1
    Number of roots                                        1
    Target root                                            0


  ==> Initial Guess <==

  Initial guess determinants:         40

  Classification of the initial guess solutions

  Number   2S+1   Selected
  ------------------------
    16       1       *
    20       3        
     4       5        
  ------------------------

    Spin    Root           Energy        <S^2>    Status
  -------------------------------------------------------
   triplet    0      -63.891145086919  +2.000000  removed
   singlet    0      -63.830815324846  -0.000000  added
  -------------------------------------------------------

  ==> Davidson-Liu Solver <==

    Energy convergence threshold                   1.000e-10
    Residual convergence threshold                 1.000e-10
    Schmidt orthogonality threshold                1.000e-12
    Schmidt discard threshold                      1.000e-07
    Size of the space                                     40
    Number of roots                                        1
    Maximum number of iterations                         100
    Collapse subspace size                                 2
    Maximum subspace size                                 10
    Print level                                            1


  Davidson-Liu solver: adding 1 guess vectors
  Iteration     Average Energy            max(∆E)            max(Residual)  Vectors
  ---------------------------------------------------------------------------------
       0      -55.026128671599       55.026128671599        0.000000000000      1
       1      -55.026128671599        0.000000000000        0.000000000000      2
  ---------------------------------------------------------------------------------

  ==> Root No. 0 <==

    b222 a 20     -0.57909814
    a222 b 20     -0.57909814
    a220 b 22     -0.30118962
    b220 a 22     -0.30118962
    a222 b ba     -0.17160275
    b222 a ab     -0.17160275
    a222 b ab     -0.17022639
    b222 a ba     -0.17022639

    Total Energy:     -55.026128671599, <S^2>: 0.000000
    Time for GASCI:       0.001161042000

  ==> Energy Summary <==

    Multi.(2ms)  Irrep.  No.               Energy      <S^2>
    --------------------------------------------------------
       1  (  0)    A1     0      -76.029945793736  -0.000000
    --------------------------------------------------------
       1  (  0)    B1     0      -55.026128671599   0.000000
    --------------------------------------------------------

  ==> Dipole Moments [e a0] (Nuclear + Electronic) for Singlet (Ms = 0) A1 <==


  ==> Computing RDMs <0 Singlet (Ms = 0) A1| ... |0 Singlet (Ms = 0) A1> <==

    Timing for 1-RDM: 0.000 s
       State           DM_X           DM_Y           DM_Z           |DM|
    --------------------------------------------------------------------
         0A1     0.00000000     0.00000000     0.82078282     0.82078282
    --------------------------------------------------------------------
     Nuclear     0.00000000     0.00000000     1.03508051     1.03508051
    --------------------------------------------------------------------

  ==> Dipole Moments [e a0] (Nuclear + Electronic) for Singlet (Ms = 0) B1 <==


  ==> Computing RDMs <0 Singlet (Ms = 0) B1| ... |0 Singlet (Ms = 0) B1> <==

    Timing for 1-RDM: 0.000 s
       State           DM_X           DM_Y           DM_Z           |DM|
    --------------------------------------------------------------------
         0B1     0.00000000    -0.00000000    -1.59791946     1.59791946
    --------------------------------------------------------------------
     Nuclear     0.00000000     0.00000000     1.03508051     1.03508051
    --------------------------------------------------------------------

  ==> Quadrupole Moments [e a0^2] (Nuclear + Electronic) for Singlet (Ms = 0) A1 <==


  ==> Computing RDMs <0 Singlet (Ms = 0) A1| ... |0 Singlet (Ms = 0) A1> <==

    Timing for 1-RDM: 0.000 s
       State          QM_XX          QM_XY          QM_XZ          QM_YY          QM_YZ          QM_ZZ
    --------------------------------------------------------------------------------------------------
         0A1    -5.44267552     0.00000000     0.00000000    -3.23081135     0.00000000    -4.33178388
    --------------------------------------------------------------------------------------------------
     Nuclear     0.00000000     0.00000000     0.00000000     4.38045134     0.00000000     2.31648182
    --------------------------------------------------------------------------------------------------

  ==> Quadrupole Moments [e a0^2] (Nuclear + Electronic) for Singlet (Ms = 0) B1 <==


  ==> Computing RDMs <0 Singlet (Ms = 0) B1| ... |0 Singlet (Ms = 0) B1> <==

    Timing for 1-RDM: 0.000 s
       State          QM_XX          QM_XY          QM_XZ          QM_YY          QM_YZ          QM_ZZ
    --------------------------------------------------------------------------------------------------
         0B1    -7.38291364     0.00000000     0.00000000   -12.47859248    -0.00000000   -11.01681402
    --------------------------------------------------------------------------------------------------
     Nuclear     0.00000000     0.00000000     0.00000000     4.38045134     0.00000000     2.31648182
    --------------------------------------------------------------------------------------------------

  ==> Transition Dipole Moments [e a0] for Singlet (Ms = 0) A1 -> Singlet (Ms = 0) B1 <==

       Bra    Ket           DM_X           DM_Y           DM_Z           |DM|
    -------------------------------------------------------------------------
       0A1    0B1    -0.00046855     0.00000000     0.00000000     0.00046855
    -------------------------------------------------------------------------

  ==> Transition Reduced Density Matrix Analysis for Singlet (Ms = 0) A1 -> Singlet (Ms = 0) B1 <==

    Transition from State  0A1  to State  0B1 :
      Component  1 with value of W = 0.0099
        Init. Orbital: 1.0000 Orb.  0
        Final Orbital: 1.0000 Orb.  4


  ==> Transitions for Singlet (Ms = 0) A1 -> Singlet (Ms = 0) B1 <==

     Init.  Final  Energy [a.u.]    Energy [eV]    Osc. [a.u.]
    ----------------------------------------------------------
       0A1    0B1    21.00381712   571.54297560     0.00000307
    ----------------------------------------------------------

  Time to prepare integrals:        0.035 seconds
  Time to run job          :        0.005 seconds
  Total                    :        0.040 seconds
    Averaged ACI energy...................................................................PASSED
    Oscillator strength singlet 0A1 -> 0B1................................................PASSED
    S_MAX singlet 0A1 -> 0B1..............................................................PASSED

    Psi4 stopped on: Wednesday, 08 November 2023 04:34PM
    Psi4 wall time for execution: 0:00:00.36

*** Psi4 exiting successfully. Buy a developer a beer!
