
    -----------------------------------------------------------------------
          Psi4: An Open-Source Ab Initio Electronic Structure Package
                               Psi4 1.2a1.dev263 

                         Git: Rev {master} ae466b2 


    R. M. Parrish, L. A. Burns, D. G. A. Smith, A. C. Simmonett,
    A. E. DePrince III, E. G. Hohenstein, U. Bozkaya, A. Yu. Sokolov,
    R. Di Remigio, R. M. Richard, J. F. Gonthier, A. M. James,
    H. R. McAlexander, A. Kumar, M. Saitow, X. Wang, B. P. Pritchard,
    P. Verma, H. F. Schaefer III, K. Patkowski, R. A. King, E. F. Valeev,
    F. A. Evangelista, J. M. Turney, T. D. Crawford, and C. D. Sherrill,
    J. Chem. Theory Comput. in press (2017).
    (doi: 10.1021/acs.jctc.7b00174)

    -----------------------------------------------------------------------


    Psi4 started on: Tuesday, 06 June 2017 11:12PM

    Process ID:  89129
    PSIDATADIR: /Users/jeffschriber/src/psi4_debug_install/share/psi4
    Memory:     500.0 MiB
    Threads:    1
    
  ==> Input File <==

--------------------------------------------------------------------------
#! Generated using commit GITCOMMIT
#! Perform aci on benzyne 

import forte

memory 500 mb

refscf    = -229.20378006852584 
refaci    = -229.359450812283
refacipt2 = -229.360444943286

molecule mbenzyne{
  0 1
   C   0.0000000000  -2.5451795941   0.0000000000
   C   0.0000000000   2.5451795941   0.0000000000
   C  -2.2828001669  -1.3508352528   0.0000000000
   C   2.2828001669  -1.3508352528   0.0000000000
   C   2.2828001669   1.3508352528   0.0000000000
   C  -2.2828001669   1.3508352528   0.0000000000
   H  -4.0782187459  -2.3208602146   0.0000000000
   H   4.0782187459  -2.3208602146   0.0000000000
   H   4.0782187459   2.3208602146   0.0000000000
   H  -4.0782187459   2.3208602146   0.0000000000

  units bohr
}

set globals{
   basis                   DZ
   df_basis_mp2            cc-pvdz-ri
   reference               uhf 
   scf_type                pk
   d_convergence           10
   e_convergence           12
   guess gwh
}

set forte {
  multiplicity 1
  frozen_docc            [2,1,0,0,0,0,2,1]
  restricted_docc	  [3,2,0,0,0,0,2,3]
  active                 [1,0,1,2,1,2,1,0]
  root_sym               0
  aci_nroot                  1
  job_type               aci
  sigma	                  0.001
  aci_select_type            aimed_energy	 
  aci_spin_projection        1
  aci_enforce_spin_complete  true
  aci_add_aimed_degenerate false
  aci_project_out_spin_contaminants false
  diag_algorithm full
  aci_quiet_mode true
}

scf = energy('scf')
compare_values(refscf, scf,10,"SCF Energy")

energy('forte')
compare_values(refaci, get_variable("ACI ENERGY"),10,"ACI energy")
compare_values(refacipt2, get_variable("ACI+PT2 ENERGY"),8,"ACI+PT2 energy")


--------------------------------------------------------------------------
/Users/jeffschriber/src/forte/forte.so loaded.

  Memory set to 476.837 MiB by Python driver.

*** tstart() called on Jeffs-MBP-2.attlocal.net
*** at Tue Jun  6 23:12:58 2017

   => Loading Basis Set <=

    Name: DZ
    Role: ORBITAL
    Keyword: BASIS
    atoms 1-6  entry C          line    63 file /Users/jeffschriber/src/psi4_debug_install/share/psi4/basis/dz.gbs 
    atoms 7-10 entry H          line    12 file /Users/jeffschriber/src/psi4_debug_install/share/psi4/basis/dz.gbs 


         ---------------------------------------------------------
                                   SCF
            by Justin Turney, Rob Parrish, Andy Simmonett
                             and Daniel Smith
                              UHF Reference
                        1 Threads,    476 MiB Core
         ---------------------------------------------------------

  ==> Geometry <==

    Molecular point group: d2h
    Full point group: D2h

    Geometry (in Bohr), charge = 0, multiplicity = 1:

       Center              X                  Y                   Z               Mass       
    ------------   -----------------  -----------------  -----------------  -----------------
           C          0.000000000000    -2.545179594100     0.000000000000    12.000000000000
           C         -0.000000000000     2.545179594100     0.000000000000    12.000000000000
           C         -2.282800166900    -1.350835252800     0.000000000000    12.000000000000
           C          2.282800166900    -1.350835252800     0.000000000000    12.000000000000
           C          2.282800166900     1.350835252800     0.000000000000    12.000000000000
           C         -2.282800166900     1.350835252800     0.000000000000    12.000000000000
           H         -4.078218745900    -2.320860214600     0.000000000000     1.007825032070
           H          4.078218745900    -2.320860214600     0.000000000000     1.007825032070
           H          4.078218745900     2.320860214600     0.000000000000     1.007825032070
           H         -4.078218745900     2.320860214600     0.000000000000     1.007825032070

  Running in d2h symmetry.

  Rotational constants: A =      0.22736  B =      0.18979  C =      0.10344 [cm^-1]
  Rotational constants: A =   6816.18331  B =   5689.87778  C =   3101.15629 [MHz]
  Nuclear repulsion =  186.022640325180561

  Charge       = 0
  Multiplicity = 1
  Electrons    = 40
  Nalpha       = 20
  Nbeta        = 20

  ==> Algorithm <==

  SCF Algorithm Type is PK.
  DIIS enabled.
  MOM disabled.
  Fractional occupation disabled.
  Guess Type is GWH.
  Energy threshold   = 1.00e-12
  Density threshold  = 1.00e-10
  Integral threshold = 0.00e+00

  ==> Primary Basis <==

  Basis Set: DZ
    Blend: DZ
    Number of shells: 44
    Number of basis function: 68
    Number of Cartesian functions: 68
    Spherical Harmonics?: false
    Max angular momentum: 1

  ==> Pre-Iterations <==

   -------------------------------------------------------
    Irrep   Nso     Nmo     Nalpha   Nbeta   Ndocc  Nsocc
   -------------------------------------------------------
     Ag        16      16       0       0       0       0
     B1g       12      12       0       0       0       0
     B2g        2       2       0       0       0       0
     B3g        4       4       0       0       0       0
     Au         2       2       0       0       0       0
     B1u        4       4       0       0       0       0
     B2u       16      16       0       0       0       0
     B3u       12      12       0       0       0       0
   -------------------------------------------------------
    Total      68      68      20      20      20       0
   -------------------------------------------------------

  ==> Integral Setup <==

  Using in-core PK algorithm.
   Calculation information:
      Number of atoms:                  10
      Number of AO shells:              44
      Number of primitives:            100
      Number of atomic orbitals:        68
      Number of basis functions:        68

      Integral cutoff                 1.00e-12
      Number of threads:                 1

  Performing in-core PK
  Using 5506062 doubles for integral storage.
  We computed 444486 shell quartets total.
  Whereas there are 490545 unique shell quartets.
  ==> DiskJK: Disk-Based J/K Matrices <==

    J tasked:                  Yes
    K tasked:                  Yes
    wK tasked:                  No
    Memory (MB):               357
    Schwarz Cutoff:          1E-12

    OpenMP threads:              1
  Minimum eigenvalue in the overlap matrix is 1.2357549023E-03.
  Using Symmetric Orthogonalization.

  SCF Guess: Generalized Wolfsberg-Helmholtz.

  ==> Iterations <==

                        Total Energy        Delta E     RMS |[F,P]|

    Occupation by irrep:
             Ag   B1g   B2g   B3g    Au   B1u   B2u   B3u 
    DOCC [     5,    3,    1,    1,    0,    1,    5,    4 ]
    SOCC [     0,    0,    0,    0,    0,    0,    0,    0 ]

   @UHF iter   1:  -222.73886988259537   -2.22739e+02   1.51240e-01 
   @UHF iter   2:  -228.94916670333731   -6.21030e+00   1.96397e-02 DIIS
   @UHF iter   3:  -229.17461926724087   -2.25453e-01   7.45007e-03 DIIS
   @UHF iter   4:  -229.20266252706216   -2.80433e-02   1.25838e-03 DIIS
   @UHF iter   5:  -229.20361131103815   -9.48784e-04   4.99976e-04 DIIS
   @UHF iter   6:  -229.20376929432925   -1.57983e-04   9.56964e-05 DIIS
   @UHF iter   7:  -229.20377943149174   -1.01372e-05   1.83472e-05 DIIS
   @UHF iter   8:  -229.20378004040930   -6.08918e-07   3.76286e-06 DIIS
   @UHF iter   9:  -229.20378006754032   -2.71310e-08   7.97538e-07 DIIS
   @UHF iter  10:  -229.20378006850024   -9.59915e-10   1.59077e-07 DIIS
   @UHF iter  11:  -229.20378006852525   -2.50111e-11   1.89072e-08 DIIS
   @UHF iter  12:  -229.20378006852559   -3.41061e-13   2.04794e-09 DIIS
   @UHF iter  13:  -229.20378006852548    1.13687e-13   3.05062e-10 DIIS
   @UHF iter  14:  -229.20378006852536    1.13687e-13   5.38375e-11 DIIS

  ==> Post-Iterations <==

   @Spin Contamination Metric:   1.421085472E-14
   @S^2 Expected:                0.000000000E+00
   @S^2 Observed:                1.421085472E-14
   @S   Expected:                0.000000000E+00
   @S   Observed:                0.000000000E+00

    Orbital Energies (a.u.)
    -----------------------

    Alpha Occupied:                                                       

       1Ag   -11.287300     1B2u  -11.286763     1B3u  -11.286743  
       1B1g  -11.285798     2Ag   -11.285074     2B2u  -11.284780  
       3Ag    -1.192405     2B3u   -1.051895     3B2u   -1.029334  
       2B1g   -0.858677     4Ag    -0.815933     5Ag    -0.670466  
       4B2u   -0.660452     3B3u   -0.656412     4B3u   -0.600374  
       3B1g   -0.544475     1B1u   -0.533875     1B2g   -0.366811  
       1B3g   -0.363792     5B2u   -0.275375  

    Alpha Virtual:                                                        

       6Ag    -0.043625     1Au     0.091850     2B1u    0.135833  
       4B1g    0.279898     7Ag     0.280901     5B3u    0.305922  
       6B2u    0.320966     2B3g    0.321911     8Ag     0.334606  
       7B2u    0.368408     6B3u    0.394878     7B3u    0.429263  
       3B1u    0.456784     5B1g    0.460077     8B2u    0.471115  
       2B2g    0.516968     3B3g    0.518047     6B1g    0.524938  
       9Ag     0.542824    10Ag     0.573895     2Au     0.601354  
       4B1u    0.622181     9B2u    0.631390    11Ag     0.675079  
       7B1g    0.685754     8B3u    0.693033     4B3g    0.700054  
      10B2u    0.724636    12Ag     0.828521     8B1g    0.838317  
       9B3u    0.926991    11B2u    0.983757     9B1g    1.084158  
      10B1g    1.167689    12B2u    1.174943    13Ag     1.182021  
      10B3u    1.242380    13B2u    1.248216    14Ag     1.436682  
      11B3u    1.446256    11B1g    1.565632    14B2u    1.689435  
      15Ag    23.619164    15B2u   23.860114    12B3u   23.920263  
      12B1g   24.002140    16Ag    24.028964    16B2u   24.159455  

    Beta Occupied:                                                        

       1Ag   -11.287300     1B2u  -11.286763     1B3u  -11.286743  
       1B1g  -11.285798     2Ag   -11.285074     2B2u  -11.284780  
       3Ag    -1.192405     2B3u   -1.051895     3B2u   -1.029334  
       2B1g   -0.858677     4Ag    -0.815933     5Ag    -0.670466  
       4B2u   -0.660452     3B3u   -0.656412     4B3u   -0.600374  
       3B1g   -0.544475     1B1u   -0.533875     1B2g   -0.366811  
       1B3g   -0.363792     5B2u   -0.275375  

    Beta Virtual:                                                         

       6Ag    -0.043625     1Au     0.091850     2B1u    0.135833  
       4B1g    0.279898     7Ag     0.280901     5B3u    0.305922  
       6B2u    0.320966     2B3g    0.321911     8Ag     0.334606  
       7B2u    0.368408     6B3u    0.394878     7B3u    0.429263  
       3B1u    0.456784     5B1g    0.460077     8B2u    0.471115  
       2B2g    0.516968     3B3g    0.518047     6B1g    0.524938  
       9Ag     0.542824    10Ag     0.573895     2Au     0.601354  
       4B1u    0.622181     9B2u    0.631390    11Ag     0.675079  
       7B1g    0.685754     8B3u    0.693033     4B3g    0.700054  
      10B2u    0.724636    12Ag     0.828521     8B1g    0.838317  
       9B3u    0.926991    11B2u    0.983757     9B1g    1.084158  
      10B1g    1.167689    12B2u    1.174943    13Ag     1.182021  
      10B3u    1.242380    13B2u    1.248216    14Ag     1.436682  
      11B3u    1.446256    11B1g    1.565632    14B2u    1.689435  
      15Ag    23.619164    15B2u   23.860114    12B3u   23.920263  
      12B1g   24.002140    16Ag    24.028964    16B2u   24.159455  

    Final Occupation by Irrep:
             Ag   B1g   B2g   B3g    Au   B1u   B2u   B3u 
    DOCC [     5,    3,    1,    1,    0,    1,    5,    4 ]
    SOCC [     0,    0,    0,    0,    0,    0,    0,    0 ]

  Energy converged.

  @UHF Final Energy:  -229.20378006852536

   => Energetics <=

    Nuclear Repulsion Energy =            186.0226403251805607
    One-Electron Energy =                -675.7793704486332445
    Two-Electron Energy =                 260.5529500549273507
    Total Energy =                       -229.2037800685253615


  UHF NO Occupations:
  HONO-2 :    5 Ag 2.0000000
  HONO-1 :    5B2u 2.0000000
  HONO-0 :    4B3u 2.0000000
  LUNO+0 :    6B2u 0.0000000
  LUNO+1 :    5B3u 0.0000000
  LUNO+2 :    6 Ag 0.0000000
  LUNO+3 :    7B2u 0.0000000



Properties will be evaluated at   0.000000,   0.000000,   0.000000 Bohr

Properties computed using the SCF density matrix

  Nuclear Dipole Moment: (a.u.)
     X:     0.0000      Y:     0.0000      Z:     0.0000

  Electronic Dipole Moment: (a.u.)
     X:     0.0000      Y:     0.0000      Z:     0.0000

  Dipole Moment: (a.u.)
     X:     0.0000      Y:     0.0000      Z:     0.0000     Total:     0.0000

  Dipole Moment: (Debye)
     X:     0.0000      Y:     0.0000      Z:     0.0000     Total:     0.0000


*** tstop() called on Jeffs-MBP-2.attlocal.net at Tue Jun  6 23:13:02 2017
Module time:
	user time   =       3.84 seconds =       0.06 minutes
	system time =       0.07 seconds =       0.00 minutes
	total time  =          4 seconds =       0.07 minutes
Total time:
	user time   =       3.84 seconds =       0.06 minutes
	system time =       0.07 seconds =       0.00 minutes
	total time  =          4 seconds =       0.07 minutes
	SCF Energy........................................................PASSED

*** tstart() called on Jeffs-MBP-2.attlocal.net
*** at Tue Jun  6 23:13:02 2017

   => Loading Basis Set <=

    Name: DZ
    Role: ORBITAL
    Keyword: BASIS
    atoms 1-6  entry C          line    63 file /Users/jeffschriber/src/psi4_debug_install/share/psi4/basis/dz.gbs 
    atoms 7-10 entry H          line    12 file /Users/jeffschriber/src/psi4_debug_install/share/psi4/basis/dz.gbs 


         ---------------------------------------------------------
                                   SCF
            by Justin Turney, Rob Parrish, Andy Simmonett
                             and Daniel Smith
                              UHF Reference
                        1 Threads,    476 MiB Core
         ---------------------------------------------------------

  ==> Geometry <==

    Molecular point group: d2h
    Full point group: D2h

    Geometry (in Bohr), charge = 0, multiplicity = 1:

       Center              X                  Y                   Z               Mass       
    ------------   -----------------  -----------------  -----------------  -----------------
           C          0.000000000000    -2.545179594100     0.000000000000    12.000000000000
           C         -0.000000000000     2.545179594100     0.000000000000    12.000000000000
           C         -2.282800166900    -1.350835252800     0.000000000000    12.000000000000
           C          2.282800166900    -1.350835252800     0.000000000000    12.000000000000
           C          2.282800166900     1.350835252800     0.000000000000    12.000000000000
           C         -2.282800166900     1.350835252800     0.000000000000    12.000000000000
           H         -4.078218745900    -2.320860214600     0.000000000000     1.007825032070
           H          4.078218745900    -2.320860214600     0.000000000000     1.007825032070
           H          4.078218745900     2.320860214600     0.000000000000     1.007825032070
           H         -4.078218745900     2.320860214600     0.000000000000     1.007825032070

  Running in d2h symmetry.

  Rotational constants: A =      0.22736  B =      0.18979  C =      0.10344 [cm^-1]
  Rotational constants: A =   6816.18331  B =   5689.87778  C =   3101.15629 [MHz]
  Nuclear repulsion =  186.022640325180561

  Charge       = 0
  Multiplicity = 1
  Electrons    = 40
  Nalpha       = 20
  Nbeta        = 20

  ==> Algorithm <==

  SCF Algorithm Type is PK.
  DIIS enabled.
  MOM disabled.
  Fractional occupation disabled.
  Guess Type is GWH.
  Energy threshold   = 1.00e-12
  Density threshold  = 1.00e-10
  Integral threshold = 0.00e+00

  ==> Primary Basis <==

  Basis Set: DZ
    Blend: DZ
    Number of shells: 44
    Number of basis function: 68
    Number of Cartesian functions: 68
    Spherical Harmonics?: false
    Max angular momentum: 1

  ==> Pre-Iterations <==

   -------------------------------------------------------
    Irrep   Nso     Nmo     Nalpha   Nbeta   Ndocc  Nsocc
   -------------------------------------------------------
     Ag        16      16       0       0       0       0
     B1g       12      12       0       0       0       0
     B2g        2       2       0       0       0       0
     B3g        4       4       0       0       0       0
     Au         2       2       0       0       0       0
     B1u        4       4       0       0       0       0
     B2u       16      16       0       0       0       0
     B3u       12      12       0       0       0       0
   -------------------------------------------------------
    Total      68      68      20      20      20       0
   -------------------------------------------------------

  ==> Integral Setup <==

  Using in-core PK algorithm.
   Calculation information:
      Number of atoms:                  10
      Number of AO shells:              44
      Number of primitives:            100
      Number of atomic orbitals:        68
      Number of basis functions:        68

      Integral cutoff                 1.00e-12
      Number of threads:                 1

  Performing in-core PK
  Using 5506062 doubles for integral storage.
  We computed 444486 shell quartets total.
  Whereas there are 490545 unique shell quartets.
  ==> DiskJK: Disk-Based J/K Matrices <==

    J tasked:                  Yes
    K tasked:                  Yes
    wK tasked:                  No
    Memory (MB):               357
    Schwarz Cutoff:          1E-12

    OpenMP threads:              1
  Minimum eigenvalue in the overlap matrix is 1.2357549023E-03.
  Using Symmetric Orthogonalization.

  SCF Guess: Generalized Wolfsberg-Helmholtz.

  ==> Iterations <==

                        Total Energy        Delta E     RMS |[F,P]|

    Occupation by irrep:
             Ag   B1g   B2g   B3g    Au   B1u   B2u   B3u 
    DOCC [     5,    3,    1,    1,    0,    1,    5,    4 ]
    SOCC [     0,    0,    0,    0,    0,    0,    0,    0 ]

   @UHF iter   1:  -222.73886988259537   -2.22739e+02   1.51240e-01 
   @UHF iter   2:  -228.94916670333745   -6.21030e+00   1.96397e-02 DIIS
   @UHF iter   3:  -229.17461926724087   -2.25453e-01   7.45007e-03 DIIS
   @UHF iter   4:  -229.20266252706188   -2.80433e-02   1.25838e-03 DIIS
   @UHF iter   5:  -229.20361131103823   -9.48784e-04   4.99976e-04 DIIS
   @UHF iter   6:  -229.20376929432928   -1.57983e-04   9.56964e-05 DIIS
   @UHF iter   7:  -229.20377943149154   -1.01372e-05   1.83472e-05 DIIS
   @UHF iter   8:  -229.20378004040938   -6.08918e-07   3.76286e-06 DIIS
   @UHF iter   9:  -229.20378006754052   -2.71311e-08   7.97538e-07 DIIS
   @UHF iter  10:  -229.20378006850015   -9.59631e-10   1.59077e-07 DIIS
   @UHF iter  11:  -229.20378006852519   -2.50395e-11   1.89072e-08 DIIS
   @UHF iter  12:  -229.20378006852565   -4.54747e-13   2.04794e-09 DIIS
   @UHF iter  13:  -229.20378006852545    1.98952e-13   3.05061e-10 DIIS
   @UHF iter  14:  -229.20378006852573   -2.84217e-13   5.38375e-11 DIIS

  ==> Post-Iterations <==

   @Spin Contamination Metric:   1.065814104E-14
   @S^2 Expected:                0.000000000E+00
   @S^2 Observed:                1.065814104E-14
   @S   Expected:                0.000000000E+00
   @S   Observed:                0.000000000E+00

    Orbital Energies (a.u.)
    -----------------------

    Alpha Occupied:                                                       

       1Ag   -11.287300     1B2u  -11.286763     1B3u  -11.286743  
       1B1g  -11.285798     2Ag   -11.285074     2B2u  -11.284780  
       3Ag    -1.192405     2B3u   -1.051895     3B2u   -1.029334  
       2B1g   -0.858677     4Ag    -0.815933     5Ag    -0.670466  
       4B2u   -0.660452     3B3u   -0.656412     4B3u   -0.600374  
       3B1g   -0.544475     1B1u   -0.533875     1B2g   -0.366811  
       1B3g   -0.363792     5B2u   -0.275375  

    Alpha Virtual:                                                        

       6Ag    -0.043625     1Au     0.091850     2B1u    0.135833  
       4B1g    0.279898     7Ag     0.280901     5B3u    0.305922  
       6B2u    0.320966     2B3g    0.321911     8Ag     0.334606  
       7B2u    0.368408     6B3u    0.394878     7B3u    0.429263  
       3B1u    0.456784     5B1g    0.460077     8B2u    0.471115  
       2B2g    0.516968     3B3g    0.518047     6B1g    0.524938  
       9Ag     0.542824    10Ag     0.573895     2Au     0.601354  
       4B1u    0.622181     9B2u    0.631390    11Ag     0.675079  
       7B1g    0.685754     8B3u    0.693033     4B3g    0.700054  
      10B2u    0.724636    12Ag     0.828521     8B1g    0.838317  
       9B3u    0.926991    11B2u    0.983757     9B1g    1.084158  
      10B1g    1.167689    12B2u    1.174943    13Ag     1.182021  
      10B3u    1.242380    13B2u    1.248216    14Ag     1.436682  
      11B3u    1.446256    11B1g    1.565632    14B2u    1.689435  
      15Ag    23.619164    15B2u   23.860114    12B3u   23.920263  
      12B1g   24.002140    16Ag    24.028964    16B2u   24.159455  

    Beta Occupied:                                                        

       1Ag   -11.287300     1B2u  -11.286763     1B3u  -11.286743  
       1B1g  -11.285798     2Ag   -11.285074     2B2u  -11.284780  
       3Ag    -1.192405     2B3u   -1.051895     3B2u   -1.029334  
       2B1g   -0.858677     4Ag    -0.815933     5Ag    -0.670466  
       4B2u   -0.660452     3B3u   -0.656412     4B3u   -0.600374  
       3B1g   -0.544475     1B1u   -0.533875     1B2g   -0.366811  
       1B3g   -0.363792     5B2u   -0.275375  

    Beta Virtual:                                                         

       6Ag    -0.043625     1Au     0.091850     2B1u    0.135833  
       4B1g    0.279898     7Ag     0.280901     5B3u    0.305922  
       6B2u    0.320966     2B3g    0.321911     8Ag     0.334606  
       7B2u    0.368408     6B3u    0.394878     7B3u    0.429263  
       3B1u    0.456784     5B1g    0.460077     8B2u    0.471115  
       2B2g    0.516968     3B3g    0.518047     6B1g    0.524938  
       9Ag     0.542824    10Ag     0.573895     2Au     0.601354  
       4B1u    0.622181     9B2u    0.631390    11Ag     0.675079  
       7B1g    0.685754     8B3u    0.693033     4B3g    0.700054  
      10B2u    0.724636    12Ag     0.828521     8B1g    0.838317  
       9B3u    0.926991    11B2u    0.983757     9B1g    1.084158  
      10B1g    1.167689    12B2u    1.174943    13Ag     1.182021  
      10B3u    1.242380    13B2u    1.248216    14Ag     1.436682  
      11B3u    1.446256    11B1g    1.565632    14B2u    1.689435  
      15Ag    23.619164    15B2u   23.860114    12B3u   23.920263  
      12B1g   24.002140    16Ag    24.028964    16B2u   24.159455  

    Final Occupation by Irrep:
             Ag   B1g   B2g   B3g    Au   B1u   B2u   B3u 
    DOCC [     5,    3,    1,    1,    0,    1,    5,    4 ]
    SOCC [     0,    0,    0,    0,    0,    0,    0,    0 ]

  Energy converged.

  @UHF Final Energy:  -229.20378006852573

   => Energetics <=

    Nuclear Repulsion Energy =            186.0226403251805607
    One-Electron Energy =                -675.7793704486338129
    Two-Electron Energy =                 260.5529500549275781
    Total Energy =                       -229.2037800685257025


  UHF NO Occupations:
  HONO-2 :    5 Ag 2.0000000
  HONO-1 :    5B2u 2.0000000
  HONO-0 :    4B3u 2.0000000
  LUNO+0 :    6B2u 0.0000000
  LUNO+1 :    5B3u 0.0000000
  LUNO+2 :    2B3g 0.0000000
  LUNO+3 :    6 Ag 0.0000000



Properties will be evaluated at   0.000000,   0.000000,   0.000000 Bohr

Properties computed using the SCF density matrix

  Nuclear Dipole Moment: (a.u.)
     X:     0.0000      Y:     0.0000      Z:     0.0000

  Electronic Dipole Moment: (a.u.)
     X:     0.0000      Y:     0.0000      Z:     0.0000

  Dipole Moment: (a.u.)
     X:     0.0000      Y:     0.0000      Z:     0.0000     Total:     0.0000

  Dipole Moment: (Debye)
     X:     0.0000      Y:     0.0000      Z:     0.0000     Total:     0.0000


*** tstop() called on Jeffs-MBP-2.attlocal.net at Tue Jun  6 23:13:06 2017
Module time:
	user time   =       3.64 seconds =       0.06 minutes
	system time =       0.05 seconds =       0.00 minutes
	total time  =          4 seconds =       0.07 minutes
Total time:
	user time   =       7.51 seconds =       0.13 minutes
	system time =       0.12 seconds =       0.00 minutes
	total time  =          8 seconds =       0.13 minutes
   => Loading Basis Set <=

    Name: STO-3G
    Role: ORBITAL
    Keyword: MINAO_BASIS
    atoms 1-6  entry C          line    61 file /Users/jeffschriber/src/psi4_debug_install/share/psi4/basis/sto-3g.gbs 
    atoms 7-10 entry H          line    19 file /Users/jeffschriber/src/psi4_debug_install/share/psi4/basis/sto-3g.gbs 


Reading options from the FORTE block
Calling plugin forte.so.




  ==> MO Space Information <==

  Read options for space FROZEN_DOCC
  Read options for space RESTRICTED_DOCC
  Read options for space ACTIVE
 Removing orbital 0
 Removing orbital 1
 Removing orbital 16
 Removing orbital 40
 Removing orbital 41
 Removing orbital 56
  -------------------------------------------------------------------------
                       Ag   B1g   B2g   B3g    Au   B1u   B2u   B3u   Sum
  -------------------------------------------------------------------------
    FROZEN_DOCC         2     1     0     0     0     0     2     1     6
    RESTRICTED_DOCC     3     2     0     0     0     0     2     3    10
    ACTIVE              1     0     1     2     1     2     1     0     8
    RESTRICTED_UOCC    10     9     1     2     1     2    11     8    44
    FROZEN_UOCC         0     0     0     0     0     0     0     0     0
    Total              16    12     2     4     2     4    16    12    68
  -------------------------------------------------------------------------

  ==> Integral Transformation <==

  Number of molecular orbitals:               68
  Number of correlated molecular orbitals:    62
  Number of frozen occupied orbitals:          6
  Number of frozen unoccupied orbitals:        0

    Molecular point group: d2h
    Full point group: D2h

    Geometry (in Bohr), charge = 0, multiplicity = 1:

       Center              X                  Y                   Z               Mass       
    ------------   -----------------  -----------------  -----------------  -----------------
           C          0.000000000000    -2.545179594100     0.000000000000    12.000000000000
           C         -0.000000000000     2.545179594100     0.000000000000    12.000000000000
           C         -2.282800166900    -1.350835252800     0.000000000000    12.000000000000
           C          2.282800166900    -1.350835252800     0.000000000000    12.000000000000
           C          2.282800166900     1.350835252800     0.000000000000    12.000000000000
           C         -2.282800166900     1.350835252800     0.000000000000    12.000000000000
           H         -4.078218745900    -2.320860214600     0.000000000000     1.007825032070
           H          4.078218745900    -2.320860214600     0.000000000000     1.007825032070
           H          4.078218745900     2.320860214600     0.000000000000     1.007825032070
           H         -4.078218745900     2.320860214600     0.000000000000     1.007825032070

  -AO BASIS SET INFORMATION:
    Name                   = DZ
    Blend                  = DZ
    Total number of shells = 44
    Number of primitives   = 100
    Number of AO           = 68
    Number of SO           = 68
    Maximum AM             = 1
    Spherical Harmonics    = FALSE

  -Contraction Scheme:
    Atom   Type   All Primitives // Shells:
   ------ ------ --------------------------
       1     C     9s 5p // 4s 2p 
       2     C     9s 5p // 4s 2p 
       3     C     9s 5p // 4s 2p 
       4     C     9s 5p // 4s 2p 
       5     C     9s 5p // 4s 2p 
       6     C     9s 5p // 4s 2p 
       7     H     4s // 2s 
       8     H     4s // 2s 
       9     H     4s // 2s 
      10     H     4s // 2s 

  ==> AO Basis Functions <==

    [ DZ ]
    cartesian
    ****
    C   1
    S   6 1.00
                      4232.61000000           0.00202900
                       634.88200000           0.01553500
                       146.09700000           0.07541100
                        42.49740000           0.25712100
                        14.18920000           0.59655500
                         1.96660000           0.24251700
    S   1 1.00
                         5.14770000           1.00000000
    S   1 1.00
                         0.49620000           1.00000000
    S   1 1.00
                         0.15330000           1.00000000
    P   4 1.00
                        18.15570000           0.01853400
                         3.98640000           0.11544200
                         1.14290000           0.38620600
                         0.35940000           0.64008900
    P   1 1.00
                         0.11460000           1.00000000
    ****
    C   3
    S   6 1.00
                      4232.61000000           0.00202900
                       634.88200000           0.01553500
                       146.09700000           0.07541100
                        42.49740000           0.25712100
                        14.18920000           0.59655500
                         1.96660000           0.24251700
    S   1 1.00
                         5.14770000           1.00000000
    S   1 1.00
                         0.49620000           1.00000000
    S   1 1.00
                         0.15330000           1.00000000
    P   4 1.00
                        18.15570000           0.01853400
                         3.98640000           0.11544200
                         1.14290000           0.38620600
                         0.35940000           0.64008900
    P   1 1.00
                         0.11460000           1.00000000
    ****
    H   7
    S   3 1.00
                        19.24060000           0.03282800
                         2.89920000           0.23120800
                         0.65340000           0.81723800
    S   1 1.00
                         0.17760000           1.00000000
    ****


  Overall Conventional Integrals timings

   (n = 8): 0  0  0  0  0  0  0  0  
  SOs per irrep (n = 8): 16  12  2  4  2  4  16  12  
  Frozen core orbitals per irrep (n = 8): 0  0  0  0  0  0  0  0  
  Frozen core orbitals per irrep (n = 8): 16  12  2  4  2  4  16  12  
	Presorting SO-basis two-electron integrals.
	Sorting File: SO Ints (nn|nn) nbuckets = 1
	Transforming the one-electron integrals and constructing Fock matrices
	Starting first half-transformation.
	Sorting half-transformed integrals.
	First half integral transformation complete.
	Starting second half-transformation.
	Two-electron integral transformation complete.

  Integral transformation done. 0.39301500 s
  Reading the two-electron integrals from disk
  Size of two-electron integrals:   0.477911 GB  Using in-core PK algorithm.
   Calculation information:
      Number of atoms:                  10
      Number of AO shells:              44
      Number of primitives:            100
      Number of atomic orbitals:        68
      Number of basis functions:        68

      Integral cutoff                 1.00e-12
      Number of threads:                 1

  Performing in-core PK
  Using 5506062 doubles for integral storage.
  We computed 444486 shell quartets total.
  Whereas there are 490545 unique shell quartets.

  Frozen-core energy           -289.380972996875 a.u.

  FrozenOneBody Operator takes  2.77584100 s
  Resorting integrals after freezing core.
  Conventional integrals take 6.97995000 s
  Number of active orbitals: 8
  Number of active alpha electrons: 4
  Number of active beta electrons: 4
  5  5  -0.533875
  1  2  -0.366811
  2  3  -0.363792
  7  6  -0.275375
  0  0  -0.043625
  4  4  0.091850
 start mo: 2
 number alpha sub: 2
 number beta sub: 2
 The reference space contains 35 determinants

        ---------------------------------------------------------------
                      Adaptive Configuration Interaction
          written by Jeffrey B. Schriber and Francesco A. Evangelista
        ---------------------------------------------------------------

  ==> Reference Information <==

  There are 16 frozen orbitals.
  There are 8 active orbitals.

  ==> Calculation Information <==

  -----------------------------------------------------------------
    Multiplicity                             1    
    Ms                                       0    
    Symmetry                                 0    
    Number of roots                          1    
    Root used for properties                 0    
    Sigma                                    1.00e-03
    Gamma                                    1.00e+00
    Convergence threshold                    1.00e-09
    Determinant selection criterion          Second-order Energy
    Selection criterion                      Aimed selection
    Excited Algorithm                        ROOT_ORTHOGONALIZE
    Project out spin contaminants            False
    Enforce spin completeness of basis       True
    Enforce complete aimed selection         False
  -----------------------------------------------------------------
 Memory for AB_ann: 0.003 MB
 Memory for AB_ann: 0.014 MB
 Memory for AB_ann: 0.011 MB
 Memory for AB_ann: 0.034 MB
 Memory for AB_ann: 0.019 MB
 Memory for AB_ann: 0.048 MB
 Memory for AB_ann: 0.019 MB
 Memory for AB_ann: 0.048 MB

  ==> ACI Summary <==

  Iterations required:                         3
  Dimension of optimized determinant space:    232

  * Adaptive-CI Energy Root   0        = -229.359450812287 Eh =   0.0000 eV
  * Adaptive-CI Energy Root   0 + EPT2 = -229.360444943990 Eh =   0.0000 eV

  ==> Wavefunction Information <==

  Most important contributions to root   0:
    0  -0.813533 0.661836624         104 |02200202>
    1   0.490236 0.240331776         103 |22200200>
    2   0.112214 0.012591944         102 |00202202>
    3   0.084217 0.007092439         101 |02000222>
    4  -0.074859 0.005603927         100 |20202200>
    5  -0.066299 0.004395584          98 |0+-0+2-2>
    6  -0.066299 0.004395584          99 |0-+0-2+2>
    7  -0.065998 0.004355739          97 |22000220>
    8   0.063258 0.004001590          38 |-2-002++>
    9   0.063258 0.004001590          36 |+2+002-->

  Spin state for root 0: S^2 = 0.032756, S = 0.034, singlet
 Memory for AB_ann: 0.068 MB
  1-RDM  took 0.000118 s (determinant)

  ==> NATURAL ORBITALS <==

        1B1u    1.975663      1B2g    1.923624      1B3g    1.922935  
        1B2u    1.448759      1Ag     0.550918      1Au     0.079757  
        2B1u    0.076781      2B3g    0.021562  



  Adaptive-CI (bitset) ran in : 0.321801 s

  Saving information for root: 0

  Your calculation took 7.33488400 seconds
	ACI energy........................................................PASSED
	ACI+PT2 energy....................................................PASSED

*** Psi4 exiting successfully. Buy a developer a beer!
