
    -----------------------------------------------------------------------
          Psi4: An Open-Source Ab Initio Electronic Structure Package
                               Psi4 undefined 

                         Git: Rev {master} c7ea76b 


    R. M. Parrish, L. A. Burns, D. G. A. Smith, A. C. Simmonett,
    A. E. DePrince III, E. G. Hohenstein, U. Bozkaya, A. Yu. Sokolov,
    R. Di Remigio, R. M. Richard, J. F. Gonthier, A. M. James,
    H. R. McAlexander, A. Kumar, M. Saitow, X. Wang, B. P. Pritchard,
    P. Verma, H. F. Schaefer III, K. Patkowski, R. A. King, E. F. Valeev,
    F. A. Evangelista, J. M. Turney, T. D. Crawford, and C. D. Sherrill,
    J. Chem. Theory Comput. 13(7) pp 3185--3197 (2017).
    (doi: 10.1021/acs.jctc.7b00174)

    -----------------------------------------------------------------------


    Psi4 started on: Friday, 03 August 2018 03:19PM

    Process ID: 11404
    Host:       CHE-FEVANGE-01I (2)
    PSIDATADIR: /Users/fevange/Source/psi4/objdir-Debug/stage/Users/fevange/Bin/psi4-Debug/share/psi4
    Memory:     500.0 MiB
    Threads:    1
    
  ==> Input File <==

--------------------------------------------------------------------------
#! Generated using commit GITCOMMIT

import forte

refscf = -112.67064846447627
reffci = -112.744149947609273

molecule {
0 1
C
O 1 R
R = 2.5
units bohr
}

set {
  basis cc-pVDZ
  df_basis_mp2 cc-pVDZ-RI
  scf_type pk
  e_convergence 14
}

set forte {
  job_type fci
  int_type diskdf
  frozen_docc      [2 ,0 ,0 ,0]
  restricted_docc  [2 ,0 ,0 ,0]
  active           [2 ,2 ,2 ,2]
  e_convergence 12
}

energy('scf')
compare_values(refscf, get_variable("CURRENT ENERGY"),10, "SCF energy") #TEST

energy('forte')
compare_values(reffci, get_variable("CURRENT ENERGY"),10, "FCI energy") #TEST
--------------------------------------------------------------------------

*** tstart() called on CHE-FEVANGE-01I (2)
*** at Fri Aug  3 15:19:37 2018

   => Loading Basis Set <=

    Name: CC-PVDZ
    Role: ORBITAL
    Keyword: BASIS
    atoms 1 entry C          line   138 file /Users/fevange/Source/psi4/objdir-Debug/stage/Users/fevange/Bin/psi4-Debug/share/psi4/basis/cc-pvdz.gbs 
    atoms 2 entry O          line   198 file /Users/fevange/Source/psi4/objdir-Debug/stage/Users/fevange/Bin/psi4-Debug/share/psi4/basis/cc-pvdz.gbs 


         ---------------------------------------------------------
                                   SCF
            by Justin Turney, Rob Parrish, Andy Simmonett
                             and Daniel Smith
                              RHF Reference
                        1 Threads,    500 MiB Core
         ---------------------------------------------------------

  ==> Geometry <==

    Molecular point group: c2v
    Full point group: C_inf_v

    Geometry (in Bohr), charge = 0, multiplicity = 1:

       Center              X                  Y                   Z               Mass       
    ------------   -----------------  -----------------  -----------------  -----------------
           C          0.000000000000     0.000000000000    -1.428376799583    12.000000000000
           O          0.000000000000     0.000000000000     1.071623200417    15.994914619560

  Running in c2v symmetry.

  Rotational constants: A = ************  B =      1.40485  C =      1.40485 [cm^-1]
  Rotational constants: A = ************  B =  42116.36605  C =  42116.36605 [MHz]
  Nuclear repulsion =   19.199999999999999

  Charge       = 0
  Multiplicity = 1
  Electrons    = 14
  Nalpha       = 7
  Nbeta        = 7

  ==> Algorithm <==

  SCF Algorithm Type is PK.
  DIIS enabled.
  MOM disabled.
  Fractional occupation disabled.
  Guess Type is SAD.
  Energy threshold   = 1.00e-14
  Density threshold  = 1.00e-06
  Integral threshold = 0.00e+00

  ==> Primary Basis <==

  Basis Set: CC-PVDZ
    Blend: CC-PVDZ
    Number of shells: 12
    Number of basis function: 28
    Number of Cartesian functions: 30
    Spherical Harmonics?: true
    Max angular momentum: 2

  ==> Pre-Iterations <==

   -------------------------------------------------------
    Irrep   Nso     Nmo     Nalpha   Nbeta   Ndocc  Nsocc
   -------------------------------------------------------
     A1        14      14       0       0       0       0
     A2         2       2       0       0       0       0
     B1         6       6       0       0       0       0
     B2         6       6       0       0       0       0
   -------------------------------------------------------
    Total      28      28       7       7       7       0
   -------------------------------------------------------

  ==> Integral Setup <==

  Using in-core PK algorithm.
   Calculation information:
      Number of atoms:                   2
      Number of AO shells:              12
      Number of primitives:             44
      Number of atomic orbitals:        30
      Number of basis functions:        28

      Integral cutoff                 1.00e-12
      Number of threads:                 1

  Performing in-core PK
  Using 165242 doubles for integral storage.
  We computed 3081 shell quartets total.
  Whereas there are 3081 unique shell quartets.

  ==> DiskJK: Disk-Based J/K Matrices <==

    J tasked:                  Yes
    K tasked:                  Yes
    wK tasked:                  No
    Memory (MB):               375
    Schwarz Cutoff:          1E-12

    OpenMP threads:              1

  Minimum eigenvalue in the overlap matrix is 2.7687038876E-02.
  Using Symmetric Orthogonalization.

  SCF Guess: Superposition of Atomic Densities via on-the-fly atomic UHF.

  ==> Iterations <==

                        Total Energy        Delta E     RMS |[F,P]|

   @RHF iter   0:  -112.52556916646236   -1.12526e+02   9.46546e-02 
   @RHF iter   1:  -112.61514951165992   -8.95803e-02   1.59932e-02 
   @RHF iter   2:  -112.63829488805322   -2.31454e-02   1.50706e-02 DIIS
   @RHF iter   3:  -112.66367486183381   -2.53800e-02   2.98794e-03 DIIS
   @RHF iter   4:  -112.66738484166601   -3.70998e-03   1.69325e-03 DIIS
   @RHF iter   5:  -112.66998452251694   -2.59968e-03   7.31974e-04 DIIS
   @RHF iter   6:  -112.67060152394208   -6.17001e-04   2.45982e-04 DIIS
   @RHF iter   7:  -112.67064607739725   -4.45535e-05   6.05506e-05 DIIS
   @RHF iter   8:  -112.67064832538301   -2.24799e-06   2.05680e-05 DIIS
   @RHF iter   9:  -112.67064846334040   -1.37957e-07   2.58272e-06 DIIS
   @RHF iter  10:  -112.67064846447120   -1.13080e-09   1.44420e-07 DIIS
   @RHF iter  11:  -112.67064846447617   -4.97380e-12   1.91323e-08 DIIS
   @RHF iter  12:  -112.67064846447629   -1.13687e-13   1.67962e-09 DIIS
   @RHF iter  13:  -112.67064846447633   -4.26326e-14   2.09609e-10 DIIS
   @RHF iter  14:  -112.67064846447629    4.26326e-14   3.28939e-11 DIIS
   @RHF iter  15:  -112.67064846447622    7.10543e-14   3.60873e-12 DIIS
   @RHF iter  16:  -112.67064846447630   -8.52651e-14   9.61598e-13 DIIS
   @RHF iter  17:  -112.67064846447620    9.94760e-14   1.48163e-13 DIIS
   @RHF iter  18:  -112.67064846447620    0.00000e+00   6.48495e-14 DIIS

  ==> Post-Iterations <==

    Orbital Energies [Eh]
    ---------------------

    Doubly Occupied:                                                      

       1A1   -20.667041     2A1   -11.440758     3A1    -1.399553  
       4A1    -0.788971     1B1    -0.560795     1B2    -0.560795  
       5A1    -0.558983  

    Virtual:                                                              

       2B1     0.082292     2B2     0.082292     6A1     0.354925  
       3B2     0.664269     3B1     0.664269     7A1     0.702632  
       8A1     0.749441     9A1     1.114086     4B1     1.243756  
       4B2     1.243756     1A2     1.335631    10A1     1.335631  
       5B1     1.443578     5B2     1.443578    11A1     1.944786  
      12A1     2.029140     2A2     2.929978    13A1     2.929978  
       6B2     3.252559     6B1     3.252559    14A1     3.605311  

    Final Occupation by Irrep:
             A1    A2    B1    B2 
    DOCC [     5,    0,    1,    1 ]

  Energy converged.

  @RHF Final Energy:  -112.67064846447620

   => Energetics <=

    Nuclear Repulsion Energy =             19.1999999999999993
    One-Electron Energy =                -191.7875051847935310
    Two-Electron Energy =                  59.9168567203173410
    Total Energy =                       -112.6706484644762014



Properties will be evaluated at   0.000000,   0.000000,   0.000000 [a0]

Properties computed using the SCF density matrix

  Nuclear Dipole Moment: [e a0]
     X:     0.0000      Y:     0.0000      Z:     0.0027

  Electronic Dipole Moment: [e a0]
     X:     0.0000      Y:     0.0000      Z:    -0.4784

  Dipole Moment: [e a0]
     X:     0.0000      Y:     0.0000      Z:    -0.4757     Total:     0.4757

  Dipole Moment: [D]
     X:     0.0000      Y:     0.0000      Z:    -1.2090     Total:     1.2090


*** tstop() called on CHE-FEVANGE-01I (2) at Fri Aug  3 15:19:37 2018
Module time:
	user time   =       0.52 seconds =       0.01 minutes
	system time =       0.02 seconds =       0.00 minutes
	total time  =          0 seconds =       0.00 minutes
Total time:
	user time   =       0.52 seconds =       0.01 minutes
	system time =       0.02 seconds =       0.00 minutes
	total time  =          0 seconds =       0.00 minutes
	SCF energy........................................................PASSED

*** tstart() called on CHE-FEVANGE-01I (2)
*** at Fri Aug  3 15:19:37 2018

   => Loading Basis Set <=

    Name: CC-PVDZ
    Role: ORBITAL
    Keyword: BASIS
    atoms 1 entry C          line   138 file /Users/fevange/Source/psi4/objdir-Debug/stage/Users/fevange/Bin/psi4-Debug/share/psi4/basis/cc-pvdz.gbs 
    atoms 2 entry O          line   198 file /Users/fevange/Source/psi4/objdir-Debug/stage/Users/fevange/Bin/psi4-Debug/share/psi4/basis/cc-pvdz.gbs 


         ---------------------------------------------------------
                                   SCF
            by Justin Turney, Rob Parrish, Andy Simmonett
                             and Daniel Smith
                              RHF Reference
                        1 Threads,    500 MiB Core
         ---------------------------------------------------------

  ==> Geometry <==

    Molecular point group: c2v
    Full point group: C_inf_v

    Geometry (in Bohr), charge = 0, multiplicity = 1:

       Center              X                  Y                   Z               Mass       
    ------------   -----------------  -----------------  -----------------  -----------------
           C          0.000000000000     0.000000000000    -1.428376799583    12.000000000000
           O          0.000000000000     0.000000000000     1.071623200417    15.994914619560

  Running in c2v symmetry.

  Rotational constants: A = ************  B =      1.40485  C =      1.40485 [cm^-1]
  Rotational constants: A = ************  B =  42116.36605  C =  42116.36605 [MHz]
  Nuclear repulsion =   19.199999999999999

  Charge       = 0
  Multiplicity = 1
  Electrons    = 14
  Nalpha       = 7
  Nbeta        = 7

  ==> Algorithm <==

  SCF Algorithm Type is PK.
  DIIS enabled.
  MOM disabled.
  Fractional occupation disabled.
  Guess Type is SAD.
  Energy threshold   = 1.00e-14
  Density threshold  = 1.00e-08
  Integral threshold = 0.00e+00

  ==> Primary Basis <==

  Basis Set: CC-PVDZ
    Blend: CC-PVDZ
    Number of shells: 12
    Number of basis function: 28
    Number of Cartesian functions: 30
    Spherical Harmonics?: true
    Max angular momentum: 2

  ==> Pre-Iterations <==

   -------------------------------------------------------
    Irrep   Nso     Nmo     Nalpha   Nbeta   Ndocc  Nsocc
   -------------------------------------------------------
     A1        14      14       0       0       0       0
     A2         2       2       0       0       0       0
     B1         6       6       0       0       0       0
     B2         6       6       0       0       0       0
   -------------------------------------------------------
    Total      28      28       7       7       7       0
   -------------------------------------------------------

  ==> Integral Setup <==

  Using in-core PK algorithm.
   Calculation information:
      Number of atoms:                   2
      Number of AO shells:              12
      Number of primitives:             44
      Number of atomic orbitals:        30
      Number of basis functions:        28

      Integral cutoff                 1.00e-12
      Number of threads:                 1

  Performing in-core PK
  Using 165242 doubles for integral storage.
  We computed 3081 shell quartets total.
  Whereas there are 3081 unique shell quartets.

  ==> DiskJK: Disk-Based J/K Matrices <==

    J tasked:                  Yes
    K tasked:                  Yes
    wK tasked:                  No
    Memory (MB):               375
    Schwarz Cutoff:          1E-12

    OpenMP threads:              1

  Minimum eigenvalue in the overlap matrix is 2.7687038876E-02.
  Using Symmetric Orthogonalization.

  SCF Guess: Superposition of Atomic Densities via on-the-fly atomic UHF.

  ==> Iterations <==

                        Total Energy        Delta E     RMS |[F,P]|

   @RHF iter   0:  -112.53959912003671   -1.12540e+02   9.48807e-02 
   @RHF iter   1:  -112.61634657572849   -7.67475e-02   1.51978e-02 
   @RHF iter   2:  -112.64174777567159   -2.54012e-02   1.33979e-02 DIIS
   @RHF iter   3:  -112.66258753480257   -2.08398e-02   3.25027e-03 DIIS
   @RHF iter   4:  -112.66682950155051   -4.24197e-03   1.78795e-03 DIIS
   @RHF iter   5:  -112.66991202140161   -3.08252e-03   7.78322e-04 DIIS
   @RHF iter   6:  -112.67060753626026   -6.95515e-04   2.51978e-04 DIIS
   @RHF iter   7:  -112.67064641658942   -3.88803e-05   5.79754e-05 DIIS
   @RHF iter   8:  -112.67064833059055   -1.91400e-06   1.95982e-05 DIIS
   @RHF iter   9:  -112.67064846316487   -1.32574e-07   2.51890e-06 DIIS
   @RHF iter  10:  -112.67064846446750   -1.30264e-09   2.28417e-07 DIIS
   @RHF iter  11:  -112.67064846447613   -8.62599e-12   3.98642e-08 DIIS
   @RHF iter  12:  -112.67064846447613    0.00000e+00   3.55133e-09 DIIS

  ==> Post-Iterations <==

    Orbital Energies [Eh]
    ---------------------

    Doubly Occupied:                                                      

       1A1   -20.667041     2A1   -11.440758     3A1    -1.399553  
       4A1    -0.788971     1B2    -0.560795     1B1    -0.560795  
       5A1    -0.558983  

    Virtual:                                                              

       2B1     0.082292     2B2     0.082292     6A1     0.354925  
       3B2     0.664269     3B1     0.664269     7A1     0.702632  
       8A1     0.749441     9A1     1.114086     4B1     1.243756  
       4B2     1.243756    10A1     1.335631     1A2     1.335631  
       5B2     1.443578     5B1     1.443578    11A1     1.944786  
      12A1     2.029140    13A1     2.929978     2A2     2.929978  
       6B2     3.252559     6B1     3.252559    14A1     3.605311  

    Final Occupation by Irrep:
             A1    A2    B1    B2 
    DOCC [     5,    0,    1,    1 ]

  Energy converged.

  @RHF Final Energy:  -112.67064846447613

   => Energetics <=

    Nuclear Repulsion Energy =             19.1999999999999993
    One-Electron Energy =                -191.7875052984907995
    Two-Electron Energy =                  59.9168568340146805
    PCM Polarization Energy =               0.0000000000000000
    Total Energy =                       -112.6706484644761304

    Alert: EFP and PCM quantities not currently incorporated into SCF psivars.

Properties will be evaluated at   0.000000,   0.000000,   0.000000 [a0]

Properties computed using the SCF density matrix

  Nuclear Dipole Moment: [e a0]
     X:     0.0000      Y:     0.0000      Z:     0.0027

  Electronic Dipole Moment: [e a0]
     X:     0.0000      Y:     0.0000      Z:    -0.4784

  Dipole Moment: [e a0]
     X:     0.0000      Y:     0.0000      Z:    -0.4757     Total:     0.4757

  Dipole Moment: [D]
     X:     0.0000      Y:     0.0000      Z:    -1.2090     Total:     1.2090


*** tstop() called on CHE-FEVANGE-01I (2) at Fri Aug  3 15:19:38 2018
Module time:
	user time   =       0.51 seconds =       0.01 minutes
	system time =       0.01 seconds =       0.00 minutes
	total time  =          1 seconds =       0.02 minutes
Total time:
	user time   =       1.06 seconds =       0.02 minutes
	system time =       0.03 seconds =       0.00 minutes
	total time  =          1 seconds =       0.02 minutes
   => Loading Basis Set <=

    Name: CC-PVDZ-RI
    Role: RIFIT
    Keyword: DF_BASIS_MP2
    atoms 1 entry C          line   159 file /Users/fevange/Source/psi4/objdir-Debug/stage/Users/fevange/Bin/psi4-Debug/share/psi4/basis/cc-pvdz-ri.gbs 
    atoms 2 entry O          line   235 file /Users/fevange/Source/psi4/objdir-Debug/stage/Users/fevange/Bin/psi4-Debug/share/psi4/basis/cc-pvdz-ri.gbs 

   => Loading Basis Set <=

    Name: STO-3G
    Role: ORBITAL
    Keyword: MINAO_BASIS
    atoms 1 entry C          line    61 file /Users/fevange/Source/psi4/objdir-Debug/stage/Users/fevange/Bin/psi4-Debug/share/psi4/basis/sto-3g.gbs 
    atoms 2 entry O          line    81 file /Users/fevange/Source/psi4/objdir-Debug/stage/Users/fevange/Bin/psi4-Debug/share/psi4/basis/sto-3g.gbs 


Reading options from the FORTE block
Calling plugin forte.so.



  Forte
  ----------------------------------------------------------------------------
  A suite of quantum chemistry methods for strongly correlated electrons

    git branch: det_cleanup - git commit: 21376a6b

  Developed by:
    Francesco A. Evangelista, Chenyang Li, Kevin P. Hannon,
    Jeffrey B. Schriber, Tianyuan Zhang, Chenxi Cai
  ----------------------------------------------------------------------------

  Size of Determinant class: 16

  ==> MO Space Information <==

  Read options for space FROZEN_DOCC
  Read options for space RESTRICTED_DOCC
  Read options for space ACTIVE
  -------------------------------------------------
                       A1    A2    B1    B2   Sum
  -------------------------------------------------
    FROZEN_DOCC         2     0     0     0     2
    RESTRICTED_DOCC     2     0     0     0     2
    ACTIVE              2     2     2     2     8
    RESTRICTED_UOCC     8     0     4     4    16
    FROZEN_UOCC         0     0     0     0     0
    Total              14     2     6     6    28
  -------------------------------------------------

  ==> Integral Transformation <==

  Number of molecular orbitals:                    28
  Number of correlated molecular orbitals:         26
  Number of frozen occupied orbitals:               2
  Number of frozen unoccupied orbitals:             0
  Two-electron integral type:              Disk-based density fitting


  DISKDFIntegrals overall time
 Computing Density fitted integrals 

 Number of auxiliary basis functions:  112
 Need 0.000654 GB to store DF integrals

    Computing DF Integrals               ......Done. Timing        0.022059 s  Using in-core PK algorithm.
   Calculation information:
      Number of atoms:                   2
      Number of AO shells:              12
      Number of primitives:             44
      Number of atomic orbitals:        30
      Number of basis functions:        28

      Integral cutoff                 1.00e-12
      Number of threads:                 1

  Performing in-core PK
  Using 165242 doubles for integral storage.
  We computed 3081 shell quartets total.
  Whereas there are 3081 unique shell quartets.


  Frozen-core energy           -101.065511033575 a.u.
  Timing for frozen one-body operator:                        0.160 s.
  Resorting integrals after freezing core.
 Resorting integrals takes   0.00003600s
  Timing for freezing core and virtual orbitals:              0.162 s.
  DISKDFIntegrals take      0.27963400 s

                -----------------------------------------------
                  String-based Full Configuration Interaction
                          by Francesco A. Evangelista
                -----------------------------------------------

  Number of electrons: 14
  Charge: 0
  Multiplicity: 1
  Davidson subspace max dim: 8
  Davidson subspace min dim: 2
  M_s: 0

  ==> String Lists <==

  Number of alpha electrons     = 3
  Number of beta electrons      = 3
  Number of alpha strings       = 56
  Number of beta strings        = 56
  Number of alpha strings (N-3) = 1
  Number of beta strings (N-3)  = 1
  Timing for strings        =      0.000 s
  Timing for NN strings     =      0.000 s
  Timing for VO strings     =      0.003 s
  Timing for OO strings     =      0.001 s
  Timing for VVOO strings   =      0.003 s
  Timing for VOVO strings   =      0.000 s
  Timing for 1-hole strings =      0.000 s
  Timing for 2-hole strings =      0.001 s
  Timing for 3-hole strings =      0.001 s
  Total timing              =      0.007 s

  ==> FCI Solver <==

    Number of determinants                         784
    Symmetry                                         0
    Multiplicity                                     1
    Number of roots                                  1
    Target root                                      0
    Trial vectors per root                          10

  Allocating memory for the Hamiltonian algorithm. Size: 2 x 14 x 14.   Memory: 0.000003 GB
  Initial guess space is incomplete.
  Adding 9 determinant(s).

  ==> FCI Initial Guess <==

  ---------------------------------------------
    Root            Energy     <S^2>   Spin
  ---------------------------------------------
      0     -112.714048677060  0.000  singlet
      1     -112.516339968050  2.000  triplet
      2     -112.497897495217  2.000  triplet
      3     -112.418949919897  0.000  singlet
      4     -112.210658584891  0.000  singlet
      5     -112.132206448432  0.000  singlet
      6     -112.128555566612  6.000  quintet
      7     -112.124795778588  2.000  triplet
      8     -112.097375570071  0.000  singlet
      9     -112.062410743381  2.000  triplet
     10     -112.030178119580  0.000  singlet
     11     -112.002455050221  6.000  quintet
     12     -111.995343182949  0.000  singlet
     13     -111.976054164441  6.000  quintet
     14     -111.947177533291  2.000  triplet
     15     -111.920444572250  2.000  triplet
     16     -111.916019383260  0.000  singlet
     17     -111.912988444683  0.000  singlet
     18     -111.904423051072  2.000  triplet
     19     -111.901508144951  2.000  triplet
     20     -111.858000969027  2.000  triplet
     21     -111.856404393099  0.000  singlet
     22     -111.843639236495  0.000  singlet
     23     -111.786558936400  0.000  singlet
     24     -111.778244168337  2.000  triplet
     25     -111.744704955566  2.000  triplet
     26     -111.623453551622  0.000  singlet
     27     -111.545145955300  2.000  triplet
     28     -111.366311274328  0.000  singlet
  ---------------------------------------------
  Timing for initial guess  =      0.006 s

  Projecting out root 1
  Projecting out root 2
  Projecting out root 6
  Projecting out root 7
  Projecting out root 9
  Projecting out root 11
  Projecting out root 13
  Projecting out root 14
  Projecting out root 15
  Projecting out root 18
  Projecting out root 19
  Projecting out root 20
  Projecting out root 24
  Projecting out root 25
  Projecting out root 27
  ==> Diagonalizing Hamiltonian <==

  ----------------------------------------
    Iter.      Avg. Energy       Delta_E
  ----------------------------------------
      1     -112.714048677060  -1.127e+02
      2     -112.742204608836  -2.816e-02
      3     -112.743948701635  -1.744e-03
      4     -112.744123565641  -1.749e-04
      5     -112.744146658041  -2.309e-05
      6     -112.744149751011  -3.093e-06
      7     -112.744149939874  -1.889e-07
      8     -112.744149946382  -6.508e-09
      9     -112.744149947342  -9.605e-10
     10     -112.744149947496  -1.540e-10
     11     -112.744149947524  -2.760e-11
     12     -112.744149947527  -3.297e-12
     13     -112.744149947527  -8.527e-14
  ----------------------------------------
  The Davidson-Liu algorithm converged in 14 iterations.

  ==> Root No. 0 <==

    20 00 20 20     -0.96029862
    20 00 20 02      0.11256566
    20 00 02 20      0.11256566

    Total Energy:      -112.744149947527362

  ==> Computing RDMs for Root No. 0 <==

    Timing for 1-RDM: 0.000 s

  ==> NATURAL ORBITALS <==

        1A1     1.976188      1B1     1.937652      1B2     1.937652  
        2B1     0.069966      2B2     0.069966      2A1     0.006649  
        1A2     0.001180      2A2     0.000748  
	FCI energy........................................................PASSED

    Psi4 stopped on: Friday, 03 August 2018 03:19PM
    Psi4 wall time for execution: 0:00:01.63

*** Psi4 exiting successfully. Buy a developer a beer!
