
    -----------------------------------------------------------------------
          Psi4: An Open-Source Ab Initio Electronic Structure Package
                               Psi4 1.2a1.dev704 

                         Git: Rev {master} a7fc050 


    R. M. Parrish, L. A. Burns, D. G. A. Smith, A. C. Simmonett,
    A. E. DePrince III, E. G. Hohenstein, U. Bozkaya, A. Yu. Sokolov,
    R. Di Remigio, R. M. Richard, J. F. Gonthier, A. M. James,
    H. R. McAlexander, A. Kumar, M. Saitow, X. Wang, B. P. Pritchard,
    P. Verma, H. F. Schaefer III, K. Patkowski, R. A. King, E. F. Valeev,
    F. A. Evangelista, J. M. Turney, T. D. Crawford, and C. D. Sherrill,
    J. Chem. Theory Comput. 13(7) pp 3185--3197 (2017).
    (doi: 10.1021/acs.jctc.7b00174)

    -----------------------------------------------------------------------


    Psi4 started on: Monday, 04 December 2017 04:39PM

    Process ID:  43262
    PSIDATADIR: /Users/york/src/psi4new/psi4/share/psi4
    Memory:     500.0 MiB
    Threads:    1
    
  ==> Input File <==

--------------------------------------------------------------------------
#! Generated using commit GITCOMMIT

import forte

refmcscf   = -99.406065222746975
refudsrg   = -99.498877580929829
refprdsrg  = -99.500379477238937
refrdsrg   = -99.500197312848783

memory 500 mb

molecule HF{
  0 1
  F
  H  1 R
  R = 1.50
}

set globals{
   basis                  3-21g
   reference              twocon
   e_convergence          8
   maxiter                100
   docc                   [3,0,1,1]
}

set mcscf{
   docc                   [2,0,1,1]
   socc                   [2,0,0,0]
   maxiter                1000
   level_shift            0.5
   d_convergence          10
   e_convergence          12
}

set forte{
   job_type               mrdsrg
   int_type               cholesky
   cholesky_tolerance     1e-4
   corr_level             ldsrg2
   frozen_docc            [1,0,0,0]
   restricted_docc        [1,0,1,1]
   active                 [2,0,0,0]
   root_sym               0
   nroot                  1
   dsrg_s                 1.0
   maxiter                100
   e_convergence          8
   dsrg_hbar_seq          true
   dsrg_omit_v3           true
   relax_ref              twice
}

Emcscf, wfn = energy('mcscf', return_wfn=True)
compare_values(refmcscf,get_variable("CURRENT ENERGY"),10,"MCSCF energy")

energy('forte', ref_wfn=wfn)
compare_values(refudsrg,get_variable("UNRELAXED ENERGY"),8,"MRDSRG unrelaxed energy")
compare_values(refprdsrg,get_variable("PARTIALLY RELAXED ENERGY"),8,"MRDSRG partially relaxed energy")
compare_values(refrdsrg,get_variable("RELAXED ENERGY"),8,"MRDSRG relaxed energy")
--------------------------------------------------------------------------

  Memory set to 476.837 MiB by Python driver.
   => Loading Basis Set <=

    Name: 3-21G
    Role: ORBITAL
    Keyword: BASIS
    atoms 1 entry F          line   101 file /Users/york/src/psi4new/psi4/share/psi4/basis/3-21g.gbs 
    atoms 2 entry H          line    21 file /Users/york/src/psi4new/psi4/share/psi4/basis/3-21g.gbs 


*** tstart() called on yorks-mac.wireless.emory.edu
*** at Mon Dec  4 16:39:24 2017


         ------------------------------------------
           MCSCF: a self-consistent field program
            written by Francesco A. Evangelista
         ------------------------------------------

  MOs per irrep:                                      A1  A2  B1  B2 Total
  ----------------------------------------------------------------------------
  Total                                                7    0    2    2    11
  Doubly Occupied                                      2    0    1    1     4
  Active/Singly Occupied                               2    0    0    0     2
  ----------------------------------------------------------------------------

  Running an SCF calculation
  TWOCON MOs = [2 (A1),3 (A1)]

  Generated 66 pairs
  Distributed as [34 A1][4 A2][14 B1][14 B2]
  batch   0 pq = [       0,      34] index = [               0,             595]

  Allocated the PK matrix (595 elements) 
  Allocated the  K matrix (595 elements) 
  Reading the two-electron integrals to form PK and K ... 
  batch   0 ... done.


  =========================================================================================
         Cycle          Energy               D(Energy)            D(Density)            DIIS
  ===========================================================================================
  Setting level shift to 0.500 S
  @SCF    0      -90.711680135674     -90.711680135674       0.179571427031
    ci      = [ 0.00000000, 0.00000000]
    ci_grad = [ 0.00000000, 0.00000000]
  Setting level shift to 0.500 S
  @SCF    1      -99.209208289694      -8.497528154021       0.171539036589
    ci      = [ 0.00000000, 0.00000000]
    ci_grad = [ 0.00000000, 0.00000000]
  Setting level shift to 0.500 S
  @SCF    2      -99.181126225609       0.028082064085       0.014194650032
    ci      = [ 0.00000000, 0.00000000]
    ci_grad = [ 0.00000000, 0.00000000]
  Setting level shift to 0.500 S
  @SCF    3      -99.187147055735      -0.006020830126       0.007187093255
    ci      = [ 0.00000000, 0.00000000]
    ci_grad = [ 0.00000000, 0.00000000]
  Setting level shift to 0.500 S
  @SCF    4      -99.185505238170       0.001641817566       0.004582734244
    ci      = [ 0.00000000, 0.00000000]
    ci_grad = [ 0.00000000, 0.00000000]
  Setting level shift to 0.500 S
  @SCF    5      -99.188474394436      -0.002969156266       0.002877713537
    ci      = [ 0.00000000, 0.00000000]
    ci_grad = [ 0.00000000, 0.00000000]
  Setting level shift to 0.500 S
  @SCF    6      -99.186908014980       0.001566379456       0.001957181715
    ci      = [ 0.00000000, 0.00000000]
    ci_grad = [ 0.00000000, 0.00000000]
  Setting level shift to 0.500 S/E
  @SCF    7      -99.189018415622      -0.002110400642       0.001358833721
    ci      = [ 0.00000000, 0.00000000]
    ci_grad = [ 0.00000000, 0.00000000]
  Setting level shift to 0.500 S/E
  @SCF    8      -99.188321586517       0.000696829105       0.000571003443
    ci      = [ 0.00000000, 0.00000000]
    ci_grad = [ 0.00000000, 0.00000000]
  Setting level shift to 0.500 S/E
  @SCF    9      -99.188265995166       0.000055591351       0.000013369739
    ci      = [ 0.00000000, 0.00000000]
    ci_grad = [ 0.00000000, 0.00000000]
  Setting level shift to 0.500 S/E
  @SCF   10      -99.188257103034       0.000008892132       0.000002169527
    ci      = [-0.93934204, 0.34298182]
    ci_grad = [ 0.00000000, 0.00000000]
  Setting level shift to 0.500 S/E
  @SCF   11      -99.188255334686       0.000001768348       0.000000855765
    ci      = [-0.93934230, 0.34298112]
    ci_grad = [-0.00000152, 0.00000100]
  Setting level shift to 0.500 S/E
  @SCF   12      -99.188255068103       0.000000266583       0.000000113202
    ci      = [-0.93934223, 0.34298130]
    ci_grad = [-0.00000029,-0.00000001]
  Setting level shift to 0.500 S/E
  @SCF   13      -99.188257583125      -0.000002515022       0.000000557792
    ci      = [-0.93934249, 0.34298061]
    ci_grad = [ 0.00000250,-0.00000048]
  Setting level shift to 0.500 S/E
  @SCF   14      -99.188256441363       0.000001141762       0.000000350202
    ci      = [-0.93934242, 0.34298079]
    ci_grad = [-0.00000111, 0.00000029]
  Setting level shift to 0.500 S/E
  @SCF   15      -99.188256645303      -0.000000203939       0.000000028469
    ci      = [-0.93934243, 0.34298075]
    ci_grad = [ 0.00000020,-0.00000005]
  Setting level shift to 0.500 S/E
  @SCF   16      -99.188272252662      -0.000015607359       0.000001975431
    ci      = [-0.93934243, 0.34298075]
    ci_grad = [ 0.00001564,-0.00000268]
  Setting level shift to 0.500 S/E
  @SCF   17      -99.188250732044       0.000021520618       0.000002903879
    ci      = [-0.93934243, 0.34298075]
    ci_grad = [-0.00002002, 0.00000792]
  Setting level shift to 0.500 S/E
  @SCF   18      -99.337961013568      -0.149710281525       0.036362071661
    ci      = [-0.93934243, 0.34298075]
    ci_grad = [ 0.16010345, 0.02910979]
  Setting level shift to 0.500 S/E
  @SCF   19      -99.382602425056      -0.044641411488       0.017310858037
    ci      = [-0.93934243, 0.34298075]
    ci_grad = [ 0.05112319, 0.01352214]
  Setting level shift to 0.500 S/E
  @SCF   20      -99.390981504946      -0.008379079890       0.006367686448
    ci      = [-0.93934243, 0.34298075]
    ci_grad = [ 0.01839082, 0.03077712]
  Setting level shift to 0.500 S/E
  @SCF   21      -99.396564319991      -0.005582815045       0.005349234771
    ci      = [-0.93934243, 0.34298075]
    ci_grad = [ 0.01345021, 0.02330549]
  Setting level shift to 0.500 S/E
  @SCF   22      -99.401986994858      -0.005422674867       0.006425945942
    ci      = [-0.93934243, 0.34298075]
    ci_grad = [ 0.01311681, 0.02266227]
  Setting level shift to 0.500 S/E
  @SCF   23      -99.404435486197      -0.002448491339       0.004529902047
    ci      = [-0.93934243, 0.34298075]
    ci_grad = [ 0.00880252, 0.01856776]
  Setting level shift to 0.500 S/E
  @SCF   24      -99.405884792006      -0.001449305808       0.005190027037
    ci      = [-0.93934243, 0.34298075]
    ci_grad = [ 0.00791518, 0.01904157]
  Setting level shift to 0.500 S/E
  @SCF   25      -99.405932861579      -0.000048069574       0.000639254350
    ci      = [-0.93934243, 0.34298075]
    ci_grad = [ 0.00659170, 0.01949536]
  Setting level shift to 0.500 S/E
  @SCF   26      -99.405964385765      -0.000031524186       0.000495113267
    ci      = [-0.93934243, 0.34298075]
    ci_grad = [ 0.00660575, 0.01959524]
  Setting level shift to 0.500 S/E
  @SCF   27      -99.405974883444      -0.000010497679       0.000411044127
    ci      = [-0.93934243, 0.34298075]
    ci_grad = [ 0.00656952, 0.01954933]
  Setting level shift to 0.500 S/E
  @SCF   28      -99.405962768495       0.000012114949       0.000190862770
    ci      = [-0.93934243, 0.34298075]
    ci_grad = [ 0.00647199, 0.01930866]
  Setting level shift to 0.500 S/E
  @SCF   29      -99.405970193792      -0.000007425297       0.000154961844
    ci      = [-0.94800791, 0.31824676]
    ci_grad = [ 0.00652110, 0.01940202]
  Setting level shift to 0.500 S/E
  @SCF   30      -99.405970880296      -0.000000686504       0.000042496241
    ci      = [-0.94801168, 0.31823553]
    ci_grad = [ 0.00000360, 0.00000856]
  Setting level shift to 0.500 S/E
  @SCF   31      -99.405967959904       0.000002920392       0.000018890669
    ci      = [-0.94798970, 0.31830101]
    ci_grad = [-0.00001994,-0.00005022]
  Setting level shift to 0.500 S/E
  @SCF   32      -99.405961902888       0.000006057017       0.000036272768
    ci      = [-0.94794562, 0.31843226]
    ci_grad = [-0.00004017,-0.00010056]
  Setting level shift to 0.500 S/E
  @SCF   33      -99.405956371406       0.000005531482       0.000036605232
    ci      = [-0.94790693, 0.31854741]
    ci_grad = [-0.00003545,-0.00008812]
  Setting level shift to 0.500 S/E
  @SCF   34      -99.405974902405      -0.000018530999       0.000142075460
    ci      = [-0.94790693, 0.31854741]
    ci_grad = [ 0.00012197, 0.00030521]
  Setting level shift to 0.500 S/E
  @SCF   35      -99.406021087642      -0.000046185238       0.000454033944
    ci      = [-0.94790693, 0.31854741]
    ci_grad = [ 0.00047272, 0.00126902]
  Setting level shift to 0.500 S/E
  @SCF   36      -99.406035652724      -0.000014565082       0.000195699828
    ci      = [-0.94790693, 0.31854741]
    ci_grad = [ 0.00058120, 0.00169661]
  Setting level shift to 0.500 S/E
  @SCF   37      -99.406062350990      -0.000026698266       0.000615996653
    ci      = [-0.94790693, 0.31854741]
    ci_grad = [ 0.00103081, 0.00302416]
  Setting level shift to 0.500 S/E
  @SCF   38      -99.406062875239      -0.000000524249       0.000026045751
    ci      = [-0.94921142, 0.31463898]
    ci_grad = [ 0.00102459, 0.00308934]
  Setting level shift to 0.500 S/E
  @SCF   39      -99.406062939971      -0.000000064731       0.000030619938
    ci      = [-0.94921170, 0.31463814]
    ci_grad = [ 0.00000028, 0.00000065]
  Setting level shift to 0.500 S/E
  @SCF   40      -99.406065060415      -0.000002120444       0.000188500906
    ci      = [-0.94937785, 0.31413643]
    ci_grad = [ 0.00013338, 0.00039634]
  Setting level shift to 0.500 S/E
  @SCF   41      -99.406064857636       0.000000202780       0.000027594414
    ci      = [-0.94934645, 0.31423131]
    ci_grad = [-0.00002503,-0.00007499]
  Setting level shift to 0.500 S/E
  @SCF   42      -99.406065176741      -0.000000319105       0.000068116353
    ci      = [-0.94940501, 0.31405435]
    ci_grad = [ 0.00004664, 0.00013997]
  Setting level shift to 0.500 S/E
  @SCF   43      -99.406065211884      -0.000000035143       0.000017815621
    ci      = [-0.94942151, 0.31400445]
    ci_grad = [ 0.00001310, 0.00003949]
  Setting level shift to 0.500 S/E
  @SCF   44      -99.406065222144      -0.000000010260       0.000013973401
    ci      = [-0.94943358, 0.31396795]
    ci_grad = [ 0.00000957, 0.00002889]
  Setting level shift to 0.500 S/E
  @SCF   45      -99.406065221633       0.000000000511       0.000009545472
    ci      = [-0.94944188, 0.31394285]
    ci_grad = [ 0.00000657, 0.00001988]
  Setting level shift to 0.500 S/E
  @SCF   46      -99.406065222726      -0.000000001092       0.000005179289
    ci      = [-0.94943753, 0.31395602]
    ci_grad = [-0.00000345,-0.00001043]
  Setting level shift to 0.500 S/E
  @SCF   47      -99.406065222743      -0.000000000018       0.000000672269
    ci      = [-0.94943691, 0.31395789]
    ci_grad = [-0.00000049,-0.00000148]
  Setting level shift to 0.500 S/E
  @SCF   48      -99.406065222735       0.000000000008       0.000000494870
    ci      = [-0.94943648, 0.31395918]
    ci_grad = [-0.00000034,-0.00000102]
  Setting level shift to 0.500 S/E
  @SCF   49      -99.406065222744      -0.000000000009       0.000000412256
    ci      = [-0.94943674, 0.31395839]
    ci_grad = [ 0.00000021, 0.00000063]
  Setting level shift to 0.500 S/E
  @SCF   50      -99.406065222747      -0.000000000002       0.000000310072
    ci      = [-0.94943696, 0.31395773]
    ci_grad = [ 0.00000017, 0.00000052]
  Setting level shift to 0.500 S/E
  @SCF   51      -99.406065222747      -0.000000000000       0.000000038221
    ci      = [-0.94943699, 0.31395765]
    ci_grad = [ 0.00000002, 0.00000006]
  Setting level shift to 0.500 S/E
  @SCF   52      -99.406065222747      -0.000000000000       0.000000021348
    ci      = [-0.94943696, 0.31395772]
    ci_grad = [-0.00000002,-0.00000006]
  Setting level shift to 0.500 S/E
  @SCF   53      -99.406065222747       0.000000000000       0.000000013899
    ci      = [-0.94943697, 0.31395770]
    ci_grad = [ 0.00000001, 0.00000002]
  Setting level shift to 0.500 S/E
  @SCF   54      -99.406065222747       0.000000000000       0.000000010207
    ci      = [-0.94943697, 0.31395772]
    ci_grad = [-0.00000000,-0.00000001]
  Setting level shift to 0.500 S/E
  @SCF   55      -99.406065222747       0.000000000000       0.000000004890
    ci      = [-0.94943696, 0.31395772]
    ci_grad = [-0.00000000,-0.00000001]
  Setting level shift to 0.500 S/E
  @SCF   56      -99.406065222747      -0.000000000000       0.000000004246
    ci      = [-0.94943697, 0.31395771]
    ci_grad = [ 0.00000000, 0.00000001]
  Setting level shift to 0.500 S/E
  @SCF   57      -99.406065222747       0.000000000000       0.000000000764
    ci      = [-0.94943697, 0.31395771]
    ci_grad = [ 0.00000000, 0.00000000]
  Setting level shift to 0.500 S/E
  @SCF   58      -99.406065222747      -0.000000000000       0.000000000501
    ci      = [-0.94943697, 0.31395771]
    ci_grad = [ 0.00000000, 0.00000000]
  Setting level shift to 0.500 S/E
  @SCF   59      -99.406065222747      -0.000000000000       0.000000000292
    ci      = [-0.94943697, 0.31395771]
    ci_grad = [-0.00000000,-0.00000000]
  Setting level shift to 0.500 S/E
  @SCF   60      -99.406065222747       0.000000000000       0.000000000669
    ci      = [-0.94943697, 0.31395771]
    ci_grad = [-0.00000000,-0.00000000]
  Setting level shift to 0.500 S/E
  @SCF   61      -99.406065222747       0.000000000000       0.000000000077
    ci      = [-0.94943697, 0.31395771]
    ci_grad = [ 0.00000000, 0.00000000]
  Setting level shift to 0.500 S/E
  @SCF   62      -99.406065222747      -0.000000000000       0.000000000069
    ci      = [-0.94943697, 0.31395771]
    ci_grad = [ 0.00000000, 0.00000000]
  =========================================================================================

      * SCF total energy   =     -99.406065222747


      CI coefficients  = [-0.949436968, 0.313957711]

  End of SCF
  MOs orthonormality check passed.

  Orbitals are canonicalized as:
  inactive (docc + uocc) : Fock(core)
  active   (actv)        : Fock(core)

  =========================================================================
  Eigenvalues (Eh)
  -------------------------------------------------------------------------
  Doubly occupied orbitals
      1    -26.175209  A1      2     -1.495695  A1      3     -0.623385  B1
      4     -0.623385  B2
  Active orbitals
      5     -0.510102  A1      6      0.074682  A1
  Unoccupied orbitals
      7      1.595133  A1      8      2.709370  B1      9      2.709370  B2
     10      2.796416  A1     11      3.870480  A1
  =========================================================================


  MCSCF Execution Completed.


*** tstop() called on yorks-mac.wireless.emory.edu at Mon Dec  4 16:39:24 2017
Module time:
	user time   =       0.07 seconds =       0.00 minutes
	system time =       0.04 seconds =       0.00 minutes
	total time  =          0 seconds =       0.00 minutes
Total time:
	user time   =       0.07 seconds =       0.00 minutes
	system time =       0.04 seconds =       0.00 minutes
	total time  =          0 seconds =       0.00 minutes
	MCSCF energy......................................................PASSED
   => Loading Basis Set <=

    Name: STO-3G
    Role: ORBITAL
    Keyword: MINAO_BASIS
    atoms 1 entry F          line    91 file /Users/york/src/psi4new/psi4/share/psi4/basis/sto-3g.gbs 
    atoms 2 entry H          line    19 file /Users/york/src/psi4new/psi4/share/psi4/basis/sto-3g.gbs 


Reading options from the FORTE block
Calling plugin forte.so.



  Forte
  ----------------------------------------------------------------------------
  A suite of quantum chemistry methods for strongly correlated electrons

    git branch: master - git commit: 1c92254a

  Developed by:
    Francesco A. Evangelista, Chenyang Li, Kevin P. Hannon,
    Jeffrey B. Schriber, Tianyuan Zhang, Chenxi Cai
  ----------------------------------------------------------------------------

  Size of Determinant class: 32

  ==> MO Space Information <==

  Read options for space FROZEN_DOCC
  Read options for space RESTRICTED_DOCC
  Read options for space ACTIVE
 Removing orbital 0
  -------------------------------------------------
                       A1    A2    B1    B2   Sum
  -------------------------------------------------
    FROZEN_DOCC         1     0     0     0     1
    RESTRICTED_DOCC     1     0     1     1     3
    ACTIVE              2     0     0     0     2
    RESTRICTED_UOCC     3     0     1     1     5
    FROZEN_UOCC         0     0     0     0     0
    Total               7     0     2     2    11
  -------------------------------------------------

  ==> Integral Transformation <==

  Number of molecular orbitals:               11
  Number of correlated molecular orbitals:    10
  Number of frozen occupied orbitals:          1
  Number of frozen unoccupied orbitals:        0

    Molecular point group: c2v
    Full point group: C_inf_v

    Geometry (in Angstrom), charge = 0, multiplicity = 1:

       Center              X                  Y                   Z               Mass       
    ------------   -----------------  -----------------  -----------------  -----------------
           F          0.000000000000     0.000000000000    -0.075563346012    18.998403224000
           H          0.000000000000     0.000000000000     1.424436653988     1.007825032070

  -AO BASIS SET INFORMATION:
    Name                   = 3-21G
    Blend                  = 3-21G
    Total number of shells = 7
    Number of primitives   = 12
    Number of AO           = 11
    Number of SO           = 11
    Maximum AM             = 1
    Spherical Harmonics    = FALSE

  -Contraction Scheme:
    Atom   Type   All Primitives // Shells:
   ------ ------ --------------------------
       1     F     6s 3p // 3s 2p 
       2     H     3s // 2s 

  ==> AO Basis Functions <==

    [ 3-21G ]
    cartesian
    ****
    F   1
    S   3 1.00
                       413.80100000           0.05854830
                        62.24460000           0.34930800
                        13.43400000           0.70963200
    S   2 1.00
                         9.77759000          -0.40732700
                         2.08617000           1.22314000
    P   2 1.00
                         9.77759000           0.24668000
                         2.08617000           0.85232100
    S   1 1.00
                         0.48238300           1.00000000
    P   1 1.00
                         0.48238300           1.00000000
    ****
    H   2
    S   2 1.00
                         5.44717800           0.15628500
                         0.82454700           0.90469100
    S   1 1.00
                         0.18319200           1.00000000
    ****


  Cholesky integrals time
 Computing the Cholesky Vectors 

    Computing CD Integrals               ......Done. Timing        0.025975 s
 Need 0.000039 GB to store cd integrals in core

 Number of cholesky vectors 43 to satisfy       0.000100000000 tolerance
  Using in-core PK algorithm.
   Calculation information:
      Number of atoms:                   2
      Number of AO shells:               7
      Number of primitives:             12
      Number of atomic orbitals:        11
      Number of basis functions:        11

      Integral cutoff                 1.00e-12
      Number of threads:                 1

  Performing in-core PK
  Using 4422 doubles for integral storage.
  We computed 406 shell quartets total.
  Whereas there are 406 unique shell quartets.

  Frozen-core energy            -75.818535536959 a.u.

  FrozenOneBody Operator takes  0.04442700 s
  Resorting integrals after freezing core.
  CholeskyIntegrals take 0.08357900

                -----------------------------------------------
                  String-based Full Configuration Interaction
                          by Francesco A. Evangelista
                -----------------------------------------------

  Number of electrons: 10
  Charge: 0
  Multiplicity: 1
  Davidson subspace max dim: 8
  Davidson subspace min dim: 2
  M_s: 0

  ==> String Lists <==

  Number of alpha electrons     = 1
  Number of beta electrons      = 1
  Number of alpha strings       = 2
  Number of beta strings        = 2
  Timing for strings        =      0.000 s
  Timing for NN strings     =      0.000 s
  Timing for VO strings     =      0.000 s
  Timing for OO strings     =      0.000 s
  Timing for VVOO strings   =      0.000 s
  Timing for VOVO strings   =      0.000 s
  Timing for 1-hole strings =      0.000 s
  Timing for 2-hole strings =      0.000 s
  Timing for 3-hole strings =      0.000 s
  Total timing              =      0.000 s

  ==> FCI Solver <==

    Number of determinants                           4
    Symmetry                                         0
    Multiplicity                                     1
    Number of roots                                  1
    Target root                                      0
    Trial vectors per root                          10

  Allocating memory for the Hamiltonian algorithm. Size: 2 x 2 x 2.   Memory: 0.000000 GB

  ==> FCI Initial Guess <==

  ---------------------------------------------
    Root            Energy     <S^2>   Spin
  ---------------------------------------------
      0      -99.406062694660  0.000  singlet
      1      -99.266207744461  2.000  triplet
      2      -98.863145408863  0.000  singlet
      3      -98.545353135698  0.000  singlet
  ---------------------------------------------
  Timing for initial guess  =      0.001 s

  Projecting out root 1
  ==> Diagonalizing Hamiltonian <==

  ----------------------------------------
    Iter.      Avg. Energy       Delta_E
  ----------------------------------------
      1      -99.406062694660  -9.941e+01
      2      -99.406062694660  +0.000e+00
  ----------------------------------------
  The Davidson-Liu algorithm converged in 3 iterations.

  ==> Root No. 0 <==

    20     -0.94943631
    02      0.31395971

    Total Energy:       -99.406062694660378

  ==> Computing RDMs for Root No. 0 <==

    Timing for 1-RDM: 0.001 s
    Timing for 2-RDM: 0.000 s
    Timing for 3-RDM: 0.000 s

  ==> NATURAL ORBITALS <==

        1A1     1.802859      2A1     0.197141  


       -----------------------------------------------------------------
                            Semi-Canonical Orbitals
         Chenyang Li, Jeffrey B. Schriber and Francesco A. Evangelista
       -----------------------------------------------------------------

  Took 0.002487 s to build Fock matrix

  ==> Checking Fock Matrix Diagonal Blocks <==

    Off-Diag. Elements       Max           2-Norm
    ------------------------------------------------
    Fa actv              0.0348824644   0.0493312543
    Fb actv              0.0348824644   0.0493312543
    ------------------------------------------------
    Fa core              0.0000000000   0.0000000000
    Fb core              0.0000000000   0.0000000000
    ------------------------------------------------
    Fa virt              0.0000150723   0.0000239151
    Fb virt              0.0000150723   0.0000239151
    ------------------------------------------------

  ==> Integral Transformation to Semicanonical Basis <==
    Molecular point group: c2v
    Full point group: C_inf_v

    Geometry (in Angstrom), charge = 0, multiplicity = 1:

       Center              X                  Y                   Z               Mass       
    ------------   -----------------  -----------------  -----------------  -----------------
           F          0.000000000000     0.000000000000    -0.075563346012    18.998403224000
           H          0.000000000000     0.000000000000     1.424436653988     1.007825032070

  -AO BASIS SET INFORMATION:
    Name                   = 3-21G
    Blend                  = 3-21G
    Total number of shells = 7
    Number of primitives   = 12
    Number of AO           = 11
    Number of SO           = 11
    Maximum AM             = 1
    Spherical Harmonics    = FALSE

  -Contraction Scheme:
    Atom   Type   All Primitives // Shells:
   ------ ------ --------------------------
       1     F     6s 3p // 3s 2p 
       2     H     3s // 2s 

  ==> AO Basis Functions <==

    [ 3-21G ]
    cartesian
    ****
    F   1
    S   3 1.00
                       413.80100000           0.05854830
                        62.24460000           0.34930800
                        13.43400000           0.70963200
    S   2 1.00
                         9.77759000          -0.40732700
                         2.08617000           1.22314000
    P   2 1.00
                         9.77759000           0.24668000
                         2.08617000           0.85232100
    S   1 1.00
                         0.48238300           1.00000000
    P   1 1.00
                         0.48238300           1.00000000
    ****
    H   2
    S   2 1.00
                         5.44717800           0.15628500
                         0.82454700           0.90469100
    S   1 1.00
                         0.18319200           1.00000000
    ****


 Integrals are about to be computed.
 Computing the Cholesky Vectors 

    Computing CD Integrals               ......Done. Timing        0.016068 s
 Need 0.000039 GB to store cd integrals in core

 Number of cholesky vectors 43 to satisfy       0.000100000000 tolerance

 Integrals are about to be updated.  Using in-core PK algorithm.
   Calculation information:
      Number of atoms:                   2
      Number of AO shells:               7
      Number of primitives:             12
      Number of atomic orbitals:        11
      Number of basis functions:        11

      Integral cutoff                 1.00e-12
      Number of threads:                 1

  Performing in-core PK
  Using 4422 doubles for integral storage.
  We computed 406 shell quartets total.
  Whereas there are 406 unique shell quartets.

  Frozen-core energy            -75.818535536959 a.u.

  FrozenOneBody Operator takes  0.03155700 s
  Resorting integrals after freezing core.
  Frozen Orbitals takes     0.032 s.

  ==> Reference Transformation to Semicanonical Basis <==

    Transformed 1 cumulants.
    Transformed 2 cumulants and RDMs.
    Transformed 3 cumulants.
  SemiCanonicalize takes 1.966037 s.

  ==> Multireference Driven Similarity Renormalization Group <==

    Reading DSRG options ............................ Done
    Setting ambit MO space .......................... Done
    Preparing tensors for density cumulants ......... Done
    Building Fock matrix ............................ Done

           ----------------------------------------------------------
             Multireference Driven Similarity Renormalization Group
                                  Chenyang Li
           ----------------------------------------------------------

  Additional contributions by: Tianyuan Zhang

  ==> Density Cumulant Summary <==

    2-body             AA           AB           BB
    -----------------------------------------------
    max          0.088855     0.294746     0.088855
    norm         0.177709     0.457482     0.177709
    -----------------------------------------------
    3-body            AAA          AAB          ABB          BBB
    ------------------------------------------------------------
    max          0.000000     0.070835     0.070835     0.000000
    norm         0.000000     0.201773     0.201773     0.000000
    ------------------------------------------------------------

  ==> Checking Semicanonical Orbitals <==

    Abs. max of Fock core, active, virtual blocks (Fij, i != j)
                  core          active         virtual
    --------------------------------------------------
    Fα    0.0000000000    0.0000000000    0.0000000000
    Fβ    0.0000000000    0.0000000000    0.0000000000
    --------------------------------------------------

    1-Norm of Fock core, active, virtual blocks (Fij, i != j)
                  core          active         virtual
    --------------------------------------------------
    Fα    0.0000000000    0.0000000000    0.0000000000
    Fβ    0.0000000000    0.0000000000    0.0000000000
    --------------------------------------------------

    Orbitals are semi-canonicalized.

  ==> Calculation Information <==

    ntamp                                            15
    diis_min_vecs                                     2
    diis_max_vecs                                     5
    flow parameter                            1.000e+00
    taylor expansion threshold                1.000e-03
    intruder_tamp                             1.000e-01
    corr_level                                   LDSRG2
    int_type                                   CHOLESKY
    source operator                            STANDARD
    smart_dsrg_s                                 DSRG_S
    reference relaxation                          TWICE
    dsrg transformation type                    UNITARY
    core virtual source type                     NORMAL
    sequential dsrg transformation                 TRUE
    omit blocks of >= 3 virtual indices            TRUE


  ==> MR-DSRG Ref. Relaxation Iter. 0 <==


  ==> Build Initial Amplitude from DSRG-MRPT2 <==

    Computing T2 amplitudes ...          Done. Timing      0.017 s
    Computing T1 amplitudes ...          Done. Timing      0.003 s

  ==> First-Order Excitation Amplitudes Summary <==

    Active Indices:    1    2 
    Largest T1 amplitudes for spin case A:
       i       a                  i       a                  i       a               
    --------------------------------------------------------------------------------
    [  2       4    ]-0.102482 [  2       3    ]-0.096229 [  0       1    ] 0.039642 
    [  1       4    ]-0.020487 [  1       3    ] 0.007567 [  0       2    ]-0.006770 
    [  2       5    ] 0.004895 [  1       5    ] 0.003080 [  8       9    ] 0.000314 
    [  6       7    ] 0.000314 [  0       3    ]-0.000098 [  0       5    ]-0.000032 
    [  0       4    ] 0.000024 
    --------------------------------------------------------------------------------
    Norm of T1A vector: (nonzero elements: 13)                    0.147954960489507.
    --------------------------------------------------------------------------------
    Largest T1 amplitudes for spin case B:
       _       _                  _       _                  _       _               
       i       a                  i       a                  i       a               
    --------------------------------------------------------------------------------
    [  2       4    ]-0.102482 [  2       3    ]-0.096229 [  0       1    ] 0.039642 
    [  1       4    ]-0.020487 [  1       3    ] 0.007567 [  0       2    ]-0.006770 
    [  2       5    ] 0.004895 [  1       5    ] 0.003080 [  8       9    ] 0.000314 
    [  6       7    ] 0.000314 [  0       3    ]-0.000098 [  0       5    ]-0.000032 
    [  0       4    ] 0.000024 
    --------------------------------------------------------------------------------
    Norm of T1B vector: (nonzero elements: 13)                    0.147954960489507.
    --------------------------------------------------------------------------------
    Largest T2 amplitudes for spin case AA:
       i   j   a   b              i   j   a   b              i   j   a   b           
    --------------------------------------------------------------------------------
    [  1   8   1   9]-0.046847 [  1   6   1   7]-0.046847 [  2   8   1   9]-0.045392 
    [  2   6   1   7]-0.045392 [  2   8   2   9]-0.036069 [  2   6   2   7]-0.036069 
    [  0   1   1   2] 0.034295 [  1   8   2   9]-0.030772 [  1   6   2   7]-0.030772 
    [  1   2   1   3]-0.024606 [  6   8   7   9]-0.024087 [  0   1   1   5]-0.021279 
    [  1   2   1   4]-0.019810 [  2   8   4   9]-0.019572 [  2   6   4   7]-0.019572 
    --------------------------------------------------------------------------------
    Norm of T2AA vector: (nonzero elements: 240)                  0.282243039339020.
    --------------------------------------------------------------------------------
    Largest T2 amplitudes for spin case AB:
           _       _                  _       _                  _       _           
       i   j   a   b              i   j   a   b              i   j   a   b           
    --------------------------------------------------------------------------------
    [  2   2   2   3]-0.075865 [  2   2   1   4]-0.074388 [  0   0   1   1]-0.060156 
    [  2   2   3   3]-0.051716 [  1   2   1   3]-0.050780 [  1   2   1   4]-0.050278 
    [  2   8   1   9]-0.050009 [  2   6   1   7]-0.050009 [  1   8   1   9]-0.048769 
    [  1   6   1   7]-0.048769 [  1   2   2   4]-0.046425 [  2   8   2   9]-0.039894 
    [  2   6   2   7]-0.039894 [  8   8   9   9]-0.036327 [  6   6   7   7]-0.036327 
    --------------------------------------------------------------------------------
    Norm of T2AB vector: (nonzero elements: 405)                  0.349804554642888.
    --------------------------------------------------------------------------------
    Largest T2 amplitudes for spin case BB:
       _   _   _   _              _   _   _   _              _   _   _   _           
       i   j   a   b              i   j   a   b              i   j   a   b           
    --------------------------------------------------------------------------------
    [  1   8   1   9]-0.046847 [  1   6   1   7]-0.046847 [  2   8   1   9]-0.045392 
    [  2   6   1   7]-0.045392 [  2   8   2   9]-0.036069 [  2   6   2   7]-0.036069 
    [  0   1   1   2] 0.034295 [  1   8   2   9]-0.030772 [  1   6   2   7]-0.030772 
    [  1   2   1   3]-0.024606 [  6   8   7   9]-0.024087 [  0   1   1   5]-0.021279 
    [  1   2   1   4]-0.019810 [  2   8   4   9]-0.019572 [  2   6   4   7]-0.019572 
    --------------------------------------------------------------------------------
    Norm of T2BB vector: (nonzero elements: 240)                  0.282243039339020.
    --------------------------------------------------------------------------------

  ==> Possible Intruders <==

    T1 amplitudes larger than 0.1000 for spin case A:
        Amplitude         Value                  Denominator              
    ----------------------------------------------------------------------
    [  2       4    ]   -0.10248220 (  0.076767 -   2.296426 =  -2.219658)
    ----------------------------------------------------------------------
    T1 amplitudes larger than 0.1000 for spin case B:
        Amplitude         Value                  Denominator              
    ----------------------------------------------------------------------
    [  2       4    ]   -0.10248220 (  0.076767 -   2.296426 =  -2.219658)
    ----------------------------------------------------------------------
    T2 amplitudes larger than 0.1000 for spin case AA: NULL
    T2 amplitudes larger than 0.1000 for spin case AB: NULL
    T2 amplitudes larger than 0.1000 for spin case BB: NULL

  ==> Computing MR-LDSRG(2) Energy <==

    Reference:
      J. Chem. Phys. 2016, 144, 164114.

                  Energy (a.u.)           Non-Diagonal Norm        Amplitude RMS         Timings (s)   
           ---------------------------  ---------------------  ---------------------  -----------------
    Iter.        Corr.         Delta       Hbar1      Hbar2        T1         T2        Hbar     Amp.  
    ---------------------------------------------------------------------------------------------------
        0   -0.089444204988 -8.944e-02   1.292e-01  6.365e-01   3.282e-02  1.665e-01    27.462    0.013
        1   -0.092338494071 -2.894e-03   1.330e-01  2.302e-01   1.421e-02  4.481e-02    29.356    0.013
        2   -0.092710576707 -3.721e-04   1.144e-01  1.609e-01   3.232e-03  1.428e-02    27.151    0.019
        3   -0.092828937105 -1.184e-04   1.166e-01  1.604e-01   1.483e-03  4.612e-03    29.133    0.013
        4   -0.092813151246  1.579e-05   1.154e-01  1.577e-01   4.342e-04  1.463e-03    27.244    0.015
        5   -0.092817469398 -4.318e-06   1.156e-01  1.582e-01   1.642e-04  4.651e-04    27.276    0.013 -> DIIS
        6   -0.092815057399  2.412e-06   1.155e-01  1.579e-01   4.699e-05  1.482e-04    27.337    0.013 -> DIIS
        7   -0.092814836900  2.205e-07   1.155e-01  1.580e-01   9.100e-07  5.027e-06    27.173    0.013 -> DIIS
        8   -0.092814891697 -5.480e-08   1.155e-01  1.580e-01   4.800e-07  1.340e-06    27.410    0.013 -> DIIS
        9   -0.092814886269  5.428e-09   1.155e-01  1.580e-01   7.454e-08  3.341e-07    27.531    0.016
    ---------------------------------------------------------------------------------------------------

  ==> MR-LDSRG(2) Energy Summary <==

    E0 (reference)                 =     -99.406062694660378
    MR-LDSRG(2) correlation energy =      -0.092814886269427
    MR-LDSRG(2) total energy       =     -99.498877580929801

  ==> Final Excitation Amplitudes Summary <==

    Active Indices:    1    2 
    Largest T1 amplitudes for spin case A:
       i       a                  i       a                  i       a               
    --------------------------------------------------------------------------------
    [  2       4    ]-0.090639 [  2       3    ]-0.088724 [  0       1    ] 0.048840 
    [  1       4    ]-0.014228 [  0       2    ]-0.010736 [  1       3    ] 0.005453 
    [  2       5    ] 0.002563 [  1       5    ] 0.002029 [  8       9    ] 0.000942 
    [  6       7    ] 0.000942 [  0       5    ]-0.000915 [  0       4    ] 0.000700 
    [  0       3    ] 0.000510 
    --------------------------------------------------------------------------------
    Norm of T1A vector: (nonzero elements: 13)                    0.137237278753182.
    --------------------------------------------------------------------------------
    Largest T1 amplitudes for spin case B:
       _       _                  _       _                  _       _               
       i       a                  i       a                  i       a               
    --------------------------------------------------------------------------------
    [  2       4    ]-0.090639 [  2       3    ]-0.088724 [  0       1    ] 0.048840 
    [  1       4    ]-0.014228 [  0       2    ]-0.010736 [  1       3    ] 0.005453 
    [  2       5    ] 0.002563 [  1       5    ] 0.002029 [  8       9    ] 0.000942 
    [  6       7    ] 0.000942 [  0       5    ]-0.000915 [  0       4    ] 0.000700 
    [  0       3    ] 0.000510 
    --------------------------------------------------------------------------------
    Norm of T1B vector: (nonzero elements: 13)                    0.137237278753182.
    --------------------------------------------------------------------------------
    Largest T2 amplitudes for spin case AA:
       i   j   a   b              i   j   a   b              i   j   a   b           
    --------------------------------------------------------------------------------
    [  0   1   1   2] 0.040491 [  1   8   1   9]-0.037739 [  1   6   1   7]-0.037739 
    [  2   8   1   9]-0.029470 [  2   6   1   7]-0.029470 [  1   8   2   9]-0.024582 
    [  1   6   2   7]-0.024582 [  2   8   2   9]-0.023832 [  2   6   2   7]-0.023832 
    [  6   8   7   9]-0.022886 [  1   2   1   3]-0.021349 [  0   2   1   2]-0.016760 
    [  0   1   1   5]-0.016226 [  1   2   2   3]-0.016008 [  1   8   4   9]-0.015873 
    --------------------------------------------------------------------------------
    Norm of T2AA vector: (nonzero elements: 240)                  0.225831784630300.
    --------------------------------------------------------------------------------
    Largest T2 amplitudes for spin case AB:
           _       _                  _       _                  _       _           
       i   j   a   b              i   j   a   b              i   j   a   b           
    --------------------------------------------------------------------------------
    [  0   0   1   1]-0.067264 [  2   2   2   3]-0.059105 [  1   2   1   3]-0.047923 
    [  8   8   9   9]-0.041493 [  6   6   7   7]-0.041493 [  1   8   1   9]-0.041218 
    [  1   6   1   7]-0.041218 [  0   0   1   2]-0.039050 [  2   2   3   3]-0.038755 
    [  2   8   1   9]-0.034893 [  2   6   1   7]-0.034893 [  2   2   1   4]-0.034474 
    [  6   8   7   9]-0.029908 [  2   8   2   9]-0.029483 [  2   6   2   7]-0.029483 
    --------------------------------------------------------------------------------
    Norm of T2AB vector: (nonzero elements: 405)                  0.297694412109792.
    --------------------------------------------------------------------------------
    Largest T2 amplitudes for spin case BB:
       _   _   _   _              _   _   _   _              _   _   _   _           
       i   j   a   b              i   j   a   b              i   j   a   b           
    --------------------------------------------------------------------------------
    [  0   1   1   2] 0.040491 [  1   8   1   9]-0.037739 [  1   6   1   7]-0.037739 
    [  2   8   1   9]-0.029470 [  2   6   1   7]-0.029470 [  1   8   2   9]-0.024582 
    [  1   6   2   7]-0.024582 [  2   8   2   9]-0.023832 [  2   6   2   7]-0.023832 
    [  6   8   7   9]-0.022886 [  1   2   1   3]-0.021349 [  0   2   1   2]-0.016760 
    [  0   1   1   5]-0.016226 [  1   2   2   3]-0.016008 [  1   8   4   9]-0.015873 
    --------------------------------------------------------------------------------
    Norm of T2BB vector: (nonzero elements: 240)                  0.225831784630300.
    --------------------------------------------------------------------------------

  ==> Possible Intruders <==

    T1 amplitudes larger than 0.1000 for spin case A: NULL
    T1 amplitudes larger than 0.1000 for spin case B: NULL
    T2 amplitudes larger than 0.1000 for spin case AA: NULL
    T2 amplitudes larger than 0.1000 for spin case AB: NULL
    T2 amplitudes larger than 0.1000 for spin case BB: NULL

  ==> De-Normal-Order DSRG Transformed Hamiltonian <==

    Computing the scalar term                ... Done. Timing    0.011 s
    Computing the 1-body term                ... Done. Timing    0.006 s

  ==> Rotate DSRG Transformed Hamiltonian back to Original Basis <==

    Rotating 1-body term to original basis   ... Done. Timing    0.001 s
    Rotating 2-body term to original basis   ... Done. Timing    0.017 s

                -----------------------------------------------
                  String-based Full Configuration Interaction
                          by Francesco A. Evangelista
                -----------------------------------------------

  Number of electrons: 10
  Charge: 0
  Multiplicity: 1
  Davidson subspace max dim: 8
  Davidson subspace min dim: 2
  M_s: 0

  ==> String Lists <==

  Number of alpha electrons     = 1
  Number of beta electrons      = 1
  Number of alpha strings       = 2
  Number of beta strings        = 2
  Timing for strings        =      0.000 s
  Timing for NN strings     =      0.000 s
  Timing for VO strings     =      0.000 s
  Timing for OO strings     =      0.000 s
  Timing for VVOO strings   =      0.000 s
  Timing for VOVO strings   =      0.000 s
  Timing for 1-hole strings =      0.000 s
  Timing for 2-hole strings =      0.000 s
  Timing for 3-hole strings =      0.000 s
  Total timing              =      0.000 s

  ==> FCI Solver <==

    Number of determinants                           4
    Symmetry                                         0
    Multiplicity                                     1
    Number of roots                                  1
    Target root                                      0
    Trial vectors per root                          10

  Allocating memory for the Hamiltonian algorithm. Size: 2 x 2 x 2.   Memory: 0.000000 GB

  ==> FCI Initial Guess <==

  ---------------------------------------------
    Root            Energy     <S^2>   Spin
  ---------------------------------------------
      0      -99.500379477239  0.000  singlet
      1      -99.367410165819  2.000  triplet
      2      -99.095462881114  0.000  singlet
      3      -98.770924131290  0.000  singlet
  ---------------------------------------------
  Timing for initial guess  =      0.001 s

  Projecting out root 1
  ==> Diagonalizing Hamiltonian <==

  ----------------------------------------
    Iter.      Avg. Energy       Delta_E
  ----------------------------------------
      1      -99.500379477239  -9.950e+01
      2      -99.500379477239  +1.421e-14
  ----------------------------------------
  The Davidson-Liu algorithm converged in 3 iterations.

  ==> Root No. 0 <==

    20      0.96300019
    02     -0.26815160

    Total Energy:       -99.500379477238866

  ==> Computing RDMs for Root No. 0 <==

    Timing for 1-RDM: 0.000 s
    Timing for 2-RDM: 0.000 s
    Timing for 3-RDM: 0.000 s

  ==> NATURAL ORBITALS <==

        1A1     1.855873      2A1     0.144127  

  The following reference rotation will make the new reference and integrals in the same basis.

  ==> Reference Transformation to Semicanonical Basis <==

    Transformed 1 cumulants.
    Transformed 2 cumulants and RDMs.
    Transformed 3 cumulants.

  ==> Semicanonicalize Orbitals <==

  Took 0.005964 s to build Fock matrix

  ==> Checking Fock Matrix Diagonal Blocks <==

    Off-Diag. Elements       Max           2-Norm
    ------------------------------------------------
    Fa actv              0.0040511991   0.0057292607
    Fb actv              0.0040511991   0.0057292607
    ------------------------------------------------
    Fa core              0.0000000000   0.0000000000
    Fb core              0.0000000000   0.0000000000
    ------------------------------------------------
    Fa virt              0.0020291207   0.0047258802
    Fb virt              0.0020291207   0.0047258802
    ------------------------------------------------

  ==> Integral Transformation to Semicanonical Basis <==
    Molecular point group: c2v
    Full point group: C_inf_v

    Geometry (in Angstrom), charge = 0, multiplicity = 1:

       Center              X                  Y                   Z               Mass       
    ------------   -----------------  -----------------  -----------------  -----------------
           F          0.000000000000     0.000000000000    -0.075563346012    18.998403224000
           H          0.000000000000     0.000000000000     1.424436653988     1.007825032070

  -AO BASIS SET INFORMATION:
    Name                   = 3-21G
    Blend                  = 3-21G
    Total number of shells = 7
    Number of primitives   = 12
    Number of AO           = 11
    Number of SO           = 11
    Maximum AM             = 1
    Spherical Harmonics    = FALSE

  -Contraction Scheme:
    Atom   Type   All Primitives // Shells:
   ------ ------ --------------------------
       1     F     6s 3p // 3s 2p 
       2     H     3s // 2s 

  ==> AO Basis Functions <==

    [ 3-21G ]
    cartesian
    ****
    F   1
    S   3 1.00
                       413.80100000           0.05854830
                        62.24460000           0.34930800
                        13.43400000           0.70963200
    S   2 1.00
                         9.77759000          -0.40732700
                         2.08617000           1.22314000
    P   2 1.00
                         9.77759000           0.24668000
                         2.08617000           0.85232100
    S   1 1.00
                         0.48238300           1.00000000
    P   1 1.00
                         0.48238300           1.00000000
    ****
    H   2
    S   2 1.00
                         5.44717800           0.15628500
                         0.82454700           0.90469100
    S   1 1.00
                         0.18319200           1.00000000
    ****


 Integrals are about to be computed.
 Computing the Cholesky Vectors 

    Computing CD Integrals               ......Done. Timing        0.015456 s
 Need 0.000039 GB to store cd integrals in core

 Number of cholesky vectors 43 to satisfy       0.000100000000 tolerance

 Integrals are about to be updated.  Using in-core PK algorithm.
   Calculation information:
      Number of atoms:                   2
      Number of AO shells:               7
      Number of primitives:             12
      Number of atomic orbitals:        11
      Number of basis functions:        11

      Integral cutoff                 1.00e-12
      Number of threads:                 1

  Performing in-core PK
  Using 4422 doubles for integral storage.
  We computed 406 shell quartets total.
  Whereas there are 406 unique shell quartets.

  Frozen-core energy            -75.818535536959 a.u.

  FrozenOneBody Operator takes  0.03419100 s
  Resorting integrals after freezing core.
  Frozen Orbitals takes     0.034 s.

  ==> Reference Transformation to Semicanonical Basis <==

    Transformed 1 cumulants.
    Transformed 2 cumulants and RDMs.
    Transformed 3 cumulants.
  SemiCanonicalize takes 1.988748 s.

  ==> Density Cumulant Summary <==

    2-body             AA           AB           BB
    -----------------------------------------------
    max          0.066870     0.257509     0.066870
    norm         0.133740     0.389393     0.133740
    -----------------------------------------------
    3-body            AAA          AAB          ABB          BBB
    ------------------------------------------------------------
    max          0.000000     0.057074     0.057074     0.000000
    norm         0.000000     0.161878     0.161878     0.000000
    ------------------------------------------------------------

  ==> MR-DSRG Ref. Relaxation Iter. 1 <==


  ==> Build Initial Amplitude from DSRG-MRPT2 <==

    Computing T2 amplitudes ...          Done. Timing      0.015 s
    Computing T1 amplitudes ...          Done. Timing      0.003 s

  ==> First-Order Excitation Amplitudes Summary <==

    Active Indices:    1    2 
    Largest T1 amplitudes for spin case A:
       i       a                  i       a                  i       a               
    --------------------------------------------------------------------------------
    [  2       4    ] 0.105135 [  2       3    ] 0.095037 [  0       1    ]-0.041036 
    [  1       4    ] 0.020373 [  1       3    ]-0.007333 [  0       2    ] 0.007245 
    [  2       5    ]-0.005490 [  1       5    ]-0.003148 [  6       7    ]-0.001857 
    [  8       9    ]-0.001857 [  0       5    ] 0.001075 [  0       4    ]-0.000078 
    [  0       3    ]-0.000077 
    --------------------------------------------------------------------------------
    Norm of T1A vector: (nonzero elements: 13)                    0.149461399681282.
    --------------------------------------------------------------------------------
    Largest T1 amplitudes for spin case B:
       _       _                  _       _                  _       _               
       i       a                  i       a                  i       a               
    --------------------------------------------------------------------------------
    [  2       4    ] 0.105135 [  2       3    ] 0.095037 [  0       1    ]-0.041036 
    [  1       4    ] 0.020373 [  1       3    ]-0.007333 [  0       2    ] 0.007245 
    [  2       5    ]-0.005490 [  1       5    ]-0.003148 [  6       7    ]-0.001857 
    [  8       9    ]-0.001857 [  0       5    ] 0.001075 [  0       4    ]-0.000078 
    [  0       3    ]-0.000077 
    --------------------------------------------------------------------------------
    Norm of T1B vector: (nonzero elements: 13)                    0.149461399681282.
    --------------------------------------------------------------------------------
    Largest T2 amplitudes for spin case AA:
       i   j   a   b              i   j   a   b              i   j   a   b           
    --------------------------------------------------------------------------------
    [  1   8   1   9]-0.046372 [  1   6   1   7]-0.046372 [  2   8   1   9]-0.045787 
    [  2   6   1   7]-0.045787 [  2   8   2   9]-0.036575 [  2   6   2   7]-0.036575 
    [  0   1   1   2]-0.034455 [  1   8   2   9]-0.030703 [  1   6   2   7]-0.030703 
    [  1   2   1   3] 0.024427 [  6   8   7   9]-0.024097 [  0   1   1   5]-0.021060 
    [  1   2   1   4] 0.019727 [  2   8   4   9] 0.019693 [  2   6   4   7] 0.019693 
    --------------------------------------------------------------------------------
    Norm of T2AA vector: (nonzero elements: 240)                  0.282519115758488.
    --------------------------------------------------------------------------------
    Largest T2 amplitudes for spin case AB:
           _       _                  _       _                  _       _           
       i   j   a   b              i   j   a   b              i   j   a   b           
    --------------------------------------------------------------------------------
    [  2   2   1   4] 0.075120 [  2   2   2   3] 0.074787 [  0   0   1   1]-0.060630 
    [  2   2   3   3]-0.052070 [  1   2   1   3] 0.050811 [  2   8   1   9]-0.050419 
    [  2   6   1   7]-0.050419 [  1   2   1   4] 0.049765 [  1   8   1   9]-0.048253 
    [  1   6   1   7]-0.048253 [  1   2   2   4] 0.046377 [  2   8   2   9]-0.040444 
    [  2   6   2   7]-0.040444 [  8   8   9   9]-0.036341 [  6   6   7   7]-0.036341 
    --------------------------------------------------------------------------------
    Norm of T2AB vector: (nonzero elements: 405)                  0.349793194137400.
    --------------------------------------------------------------------------------
    Largest T2 amplitudes for spin case BB:
       _   _   _   _              _   _   _   _              _   _   _   _           
       i   j   a   b              i   j   a   b              i   j   a   b           
    --------------------------------------------------------------------------------
    [  1   8   1   9]-0.046372 [  1   6   1   7]-0.046372 [  2   8   1   9]-0.045787 
    [  2   6   1   7]-0.045787 [  2   8   2   9]-0.036575 [  2   6   2   7]-0.036575 
    [  0   1   1   2]-0.034455 [  1   8   2   9]-0.030703 [  1   6   2   7]-0.030703 
    [  1   2   1   3] 0.024427 [  6   8   7   9]-0.024097 [  0   1   1   5]-0.021060 
    [  1   2   1   4] 0.019727 [  2   8   4   9] 0.019693 [  2   6   4   7] 0.019693 
    --------------------------------------------------------------------------------
    Norm of T2BB vector: (nonzero elements: 240)                  0.282519115758488.
    --------------------------------------------------------------------------------

  ==> Possible Intruders <==

    T1 amplitudes larger than 0.1000 for spin case A:
        Amplitude         Value                  Denominator              
    ----------------------------------------------------------------------
    [  2       4    ]    0.10513481 (  0.086375 -   2.310195 =  -2.223819)
    ----------------------------------------------------------------------
    T1 amplitudes larger than 0.1000 for spin case B:
        Amplitude         Value                  Denominator              
    ----------------------------------------------------------------------
    [  2       4    ]    0.10513481 (  0.086375 -   2.310195 =  -2.223819)
    ----------------------------------------------------------------------
    T2 amplitudes larger than 0.1000 for spin case AA: NULL
    T2 amplitudes larger than 0.1000 for spin case AB: NULL
    T2 amplitudes larger than 0.1000 for spin case BB: NULL

  ==> Computing MR-LDSRG(2) Energy <==

    Reference:
      J. Chem. Phys. 2016, 144, 164114.

                  Energy (a.u.)           Non-Diagonal Norm        Amplitude RMS         Timings (s)   
           ---------------------------  ---------------------  ---------------------  -----------------
    Iter.        Corr.         Delta       Hbar1      Hbar2        T1         T2        Hbar     Amp.  
    ---------------------------------------------------------------------------------------------------
        0   -0.090925765277 -9.093e-02   1.356e-01  6.426e-01   3.403e-02  1.692e-01    29.538    0.013
        1   -0.093668073585 -2.742e-03   1.367e-01  2.374e-01   1.408e-02  4.658e-02    29.250    0.013
        2   -0.094039836306 -3.718e-04   1.187e-01  1.647e-01   3.159e-03  1.485e-02    27.301    0.013
        3   -0.094143241724 -1.034e-04   1.208e-01  1.645e-01   1.469e-03  4.818e-03    31.115    0.013
        4   -0.094133111220  1.013e-05   1.197e-01  1.616e-01   4.317e-04  1.507e-03    28.530    0.014
        5   -0.094136523832 -3.413e-06   1.199e-01  1.621e-01   1.630e-04  4.760e-04    30.226    0.016 -> DIIS
        6   -0.094134855269  1.669e-06   1.198e-01  1.619e-01   4.625e-05  1.493e-04    29.905    0.026 -> DIIS
        7   -0.094134593797  2.615e-07   1.198e-01  1.619e-01   1.175e-06  5.418e-06    28.478    0.013 -> DIIS
        8   -0.094134627102 -3.330e-08   1.198e-01  1.619e-01   5.023e-07  1.431e-06    27.697    0.013 -> DIIS
        9   -0.094134618188  8.913e-09   1.198e-01  1.619e-01   8.257e-08  3.681e-07    27.336    0.013
    ---------------------------------------------------------------------------------------------------

  ==> MR-LDSRG(2) Energy Summary <==

    E0 (reference)                 =     -99.406062694660378
    MR-LDSRG(2) correlation energy =      -0.094134618188403
    MR-LDSRG(2) total energy       =     -99.500197312848783

  ==> Final Excitation Amplitudes Summary <==

    Active Indices:    1    2 
    Largest T1 amplitudes for spin case A:
       i       a                  i       a                  i       a               
    --------------------------------------------------------------------------------
    [  2       4    ] 0.092387 [  2       3    ] 0.087236 [  0       1    ]-0.050383 
    [  1       4    ] 0.014246 [  0       2    ] 0.010913 [  1       3    ]-0.005085 
    [  2       5    ]-0.002918 [  1       5    ]-0.002098 [  6       7    ]-0.000583 
    [  8       9    ]-0.000583 [  0       4    ] 0.000567 [  0       3    ] 0.000478 
    [  0       5    ]-0.000132 
    --------------------------------------------------------------------------------
    Norm of T1A vector: (nonzero elements: 13)                    0.138007030435984.
    --------------------------------------------------------------------------------
    Largest T1 amplitudes for spin case B:
       _       _                  _       _                  _       _               
       i       a                  i       a                  i       a               
    --------------------------------------------------------------------------------
    [  2       4    ] 0.092387 [  2       3    ] 0.087236 [  0       1    ]-0.050383 
    [  1       4    ] 0.014246 [  0       2    ] 0.010913 [  1       3    ]-0.005085 
    [  2       5    ]-0.002918 [  1       5    ]-0.002098 [  6       7    ]-0.000583 
    [  8       9    ]-0.000583 [  0       4    ] 0.000567 [  0       3    ] 0.000478 
    [  0       5    ]-0.000132 
    --------------------------------------------------------------------------------
    Norm of T1B vector: (nonzero elements: 13)                    0.138007030435984.
    --------------------------------------------------------------------------------
    Largest T2 amplitudes for spin case AA:
       i   j   a   b              i   j   a   b              i   j   a   b           
    --------------------------------------------------------------------------------
    [  0   1   1   2]-0.040585 [  1   8   1   9]-0.037336 [  1   6   1   7]-0.037336 
    [  2   8   1   9]-0.029486 [  2   6   1   7]-0.029486 [  1   8   2   9]-0.024630 
    [  1   6   2   7]-0.024630 [  2   8   2   9]-0.024097 [  2   6   2   7]-0.024097 
    [  6   8   7   9]-0.022865 [  1   2   1   3] 0.021203 [  0   2   1   2] 0.016448 
    [  1   2   2   3] 0.016319 [  0   1   1   5]-0.016052 [  1   8   4   9] 0.015775 
    --------------------------------------------------------------------------------
    Norm of T2AA vector: (nonzero elements: 240)                  0.225493987836327.
    --------------------------------------------------------------------------------
    Largest T2 amplitudes for spin case AB:
           _       _                  _       _                  _       _           
       i   j   a   b              i   j   a   b              i   j   a   b           
    --------------------------------------------------------------------------------
    [  0   0   1   1]-0.066529 [  2   2   2   3] 0.057695 [  1   2   1   3] 0.047479 
    [  8   8   9   9]-0.041484 [  6   6   7   7]-0.041484 [  1   8   1   9]-0.040758 
    [  1   6   1   7]-0.040758 [  0   0   1   2]-0.039172 [  2   2   3   3]-0.038493 
    [  2   8   1   9]-0.034838 [  2   6   1   7]-0.034838 [  2   2   1   4] 0.034464 
    [  6   8   7   9]-0.029893 [  2   8   2   9]-0.029801 [  2   6   2   7]-0.029801 
    --------------------------------------------------------------------------------
    Norm of T2AB vector: (nonzero elements: 405)                  0.296612100091382.
    --------------------------------------------------------------------------------
    Largest T2 amplitudes for spin case BB:
       _   _   _   _              _   _   _   _              _   _   _   _           
       i   j   a   b              i   j   a   b              i   j   a   b           
    --------------------------------------------------------------------------------
    [  0   1   1   2]-0.040585 [  1   8   1   9]-0.037336 [  1   6   1   7]-0.037336 
    [  2   8   1   9]-0.029486 [  2   6   1   7]-0.029486 [  1   8   2   9]-0.024630 
    [  1   6   2   7]-0.024630 [  2   8   2   9]-0.024097 [  2   6   2   7]-0.024097 
    [  6   8   7   9]-0.022865 [  1   2   1   3] 0.021203 [  0   2   1   2] 0.016448 
    [  1   2   2   3] 0.016319 [  0   1   1   5]-0.016052 [  1   8   4   9] 0.015775 
    --------------------------------------------------------------------------------
    Norm of T2BB vector: (nonzero elements: 240)                  0.225493987836326.
    --------------------------------------------------------------------------------

  ==> Possible Intruders <==

    T1 amplitudes larger than 0.1000 for spin case A: NULL
    T1 amplitudes larger than 0.1000 for spin case B: NULL
    T2 amplitudes larger than 0.1000 for spin case AA: NULL
    T2 amplitudes larger than 0.1000 for spin case AB: NULL
    T2 amplitudes larger than 0.1000 for spin case BB: NULL

  ==> De-Normal-Order DSRG Transformed Hamiltonian <==

    Computing the scalar term                ... Done. Timing    0.007 s
    Computing the 1-body term                ... Done. Timing    0.004 s

  ==> Rotate DSRG Transformed Hamiltonian back to Original Basis <==

    Rotating 1-body term to original basis   ... Done. Timing    0.001 s
    Rotating 2-body term to original basis   ... Done. Timing    0.017 s

                -----------------------------------------------
                  String-based Full Configuration Interaction
                          by Francesco A. Evangelista
                -----------------------------------------------

  Number of electrons: 10
  Charge: 0
  Multiplicity: 1
  Davidson subspace max dim: 8
  Davidson subspace min dim: 2
  M_s: 0

  ==> String Lists <==

  Number of alpha electrons     = 1
  Number of beta electrons      = 1
  Number of alpha strings       = 2
  Number of beta strings        = 2
  Timing for strings        =      0.000 s
  Timing for NN strings     =      0.000 s
  Timing for VO strings     =      0.000 s
  Timing for OO strings     =      0.000 s
  Timing for VVOO strings   =      0.000 s
  Timing for VOVO strings   =      0.000 s
  Timing for 1-hole strings =      0.000 s
  Timing for 2-hole strings =      0.000 s
  Timing for 3-hole strings =      0.000 s
  Total timing              =      0.000 s

  ==> FCI Solver <==

    Number of determinants                           4
    Symmetry                                         0
    Multiplicity                                     1
    Number of roots                                  1
    Target root                                      0
    Trial vectors per root                          10

  Allocating memory for the Hamiltonian algorithm. Size: 2 x 2 x 2.   Memory: 0.000000 GB

  ==> FCI Initial Guess <==

  ---------------------------------------------
    Root            Energy     <S^2>   Spin
  ---------------------------------------------
      0      -99.500197648417  0.000  singlet
      1      -99.366873495250  2.000  triplet
      2      -99.094278741275  0.000  singlet
      3      -98.769930996434  0.000  singlet
  ---------------------------------------------
  Timing for initial guess  =      0.001 s

  Projecting out root 1
  ==> Diagonalizing Hamiltonian <==

  ----------------------------------------
    Iter.      Avg. Energy       Delta_E
  ----------------------------------------
      1      -99.500197648417  -9.950e+01
      2      -99.500197648417  -2.842e-14
  ----------------------------------------
  The Davidson-Liu algorithm converged in 3 iterations.

  ==> Root No. 0 <==

    20     -0.96113777
    02      0.26541944

    Total Energy:       -99.500197648416830

  ==> Computing RDMs for Root No. 0 <==

    Timing for 1-RDM: 0.000 s
    Timing for 2-RDM: 0.000 s
    Timing for 3-RDM: 0.000 s

  ==> NATURAL ORBITALS <==

        1A1     1.856603      2A1     0.143397  

  The following reference rotation will make the new reference and integrals in the same basis.

  ==> Reference Transformation to Semicanonical Basis <==

    Transformed 1 cumulants.
    Transformed 2 cumulants and RDMs.
    Transformed 3 cumulants.

  ==> Semicanonicalize Orbitals <==

  Took 0.002569 s to build Fock matrix

  ==> Checking Fock Matrix Diagonal Blocks <==

    Off-Diag. Elements       Max           2-Norm
    ------------------------------------------------
    Fa actv              0.0000576976   0.0000815967
    Fb actv              0.0000576976   0.0000815967
    ------------------------------------------------
    Fa core              0.0000000000   0.0000000000
    Fb core              0.0000000000   0.0000000000
    ------------------------------------------------
    Fa virt              0.0000319946   0.0000734919
    Fb virt              0.0000319946   0.0000734919
    ------------------------------------------------

  ==> Integral Transformation to Semicanonical Basis <==
    Molecular point group: c2v
    Full point group: C_inf_v

    Geometry (in Angstrom), charge = 0, multiplicity = 1:

       Center              X                  Y                   Z               Mass       
    ------------   -----------------  -----------------  -----------------  -----------------
           F          0.000000000000     0.000000000000    -0.075563346012    18.998403224000
           H          0.000000000000     0.000000000000     1.424436653988     1.007825032070

  -AO BASIS SET INFORMATION:
    Name                   = 3-21G
    Blend                  = 3-21G
    Total number of shells = 7
    Number of primitives   = 12
    Number of AO           = 11
    Number of SO           = 11
    Maximum AM             = 1
    Spherical Harmonics    = FALSE

  -Contraction Scheme:
    Atom   Type   All Primitives // Shells:
   ------ ------ --------------------------
       1     F     6s 3p // 3s 2p 
       2     H     3s // 2s 

  ==> AO Basis Functions <==

    [ 3-21G ]
    cartesian
    ****
    F   1
    S   3 1.00
                       413.80100000           0.05854830
                        62.24460000           0.34930800
                        13.43400000           0.70963200
    S   2 1.00
                         9.77759000          -0.40732700
                         2.08617000           1.22314000
    P   2 1.00
                         9.77759000           0.24668000
                         2.08617000           0.85232100
    S   1 1.00
                         0.48238300           1.00000000
    P   1 1.00
                         0.48238300           1.00000000
    ****
    H   2
    S   2 1.00
                         5.44717800           0.15628500
                         0.82454700           0.90469100
    S   1 1.00
                         0.18319200           1.00000000
    ****


 Integrals are about to be computed.
 Computing the Cholesky Vectors 

    Computing CD Integrals               ......Done. Timing        0.016005 s
 Need 0.000039 GB to store cd integrals in core

 Number of cholesky vectors 43 to satisfy       0.000100000000 tolerance

 Integrals are about to be updated.  Using in-core PK algorithm.
   Calculation information:
      Number of atoms:                   2
      Number of AO shells:               7
      Number of primitives:             12
      Number of atomic orbitals:        11
      Number of basis functions:        11

      Integral cutoff                 1.00e-12
      Number of threads:                 1

  Performing in-core PK
  Using 4422 doubles for integral storage.
  We computed 406 shell quartets total.
  Whereas there are 406 unique shell quartets.

  Frozen-core energy            -75.818535536959 a.u.

  FrozenOneBody Operator takes  0.03434300 s
  Resorting integrals after freezing core.
  Frozen Orbitals takes     0.035 s.

  ==> Reference Transformation to Semicanonical Basis <==

    Transformed 1 cumulants.
    Transformed 2 cumulants and RDMs.
    Transformed 3 cumulants.
  SemiCanonicalize takes 1.977388 s.

  ==> Density Cumulant Summary <==

    2-body             AA           AB           BB
    -----------------------------------------------
    max          0.066558     0.256927     0.066558
    norm         0.133116     0.388375     0.133116
    -----------------------------------------------
    3-body            AAA          AAB          ABB          BBB
    ------------------------------------------------------------
    max          0.000000     0.056859     0.056859     0.000000
    norm         0.000000     0.161259     0.161259     0.000000
    ------------------------------------------------------------

  ==> MRDSRG Reference Relaxation Summary <==

                  Fixed Ref. (a.u.)               Relaxed Ref. (a.u.)      
           -------------------------------  -------------------------------
    Iter.      Total Energy        Delta        Total Energy        Delta  
    -----------------------------------------------------------------------
        0      -99.498877580930 -9.950e+01      -99.500379477239 -9.950e+01
        1      -99.500197312849 -1.320e-03      -99.500197648417  1.818e-04
    -----------------------------------------------------------------------
    MRDSRG Total Energy            =     -99.500197312848783
    MRDSRG Total Energy (relaxed)  =     -99.500197648416830


  ==> Total Timings (s) for Computing Commutators <==

             [H1, T1]    [H1, T2]    [H2, T1]    [H2, T2]
    -----------------------------------------------------
    -> C0       0.000       0.907       0.000      30.233
    -> C1       0.000       6.749       0.000     190.124
    -> C2                  22.378       0.000     360.827
    -----------------------------------------------------
	MRDSRG unrelaxed energy...........................................PASSED
	MRDSRG partially relaxed energy...................................PASSED
	MRDSRG relaxed energy.............................................PASSED

*** Psi4 exiting successfully. Buy a developer a beer!
