    -----------------------------------------------------------------------
          Psi4: An Open-Source Ab Initio Electronic Structure Package
                              Psi4 0.1.233 Driver

                          Git: Rev {detached?} ced593a dirty

    J. M. Turney, A. C. Simmonett, R. M. Parrish, E. G. Hohenstein,
    F. A. Evangelista, J. T. Fermann, B. J. Mintz, L. A. Burns, J. J. Wilke,
    M. L. Abrams, N. J. Russ, M. L. Leininger, C. L. Janssen, E. T. Seidl,
    W. D. Allen, H. F. Schaefer, R. A. King, E. F. Valeev, C. D. Sherrill,
    and T. D. Crawford, WIREs Comput. Mol. Sci. 2, 556-565 (2012)
    (doi: 10.1002/wcms.93)

                         Additional Contributions by
    A. E. DePrince, M. Saitow, U. Bozkaya, A. Yu. Sokolov
    -----------------------------------------------------------------------


    Psi4 started on: 11-21-2015  01:31:43 PM EST

    Process ID:  75248
    PSI4DATADIR: /Users/kevinhannon/Programs/psi4cmake/psi4/lib
    Memory level set to 256.000 MB

  ==> Input File <==

--------------------------------------------------------------------------
#! CASSCF/6-31G** energy point
import forte
fci_energy = -75.604094638821891

molecule {
O
H 1 1.00
H 1 1.00 2 103.1
units angstrom
}

set {
    scf_type        df
    basis           3-21g
    reference       rhf
    #FROZEN_DOCC     [1, 0, 0, 0]
    #active          [3, 0, 1, 2]
    e_convergence   1e-6
    d_convergence   1e-6
    mcscf_type      conv
}

#casscf_energy = energy('casscf')
energy('scf')
set scf_type df
set forte {
    int_type        conventional
    ALTERNATIVE_CASSCF     FTHF
    TEMPERATURE            500.0
    print                  1
    RESTRICTED_DOCC         [1, 0, 0, 0]
    ACTIVE                  [3, 0, 1, 2]
    job_type                FCI
}


mints()
fci_actual  = energy('forte')

compare_values(fci_energy,fci_actual, 4, 'FT-CAS-CI Energy')  #TEST
--------------------------------------------------------------------------
/Users/kevinhannon/Programs/forte/forte.so loaded.

*** tstart() called on Kevins-MacBook-Pro-2.local
*** at Sat Nov 21 13:31:43 2015

    There are an even number of electrons - assuming singlet.
    Specify the multiplicity with the MULTP option in the
    input if this is incorrect


         ---------------------------------------------------------
                                   SCF
            by Justin Turney, Rob Parrish, and Andy Simmonett
                              RHF Reference
                        1 Threads,    256 MiB Core
         ---------------------------------------------------------

  ==> Geometry <==

    Molecular point group: c2v
    Full point group: C2v

    Geometry (in Angstrom), charge = 0, multiplicity = 1:

       Center              X                  Y                   Z       
    ------------   -----------------  -----------------  -----------------
           O          0.000000000000     0.000000000000    -0.069592187390
           H          0.000000000000    -0.783151105291     0.552239257844
           H          0.000000000000     0.783151105291     0.552239257844

  Running in c2v symmetry.

  Rotational constants: A =     24.35462  B =     13.63610  C =      8.74166 [cm^-1]
  Rotational constants: A = 730133.20983  B = 408800.03934  C = 262068.46197 [MHz]
  Nuclear repulsion =    8.804686618639057

  Charge       = 0
  Multiplicity = 1
  Electrons    = 10
  Nalpha       = 5
  Nbeta        = 5

  ==> Algorithm <==

  SCF Algorithm Type is DF.
  DIIS enabled.
  MOM disabled.
  Fractional occupation disabled.
  Guess Type is CORE.
  Energy threshold   = 1.00e-06
  Density threshold  = 1.00e-06
  Integral threshold = 0.00e+00

  ==> Primary Basis <==

  Basis Set: 3-21G
    Number of shells: 9
    Number of basis function: 13
    Number of Cartesian functions: 13
    Spherical Harmonics?: false
    Max angular momentum: 1

  ==> Pre-Iterations <==

   -------------------------------------------------------
    Irrep   Nso     Nmo     Nalpha   Nbeta   Ndocc  Nsocc
   -------------------------------------------------------
     A1         7       7       0       0       0       0
     A2         0       0       0       0       0       0
     B1         2       2       0       0       0       0
     B2         4       4       0       0       0       0
   -------------------------------------------------------
    Total      13      13       5       5       5       0
   -------------------------------------------------------

 OEINTS: Overlap, kinetic, potential, dipole, and quadrupole integrals
         stored in file 35.

  ==> Integral Setup <==

  ==> DFJK: Density-Fitted J/K Matrices <==

    J tasked:                  Yes
    K tasked:                  Yes
    wK tasked:                  No
    OpenMP threads:              1
    Integrals threads:           1
    Memory (MB):               183
    Algorithm:                Core
    Integral Cache:           NONE
    Schwarz Cutoff:          1E-12
    Fitting Condition:       1E-12

   => Auxiliary Basis Set <=

  Basis Set: 
    Number of shells: 30
    Number of basis function: 96
    Number of Cartesian functions: 96
    Spherical Harmonics?: false
    Max angular momentum: 3

  Minimum eigenvalue in the overlap matrix is 1.1629436767E-01.
  Using Symmetric Orthogonalization.
  SCF Guess: Core (One-Electron) Hamiltonian.

  ==> Iterations <==

                           Total Energy        Delta E     RMS |[F,P]|

    Occupation by irrep:
             A1    A2    B1    B2 
    DOCC [     3,    0,    0,    2 ]

   @DF-RHF iter   1:   -66.02990358714361   -6.60299e+01   4.81881e-01 
    Occupation by irrep:
             A1    A2    B1    B2 
    DOCC [     3,    0,    1,    1 ]

   @DF-RHF iter   2:   -70.16670420416926   -4.13680e+00   3.19178e-01 DIIS
   @DF-RHF iter   3:   -75.36543291154882   -5.19873e+00   8.96299e-02 DIIS
   @DF-RHF iter   4:   -75.57357917449283   -2.08146e-01   1.41635e-02 DIIS
   @DF-RHF iter   5:   -75.58421798557309   -1.06388e-02   4.30720e-03 DIIS
   @DF-RHF iter   6:   -75.58470049240826   -4.82507e-04   8.95014e-04 DIIS
   @DF-RHF iter   7:   -75.58473992763352   -3.94352e-05   2.43937e-04 DIIS
   @DF-RHF iter   8:   -75.58474202358242   -2.09595e-06   2.58956e-05 DIIS
   @DF-RHF iter   9:   -75.58474210172558   -7.81432e-08   5.62696e-06 DIIS
   @DF-RHF iter  10:   -75.58474210270415   -9.78574e-10   1.18962e-06 DIIS
   @DF-RHF iter  11:   -75.58474210273801   -3.38503e-11   6.77147e-08 DIIS

  ==> Post-Iterations <==

    Orbital Energies (a.u.)
    -----------------------

    Doubly Occupied:                                                      

       1A1   -20.439437     2A1    -1.310733     1B2    -0.661060  
       3A1    -0.534546     1B1    -0.478868  

    Virtual:                                                              

       4A1     0.250212     2B2     0.346171     3B2     1.167457  
       5A1     1.263502     2B1     1.781009     6A1     1.882008  
       4B2     2.015478     7A1     3.089525  

    Final Occupation by Irrep:
             A1    A2    B1    B2 
    DOCC [     3,    0,    1,    1 ]

  Energy converged.

  @DF-RHF Final Energy:   -75.58474210273801

   => Energetics <=

    Nuclear Repulsion Energy =              8.8046866186390567
    One-Electron Energy =                -121.9295659888877168
    Two-Electron Energy =                  37.5401372675106444
    DFT Exchange-Correlation Energy =       0.0000000000000000
    Empirical Dispersion Energy =           0.0000000000000000
    PCM Polarization Energy =               0.0000000000000000
    EFP Energy =                            0.0000000000000000
    Total Energy =                        -75.5847421027380193

    Alert: EFP and PCM quantities not currently incorporated into SCF psivars.

Properties will be evaluated at   0.000000,   0.000000,   0.000000 Bohr
  ==> Properties <==


Properties computed using the SCF density matrix

  Nuclear Dipole Moment: (a.u.)
     X:     0.0000      Y:     0.0000      Z:     1.0351

  Electronic Dipole Moment: (a.u.)
     X:     0.0000      Y:     0.0000      Z:    -0.0683

  Dipole Moment: (a.u.)
     X:     0.0000      Y:     0.0000      Z:     0.9668     Total:     0.9668

  Dipole Moment: (Debye)
     X:     0.0000      Y:     0.0000      Z:     2.4574     Total:     2.4574


  Saving occupied orbitals to File 180.

*** tstop() called on Kevins-MacBook-Pro-2.local at Sat Nov 21 13:31:43 2015
Module time:
	user time   =       0.23 seconds =       0.00 minutes
	system time =       0.01 seconds =       0.00 minutes
	total time  =          0 seconds =       0.00 minutes
Total time:
	user time   =       0.23 seconds =       0.00 minutes
	system time =       0.01 seconds =       0.00 minutes
	total time  =          0 seconds =       0.00 minutes

*** tstart() called on Kevins-MacBook-Pro-2.local
*** at Sat Nov 21 13:31:43 2015

    Molecular point group: c2v
    Full point group: C2v

    Geometry (in Angstrom), charge = 0, multiplicity = 1:

       Center              X                  Y                   Z       
    ------------   -----------------  -----------------  -----------------
           O          0.000000000000     0.000000000000    -0.069592187390
           H          0.000000000000    -0.783151105291     0.552239257844
           H          0.000000000000     0.783151105291     0.552239257844

  -AO BASIS SET INFORMATION:
    Name                   = 3-21G
    Total number of shells = 9
    Number of primitives   = 15
    Number of AO           = 13
    Number of SO           = 13
    Maximum AM             = 1
    Spherical Harmonics    = FALSE

  -Contraction Scheme:
    Atom   Type   All Primitives // Shells:
   ------ ------ --------------------------
       1     O     6s 3p // 3s 2p 
       2     H     3s // 2s 
       3     H     3s // 2s 

  ==> AO Basis Functions <==

    [ 3-21G ]
    cartesian
    ****
    O   1
    S   3 1.00
                       322.03700000           0.05923940
                        48.43080000           0.35150000
                        10.42060000           0.70765800
    S   2 1.00
                         7.40294000          -0.40445300
                         1.57620000           1.22156000
    P   2 1.00
                         7.40294000           0.24458600
                         1.57620000           0.85395500
    S   1 1.00
                         0.37368400           1.00000000
    P   1 1.00
                         0.37368400           1.00000000
    ****
    H   2
    S   2 1.00
                         5.44717800           0.15628500
                         0.82454700           0.90469100
    S   1 1.00
                         0.18319200           1.00000000
    ****

 MINTS: Wrapper to libmints.
   by Justin Turney

   Calculation information:
      Number of atoms:                   3
      Number of AO shells:               9
      Number of SO shells:               7
      Number of primitives:             15
      Number of atomic orbitals:        13
      Number of basis functions:        13

      Number of irreps:                  4
      Integral cutoff                 1.00e-12
      Number of functions per irrep: [   7    0    2    4 ]

 OEINTS: Overlap, kinetic, potential, dipole, and quadrupole integrals
         stored in file 35.

      Computing two-electron integrals...done
      Computed 1270 non-zero two-electron integrals.
        Stored in file 33.


*** tstop() called on Kevins-MacBook-Pro-2.local at Sat Nov 21 13:31:43 2015
Module time:
	user time   =       0.05 seconds =       0.00 minutes
	system time =       0.01 seconds =       0.00 minutes
	total time  =          0 seconds =       0.00 minutes
Total time:
	user time   =       0.28 seconds =       0.00 minutes
	system time =       0.02 seconds =       0.00 minutes
	total time  =          0 seconds =       0.00 minutes
Reading options from the FORTE block
Calling plugin /Users/kevinhannon/Programs/forte/forte.so.


  ==> MO Space Information <==

  Read options for space RESTRICTED_DOCC
  Read options for space ACTIVE
  -------------------------------------------------
                       A1    A2    B1    B2   Sum
  -------------------------------------------------
    FROZEN_DOCC         0     0     0     0     0
    RESTRICTED_DOCC     1     0     0     0     1
    ACTIVE              3     0     1     2     6
    RESTRICTED_UOCC     3     0     1     2     6
    FROZEN_UOCC         0     0     0     0     0
    Total               7     0     2     4    13
  -------------------------------------------------

  ==> Integral Transformation <==

  Number of molecular orbitals:               13
  Number of correlated molecular orbitals:    13
  Number of frozen occupied orbitals:          0
  Number of frozen unoccupied orbitals:        0


  Overall Conventional Integrals timings

	Presorting SO-basis two-electron integrals.
	Sorting File: SO Ints (nn|nn) nbuckets = 1
	Transforming the one-electron integrals and constructing Fock matrices
	Starting first half-transformation.
	Sorting half-transformed integrals.
	First half integral transformation complete.
	Starting second half-transformation.
	Two-electron integral transformation complete.

  Integral transformation done. 0.00730900 s
  Reading the two-electron integrals from disk
  Size of two-electron integrals:   0.000638 GB
  Conventional integrals take 0.00932600 s    There are an even number of electrons - assuming singlet.
    Specify the multiplicity with the MULTP option in the
    input if this is incorrect


         ---------------------------------------------------------
                                   SCF
            by Justin Turney, Rob Parrish, and Andy Simmonett
                              RHF Reference
                        1 Threads,    256 MiB Core
         ---------------------------------------------------------

  ==> Geometry <==

    Molecular point group: c2v
    Full point group: C2v

    Geometry (in Angstrom), charge = 0, multiplicity = 1:

       Center              X                  Y                   Z       
    ------------   -----------------  -----------------  -----------------
           O          0.000000000000     0.000000000000    -0.069592187390
           H          0.000000000000    -0.783151105291     0.552239257844
           H          0.000000000000     0.783151105291     0.552239257844

  Running in c2v symmetry.

  Rotational constants: A =     24.35462  B =     13.63610  C =      8.74166 [cm^-1]
  Rotational constants: A = 730133.20983  B = 408800.03934  C = 262068.46197 [MHz]
  Nuclear repulsion =    8.804686618639057

  Charge       = 0
  Multiplicity = 1
  Electrons    = 10
  Nalpha       = 5
  Nbeta        = 5

  ==> Algorithm <==

  SCF Algorithm Type is DF.
  DIIS enabled.
  MOM disabled.
  Fractional occupation disabled.
  Guess Type is CORE.
  Energy threshold   = 1.00e-06
  Density threshold  = 1.00e-06
  Integral threshold = 1.00e-12

  ==> Primary Basis <==

  Basis Set: 3-21G
    Number of shells: 9
    Number of basis function: 13
    Number of Cartesian functions: 13
    Spherical Harmonics?: false
    Max angular momentum: 1



                      -----------------------------------
                        Finite Temperature Hartree-Fock
                                 Kevin Hannon
                      -----------------------------------


 Running a FT-HF computation

 The variable occupation is restricted to active space
 5
 There are 1 doubly occupied orbitals
 There are 4 active electrons
 There are 6 active orbitals
 Running a Temperature of 500.00000000
 In Bisection function HAMO = -1.311  LAMO =  0.346

 Bisection should converged in 46 iterations
 Iterations NA   ERROR   E_f
 0 4 0.89618026  -0.48228088
 1 4 0.00000000  -0.06805492
 2 4 0.00000000  -0.27516790
 3 4 0.00000000  -0.37872439
 4 4 0.00000000  -0.43050264
 5 4 0.00000000  -0.40461352
 6 4 0.00000000  -0.41755808
 7 4 0.00000000  -0.42403036
 8 4 0.00000000  -0.42079422
 9 4 0.00000000  -0.42241229
 10 4 0.00000000  -0.42322132
 11 4 0.00000000  -0.42281681
 12 4 0.00000000  -0.42261455
 13 4 0.00000000  -0.42251342
 14 4 0.00000000  -0.42246285
 15 4 0.00000000  -0.42243757
 16 4 0.00000000  -0.42245021
 17 4 0.00000000  -0.42244389
 18 4 0.00000000  -0.42244073
 19 4 0.00000000  -0.42244231
 occupancy[1]=1.0000000000
 occupancy[2]=1.0000000000
 occupancy[3]=0.0000000000
 occupancy[4]=1.0000000000
 occupancy[5]=1.0000000000
 occupancy[6]=0.0000000000  ==> Pre-Iterations <==

   -------------------------------------------------------
    Irrep   Nso     Nmo     Nalpha   Nbeta   Ndocc  Nsocc
   -------------------------------------------------------
     A1         7       7       0       0       0       0
     A2         0       0       0       0       0       0
     B1         2       2       0       0       0       0
     B2         4       4       0       0       0       0
   -------------------------------------------------------
    Total      13      13       5       5       5       0
   -------------------------------------------------------

 OEINTS: Overlap, kinetic, potential, dipole, and quadrupole integrals
         stored in file 35.

  ==> Integral Setup <==

  ==> DFJK: Density-Fitted J/K Matrices <==

    J tasked:                  Yes
    K tasked:                  Yes
    wK tasked:                  No
    OpenMP threads:              1
    Integrals threads:           1
    Memory (MB):               183
    Algorithm:                Core
    Integral Cache:           NONE
    Schwarz Cutoff:          1E-12
    Fitting Condition:       1E-12

   => Auxiliary Basis Set <=

  Basis Set: 
    Number of shells: 30
    Number of basis function: 96
    Number of Cartesian functions: 96
    Spherical Harmonics?: false
    Max angular momentum: 3

  Minimum eigenvalue in the overlap matrix is 1.1629436767E-01.
  Using Symmetric Orthogonalization.
  SCF Guess: Core (One-Electron) Hamiltonian.

  ==> Iterations <==

                           Total Energy        Delta E     RMS |[F,P]|


 Running a Temperature of 500.00000000
 In Bisection function HAMO = -1.311  LAMO =  0.346

 Bisection should converged in 46 iterations
 Iterations NA   ERROR   E_f
 0 4 0.89618026  -0.48228088
 1 4 0.00000000  -0.06805492
 2 4 0.00000000  -0.27516790
 3 4 0.00000000  -0.37872439
 4 4 0.00000000  -0.43050264
 5 4 0.00000000  -0.40461352
 6 4 0.00000000  -0.41755808
 7 4 0.00000000  -0.42403036
 8 4 0.00000000  -0.42079422
 9 4 0.00000000  -0.42241229
 10 4 0.00000000  -0.42322132
 11 4 0.00000000  -0.42281681
 12 4 0.00000000  -0.42261455
 13 4 0.00000000  -0.42251342
 14 4 0.00000000  -0.42246285
 15 4 0.00000000  -0.42243757
 16 4 0.00000000  -0.42245021
 17 4 0.00000000  -0.42244389
 18 4 0.00000000  -0.42244073
 19 4 0.00000000  -0.42244231
 occupancy[1]=1.0000000000
 occupancy[2]=1.0000000000
 occupancy[3]=0.0000000000
 occupancy[4]=1.0000000000
 occupancy[5]=1.0000000000
 occupancy[6]=0.0000000000   @DF-RHF iter   1:   -74.31914193301144   -7.43191e+01   4.27689e-01 

 Running a Temperature of 500.00000000
 In Bisection function HAMO = -1.311  LAMO =  0.346

 Bisection should converged in 46 iterations
 Iterations NA   ERROR   E_f
 0 4 0.89618026  -0.48228088
 1 4 0.00000000  -0.06805492
 2 4 0.00000000  -0.27516790
 3 4 0.00000000  -0.37872439
 4 4 0.00000000  -0.43050264
 5 4 0.00000000  -0.40461352
 6 4 0.00000000  -0.41755808
 7 4 0.00000000  -0.42403036
 8 4 0.00000000  -0.42079422
 9 4 0.00000000  -0.42241229
 10 4 0.00000000  -0.42322132
 11 4 0.00000000  -0.42281681
 12 4 0.00000000  -0.42261455
 13 4 0.00000000  -0.42251342
 14 4 0.00000000  -0.42246285
 15 4 0.00000000  -0.42243757
 16 4 0.00000000  -0.42245021
 17 4 0.00000000  -0.42244389
 18 4 0.00000000  -0.42244073
 19 4 0.00000000  -0.42244231
 occupancy[1]=1.0000000000
 occupancy[2]=1.0000000000
 occupancy[3]=0.0000000000
 occupancy[4]=1.0000000000
 occupancy[5]=1.0000000000
 occupancy[6]=0.0000000000   @DF-RHF iter   2:   -70.47465487909815    3.84449e+00   4.86541e-15 DIIS

 Running a Temperature of 500.00000000
 In Bisection function HAMO = -1.311  LAMO =  0.346

 Bisection should converged in 46 iterations
 Iterations NA   ERROR   E_f
 0 4 0.89618026  -0.48228088
 1 4 0.00000000  -0.06805492
 2 4 0.00000000  -0.27516790
 3 4 0.00000000  -0.37872439
 4 4 0.00000000  -0.43050264
 5 4 0.00000000  -0.40461352
 6 4 0.00000000  -0.41755808
 7 4 0.00000000  -0.42403036
 8 4 0.00000000  -0.42079422
 9 4 0.00000000  -0.42241229
 10 4 0.00000000  -0.42322132
 11 4 0.00000000  -0.42281681
 12 4 0.00000000  -0.42261455
 13 4 0.00000000  -0.42251342
 14 4 0.00000000  -0.42246285
 15 4 0.00000000  -0.42243757
 16 4 0.00000000  -0.42245021
 17 4 0.00000000  -0.42244389
 18 4 0.00000000  -0.42244073
 19 4 0.00000000  -0.42244231
 occupancy[1]=1.0000000000
 occupancy[2]=1.0000000000
 occupancy[3]=0.0000000000
 occupancy[4]=1.0000000000
 occupancy[5]=1.0000000000
 occupancy[6]=0.0000000000   @DF-RHF iter   3:   -70.47465487909815    0.00000e+00   5.18742e-15 DIIS

  ==> Post-Iterations <==

    Orbital Energies (a.u.)
    -----------------------

    Doubly Occupied:                                                      

       1A1   -19.400500     2A1    -0.480103     1B2     0.139593  
       3A1     0.231946     1B1     0.331967  

    Virtual:                                                              

       4A1     0.626188     2B2     0.992516     3B2     1.940487  
       5A1     2.062992     2B1     2.586932     6A1     2.654623  
       4B2     2.819848     7A1     3.918128  

    Final Occupation by Irrep:
             A1    A2    B1    B2 
    DOCC [     3,    0,    1,    1 ]

  Energy converged.

  @DF-RHF Final Energy:   -70.47465487909815

   => Energetics <=

    Nuclear Repulsion Energy =              8.8046866186390567
    One-Electron Energy =                -120.2044878760969340
    Two-Electron Energy =                  40.9251463783597274
    DFT Exchange-Correlation Energy =       0.0000000000000000
    Empirical Dispersion Energy =           0.0000000000000000
    PCM Polarization Energy =               0.0000000000000000
    EFP Energy =                            0.0000000000000000
    Total Energy =                        -70.4746548790981535

    Alert: EFP and PCM quantities not currently incorporated into SCF psivars.

Properties will be evaluated at   0.000000,   0.000000,   0.000000 Bohr
  ==> Properties <==


Properties computed using the SCF density matrix

  Nuclear Dipole Moment: (a.u.)
     X:     0.0000      Y:     0.0000      Z:     1.0351

  Electronic Dipole Moment: (a.u.)
     X:     0.0000      Y:     0.0000      Z:    -0.0683

  Dipole Moment: (a.u.)
     X:     0.0000      Y:     0.0000      Z:     0.9668     Total:     0.9668

  Dipole Moment: (Debye)
     X:     0.0000      Y:     0.0000      Z:     2.4574     Total:     2.4574


  Saving occupied orbitals to File 180.

 FT-HF orbitals converged
 SCF_ENERGY = -70.47465488

                -----------------------------------------------
                  String-based Full Configuration Interaction
                          by Francesco A. Evangelista
                -----------------------------------------------

  Number of electrons: 10
  Charge: 0
  Multiplicity: 1
  M_s: 0

  ==> String Lists <==

  Number of alpha electrons     = 4
  Number of beta electrons      = 4
  Number of alpha strings       = 15
  Number of beta strings        = 15
  Number of alpha strings (N-3) = 6
  Number of beta strings (N-3)  = 6
  Timing for strings        =      0.000 s
  Timing for NN strings     =      0.000 s
  Timing for VO strings     =      0.001 s
  Timing for OO strings     =      0.000 s
  Timing for Knowles-Handy  =      0.000 s
  Timing for VVOO strings   =      0.001 s
  Timing for VOVO strings   =      0.000 s
  Timing for 1-hole strings =      0.000 s
  Timing for 2-hole strings =      0.000 s
  Timing for 3-hole strings =      0.001 s
  Total timing              =      0.002 s

  ==> FCI Solver <==

    Number of determinants                          65
    Symmetry                                         0
    Multiplicity                                     1
    Number of roots                                  1
    Target root                                      0

  Allocating memory for the Hamiltonian algorithm. Size: 2 x 6 x 6.   Memory: 0.000001 GB

  ==> FCI Initial Guess <==

  ---------------------------------------------
    Root            Energy     <S^2>   Spin
  ---------------------------------------------
      0      -75.598423197963  0.000  singlet
      1      -75.232984321203  1.999  triplet
      2      -75.178791106988  0.001  singlet
      3      -75.030456994691  2.000  triplet
      4      -74.855371750820  0.000  singlet
      5      -74.660914430670  6.000  quintet
      6      -74.652443905848  0.000  singlet
      7      -74.577962881525  0.041  singlet
      8      -74.545557891155  1.996  triplet
      9      -74.477686534630  1.989  triplet
     10      -74.438868602021  0.003  singlet
     11      -74.418127264988  1.945  triplet
     12      -74.400186407244  0.013  singlet
     13      -74.377175641650  0.012  singlet
     14      -74.330748950924  0.067  singlet
     15      -74.324794204540  1.956  triplet
     16      -74.285993879727  0.021  singlet
     17      -74.201063897129  0.005  singlet
     18      -74.059634608671  0.000  singlet
     19      -73.751412391071  0.950  doublet
  ---------------------------------------------
  Timing for initial guess  =      0.010 s

  ==> Diagonalizing Hamiltonian <==

  ----------------------------------------
    Iter.      Avg. Energy       Delta_E
  ----------------------------------------
      1      -75.598423197963  -7.560e+01
      2      -75.603929809160  -5.507e-03
      3      -75.604091333665  -1.615e-04
      4      -75.604094178760  -2.845e-06
      5      -75.604094638822  -4.601e-07
  ----------------------------------------
  The Davidson-Liu algorithm converged in 6 iterations.

  ==> Root No. 0 <==

    220 2 20      0.99289806

    Total Energy:       -75.604094638821820

  ==> RDMs for Root No. 0 <==

  Your calculation took 0.76006500 seconds

*** PSI4 exiting successfully. Buy a developer a beer!
