    -----------------------------------------------------------------------
          Psi4: An Open-Source Ab Initio Electronic Structure Package
                              Psi4 0.1.224 Driver

                          Git: Rev {detached?} ec8115e dirty

    J. M. Turney, A. C. Simmonett, R. M. Parrish, E. G. Hohenstein,
    F. A. Evangelista, J. T. Fermann, B. J. Mintz, L. A. Burns, J. J. Wilke,
    M. L. Abrams, N. J. Russ, M. L. Leininger, C. L. Janssen, E. T. Seidl,
    W. D. Allen, H. F. Schaefer, R. A. King, E. F. Valeev, C. D. Sherrill,
    and T. D. Crawford, WIREs Comput. Mol. Sci. 2, 556-565 (2012)
    (doi: 10.1002/wcms.93)

                         Additional Contributions by
    A. E. DePrince, M. Saitow, U. Bozkaya, A. Yu. Sokolov
    -----------------------------------------------------------------------


    Psi4 started on: 10-22-2015  11:39:53 AM EDT

    Process ID:  32254
    PSI4DATADIR: /Users/kevinhannon/Programs/psi4cmake/psi4/lib
    Memory level set to 256.000 MB

  ==> Input File <==

--------------------------------------------------------------------------
#! Generated using commit GITCOMMIT

import forte

#refmcscf     =  -99.972055826365903 # cc-pVTZ
#refdsrgpt2   = -100.200752137944022 # cc-pVTZ
refscf          = -99.87285247289
refcasscf       = -99.939316381644

memory 500 mb

molecule HF{
  0 1
  F
  H  1 R
  R = 1.50
  symmetry c1
}

set globals {
    basis   cc-pvdz
    scf_type pk
    reference RHF
    e_convergence 1e-10
    d_convergence 1e-10
}
scf = energy('scf')

set forte{
   CASSCF_REFERENCE        true
   int_type                conventional
   CASSCF_ITERATIONS       20
   frozen_docc             [0]
   restricted_docc         [4]
   active                  [2]
   multiplicity             1
   cas_type                 FCI
   CASSCF_CONVERGENCE       1e-6
}
e_casscf = energy('forte')

compare_values(refscf, scf, 8, "SCF ENERGY")
compare_values(refcasscf, e_casscf, 6, "CASSCF_ENERGY")

--------------------------------------------------------------------------
/Users/kevinhannon/Programs/forte/forte.so loaded.

  Memory set to 500.000 MiB by Python script.

*** tstart() called on dhcp189-176.emerson.emory.edu
*** at Thu Oct 22 11:39:53 2015


         ---------------------------------------------------------
                                   SCF
            by Justin Turney, Rob Parrish, and Andy Simmonett
                              RHF Reference
                        1 Threads,    500 MiB Core
         ---------------------------------------------------------

  ==> Geometry <==

    Molecular point group: c1
    Full point group: C_inf_v

    Geometry (in Angstrom), charge = 0, multiplicity = 1:

       Center              X                  Y                   Z       
    ------------   -----------------  -----------------  -----------------
           F          0.000000000000     0.000000000000    -0.075563346012
           H          0.000000000000     0.000000000000     1.424436653988

  Running in c1 symmetry.

  Rotational constants: A = ************  B =      7.82847  C =      7.82847 [cm^-1]
  Rotational constants: A = ************  B = 234691.65925  C = 234691.65925 [MHz]
  Nuclear repulsion =    3.175063251540000

  Charge       = 0
  Multiplicity = 1
  Electrons    = 10
  Nalpha       = 5
  Nbeta        = 5

  ==> Algorithm <==

  SCF Algorithm Type is PK.
  DIIS enabled.
  MOM disabled.
  Fractional occupation disabled.
  Guess Type is CORE.
  Energy threshold   = 1.00e-10
  Density threshold  = 1.00e-10
  Integral threshold = 0.00e+00

  ==> Primary Basis <==

  Basis Set: CC-PVDZ
    Number of shells: 9
    Number of basis function: 19
    Number of Cartesian functions: 20
    Spherical Harmonics?: true
    Max angular momentum: 2

  ==> Pre-Iterations <==

   -------------------------------------------------------
    Irrep   Nso     Nmo     Nalpha   Nbeta   Ndocc  Nsocc
   -------------------------------------------------------
     A         19      19       0       0       0       0
   -------------------------------------------------------
    Total      19      19       5       5       5       0
   -------------------------------------------------------

  Starting with a DF guess...

 OEINTS: Overlap, kinetic, potential, dipole, and quadrupole integrals
         stored in file 35.

  ==> Integral Setup <==

  ==> DFJK: Density-Fitted J/K Matrices <==

    J tasked:                  Yes
    K tasked:                  Yes
    wK tasked:                  No
    OpenMP threads:              1
    Integrals threads:           1
    Memory (MB):               357
    Algorithm:                Core
    Integral Cache:           NONE
    Schwarz Cutoff:          1E-12
    Fitting Condition:       1E-12

   => Auxiliary Basis Set <=

  Basis Set: 
    Number of shells: 33
    Number of basis function: 93
    Number of Cartesian functions: 106
    Spherical Harmonics?: true
    Max angular momentum: 3

  Minimum eigenvalue in the overlap matrix is 1.3340269888E-01.
  Using Symmetric Orthogonalization.
  SCF Guess: Core (One-Electron) Hamiltonian.

  ==> Iterations <==

                           Total Energy        Delta E     RMS |[F,P]|

   @DF-RHF iter   1:   -93.53263757849986   -9.35326e+01   1.53518e-01 
   @DF-RHF iter   2:   -93.15313695844857    3.79501e-01   1.53880e-01 DIIS
   @DF-RHF iter   3:   -99.62622432643595   -6.47309e+00   3.91303e-02 DIIS
   @DF-RHF iter   4:   -99.83841152915403   -2.12187e-01   9.14917e-03 DIIS
   @DF-RHF iter   5:   -99.86868659537458   -3.02751e-02   4.44076e-03 DIIS
   @DF-RHF iter   6:   -99.87174112411358   -3.05453e-03   2.94953e-03 DIIS
   @DF-RHF iter   7:   -99.87284079860149   -1.09967e-03   2.54701e-04 DIIS
   @DF-RHF iter   8:   -99.87285017929813   -9.38070e-06   6.84646e-05 DIIS
   @DF-RHF iter   9:   -99.87285077353854   -5.94240e-07   3.37727e-06 DIIS
   @DF-RHF iter  10:   -99.87285077494525   -1.40670e-09   1.28184e-07 DIIS
   @DF-RHF iter  11:   -99.87285077494813   -2.88480e-12   1.57917e-08 DIIS
   @DF-RHF iter  12:   -99.87285077494811    2.84217e-14   4.28108e-09 DIIS
   @DF-RHF iter  13:   -99.87285077494805    5.68434e-14   2.49410e-10 DIIS
   @DF-RHF iter  14:   -99.87285077494805    0.00000e+00   5.23903e-11 DIIS

  DF guess converged.

  ==> Integral Setup <==

 MINTS: Wrapper to libmints.
   by Justin Turney

   Calculation information:
      Number of atoms:                   2
      Number of AO shells:               9
      Number of SO shells:               9
      Number of primitives:             27
      Number of atomic orbitals:        20
      Number of basis functions:        19

      Number of irreps:                  1
      Integral cutoff                 0.00e+00
      Number of functions per irrep: [  19 ]

 OEINTS: Overlap, kinetic, potential, dipole, and quadrupole integrals
         stored in file 35.

      Computing two-electron integrals...done
      Computed 4170 non-zero two-electron integrals.
        Stored in file 33.

	Batch   1 pq = [       0,     190] index = [             0,18145]
  ==> DiskJK: Disk-Based J/K Matrices <==

    J tasked:                  Yes
    K tasked:                  Yes
    wK tasked:                  No
    Memory (MB):               357
    Schwarz Cutoff:          1E-12

   @RHF iter  15:   -99.87285247004455   -1.69510e-06   3.88530e-06 DIIS
   @RHF iter  16:   -99.87285247280005   -2.75550e-09   8.79433e-07 DIIS
   @RHF iter  17:   -99.87285247286046   -6.04103e-11   5.32288e-07 DIIS
   @RHF iter  18:   -99.87285247289590   -3.54419e-11   5.25158e-08 DIIS
   @RHF iter  19:   -99.87285247289643   -5.25802e-13   1.25285e-08 DIIS
   @RHF iter  20:   -99.87285247289640    2.84217e-14   3.41508e-09 DIIS
   @RHF iter  21:   -99.87285247289637    2.84217e-14   3.33861e-10 DIIS
   @RHF iter  22:   -99.87285247289633    4.26326e-14   3.10637e-11 DIIS

  ==> Post-Iterations <==

    Orbital Energies (a.u.)
    -----------------------

    Doubly Occupied:                                                      

       1A    -26.279422     2A     -1.484580     3A     -0.593977  
       4A     -0.593977     5A     -0.565055  

    Virtual:                                                              

       6A      0.016621     7A      0.576770     8A      1.315282  
       9A      1.315282    10A      1.463904    11A      1.599282  
      12A      1.599282    13A      1.633070    14A      2.300773  
      15A      4.038213    16A      4.038213    17A      4.041123  
      18A      4.041123    19A      4.220284  

    Final Occupation by Irrep:
              A 
    DOCC [     5 ]

  Energy converged.

  @RHF Final Energy:   -99.87285247289633

   => Energetics <=

    Nuclear Repulsion Energy =              3.1750632515400001
    One-Electron Energy =                -147.0618097367750750
    Two-Electron Energy =                  44.0138940123387670
    DFT Exchange-Correlation Energy =       0.0000000000000000
    Empirical Dispersion Energy =           0.0000000000000000
    PCM Polarization Energy =               0.0000000000000000
    EFP Energy =                            0.0000000000000000
    Total Energy =                        -99.8728524728963123

    Alert: EFP and PCM quantities not currently incorporated into SCF psivars.

Properties will be evaluated at   0.000000,   0.000000,   0.000000 Bohr
  ==> Properties <==


Properties computed using the SCF density matrix

  Nuclear Dipole Moment: (a.u.)
     X:     0.0000      Y:     0.0000      Z:     1.4066

  Electronic Dipole Moment: (a.u.)
     X:     0.0000      Y:    -0.0000      Z:    -0.2428

  Dipole Moment: (a.u.)
     X:     0.0000      Y:    -0.0000      Z:     1.1639     Total:     1.1639

  Dipole Moment: (Debye)
     X:     0.0000      Y:    -0.0000      Z:     2.9583     Total:     2.9583


  Saving occupied orbitals to File 180.

*** tstop() called on dhcp189-176.emerson.emory.edu at Thu Oct 22 11:39:53 2015
Module time:
	user time   =       0.30 seconds =       0.01 minutes
	system time =       0.01 seconds =       0.00 minutes
	total time  =          0 seconds =       0.00 minutes
Total time:
	user time   =       0.30 seconds =       0.01 minutes
	system time =       0.01 seconds =       0.00 minutes
	total time  =          0 seconds =       0.00 minutes
Reading options from the FORTE block
Calling plugin /Users/kevinhannon/Programs/forte/forte.so.


  ==> MO Space Information <==

  Read options for space FROZEN_DOCC
  Read options for space RESTRICTED_DOCC
  Read options for space ACTIVE
  -------------------------------
                        A   Sum
  -------------------------------
    FROZEN_DOCC         0     0
    RESTRICTED_DOCC     4     4
    ACTIVE              2     2
    RESTRICTED_UOCC    13    13
    FROZEN_UOCC         0     0
    Total              19    19
  -------------------------------

  ==> Integral Transformation <==

  Number of molecular orbitals:               19
  Number of correlated molecular orbitals:    19
  Number of frozen occupied orbitals:          0
  Number of frozen unoccupied orbitals:        0


  Overall Conventional Integrals timings

	Presorting SO-basis two-electron integrals.
	Sorting File: SO Ints (nn|nn) nbuckets = 1
	Transforming the one-electron integrals and constructing Fock matrices
	Starting first half-transformation.
	Sorting half-transformed integrals.
	First half integral transformation complete.
	Starting second half-transformation.
	Two-electron integral transformation complete.

  Integral transformation done. 0.02107500 s
  Reading the two-electron integrals from disk
  Size of two-electron integrals:   0.002913 GB
  Conventional integrals take 0.02774200 s

                -----------------------------------------------
                  Complete Active Space Self Consistent Field
                                 Kevin Hannon
                -----------------------------------------------


  ==> CASSCF Iteration <==


                -----------------------------------------------
                  String-based Full Configuration Interaction
                          by Francesco A. Evangelista
                -----------------------------------------------

  Number of electrons: 10
  Charge: 0
  Multiplicity: 1
  M_s: 0

  ==> String Lists <==

  Number of alpha electrons     = 1
  Number of beta electrons      = 1
  Number of alpha strings       = 2
  Number of beta strings        = 2
  Timing for strings        =      0.000 s
  Timing for NN strings     =      0.000 s
  Timing for VO strings     =      0.000 s
  Timing for OO strings     =      0.000 s
  Timing for Knowles-Handy  =      0.000 s
  Timing for VVOO strings   =      0.000 s
  Timing for VOVO strings   =      0.000 s
  Timing for 1-hole strings =      0.000 s
  Timing for 2-hole strings =      0.000 s
  Timing for 3-hole strings =      0.000 s
  Total timing              =      0.000 s

  ==> FCI Solver <==

    Number of determinants                           4
    Symmetry                                         0
    Multiplicity                                     1
    Number of roots                                  1
    Target root                                      0

  Allocating memory for the Hamiltonian algorithm. Size: 2 x 2 x 2.   Memory: 0.000000 GB

  ==> FCI Initial Guess <==

  ---------------------------------------------
    Root            Energy     <S^2>   Spin
  ---------------------------------------------
      0      -99.910210805102  0.000  singlet
      1      -99.766900892861  2.000  triplet
      2      -99.546815339011  0.000  singlet
      3      -99.075609578570  0.000  singlet
  ---------------------------------------------
  Timing for initial guess  =      0.000 s

  ==> Diagonalizing Hamiltonian <==

  ----------------------------------------
    Iter.      Avg. Energy       Delta_E
  ----------------------------------------
      1      -99.910210805102  -9.991e+01
      2      -99.910210805102  +4.263e-14
  ----------------------------------------
  The Davidson-Liu algorithm converged in 3 iterations.

  ==> Root No. 0 <==

    20      0.96675311
    02     -0.23545724

    Total Energy:       -99.910210805101940

  ==> RDMs for Root No. 0 <== MINTS: Wrapper to libmints.
   by Justin Turney

   Calculation information:
      Number of atoms:                   2
      Number of AO shells:               9
      Number of SO shells:               9
      Number of primitives:             27
      Number of atomic orbitals:        20
      Number of basis functions:        19

      Number of irreps:                  1
      Integral cutoff                 1.00e-12
      Number of functions per irrep: [  19 ]

 OEINTS: Overlap, kinetic, potential, dipole, and quadrupole integrals
         stored in file 35.

      Computing two-electron integrals...done
      Computed 4125 non-zero two-electron integrals.
        Stored in file 33.

	Batch   1 pq = [       0,     190] index = [             0,18145]
 MINTS: Wrapper to libmints.
   by Justin Turney

   Calculation information:
      Number of atoms:                   2
      Number of AO shells:               9
      Number of SO shells:               9
      Number of primitives:             27
      Number of atomic orbitals:        20
      Number of basis functions:        19

      Number of irreps:                  1
      Integral cutoff                 1.00e-12
      Number of functions per irrep: [  19 ]

 OEINTS: Overlap, kinetic, potential, dipole, and quadrupole integrals
         stored in file 35.

      Computing two-electron integrals...done
      Computed 4125 non-zero two-electron integrals.
        Stored in file 33.

	Batch   1 pq = [       0,     190] index = [             0,18145]
  Irrep: 1 Size: 19 x 19

                 1                   2                   3                   4                   5

    1     0.99999994026902     0.00001052328735     0.00000000000000     0.00000000000000    -0.00032233221856
    2     0.00001051709637     0.99764004690150    -0.00000000000000    -0.00000000000000     0.06783545356740
    3     0.00000000000000    -0.00000000000000     0.99991672992606    -0.00000000000000     0.00000000000000
    4     0.00000000000000    -0.00000000000000    -0.00000000000000     0.99991672992606     0.00000000000000
    5     0.00032143394616    -0.06787507842667    -0.00000000000000    -0.00000000000000     0.99757771083089
    6     0.00001580273183     0.00781720930877     0.00000000000000     0.00000000000000    -0.00116283022913
    7    -0.00000577547357    -0.00143174396514    -0.00000000000000    -0.00000000000000    -0.00381511091575
    8    -0.00000000000000     0.00000000000000     0.00981220444046    -0.00246235491789     0.00000000000000
    9    -0.00000000000000     0.00000000000000     0.00246235491789     0.00981220444046     0.00000000000000
   10    -0.00006354202510    -0.00401636140727     0.00000000000000    -0.00000000000000    -0.01345335496923
   11     0.00000000000000    -0.00000000000000     0.00093297079468    -0.00788243878739     0.00000000000000
   12     0.00000000000000     0.00000000000000     0.00788243878739     0.00093297079468    -0.00000000000000
   13    -0.00000874700008    -0.00370292699939     0.00000000000000     0.00000000000000     0.00598794227350
   14    -0.00010489192919    -0.00375504535562    -0.00000000000000     0.00000000000000    -0.00175394695134
   15     0.00000000000000    -0.00000000000000     0.00058062456362    -0.00092209848578     0.00000000000000
   16     0.00000000000000    -0.00000000000000     0.00092209848578     0.00058062456362     0.00000000000000
   17     0.00000000000000    -0.00000000000000    -0.00000000000000    -0.00000000000000     0.00000000000000
   18    -0.00000000000000    -0.00000000000000     0.00000000000000     0.00000000000000    -0.00000000000000
   19     0.00002514110182    -0.00045671775899     0.00000000000000     0.00000000000000    -0.00106132308715

                 6                   7                   8                   9                  10

    1    -0.00002344172354     0.00000018608553     0.00000000000000     0.00000000000000     0.00005706222040
    2    -0.00813210477293    -0.00006018722728     0.00000000000000    -0.00000000000000     0.00404443724929
    3    -0.00000000000000     0.00000000000000    -0.00981220444046    -0.00246235491789    -0.00000000000000
    4    -0.00000000000000     0.00000000000000     0.00246235491789    -0.00981220444046     0.00000000000000
    5    -0.00115557532571     0.00376813679547    -0.00000000000000     0.00000000000000     0.01317937090775
    6     0.96625980363884     0.21675461188309    -0.00000000000000     0.00000000000000     0.10861413200898
    7    -0.21674903099973     0.97609829604274     0.00000000000000    -0.00000000000000    -0.01200004703287
    8     0.00000000000000     0.00000000000000     0.99994882659553    -0.00000000000000     0.00000000000000
    9    -0.00000000000000    -0.00000000000000    -0.00000000000000     0.99994882659553    -0.00000000000000
   10    -0.10858181218438    -0.01199802799777     0.00000000000000    -0.00000000000000     0.99390425919134
   11     0.00000000000000     0.00000000000000    -0.00001428252570     0.00003752496018     0.00000000000000
   12    -0.00000000000000    -0.00000000000000    -0.00003752496018    -0.00001428252570    -0.00000000000000
   13     0.08548453504820     0.00943348713787    -0.00000000000000     0.00000000000000     0.00475426196125
   14    -0.01296649026971    -0.00143461986889     0.00000000000000    -0.00000000000000    -0.00073554178086
   15     0.00000000000000     0.00000000000000    -0.00000398403621     0.00000380921615     0.00000000000000
   16     0.00000000000000     0.00000000000000    -0.00000380921615    -0.00000398403621     0.00000000000000
   17    -0.00000000000000    -0.00000000000000     0.00000000000000     0.00000000000000    -0.00000000000000
   18     0.00000000000000     0.00000000000000    -0.00000000000000    -0.00000000000000     0.00000000000000
   19    -0.00535134198706    -0.00059221857854     0.00000000000000    -0.00000000000000    -0.00030362091860

                11                  12                  13                  14                  15

    1    -0.00000000000000    -0.00000000000000     0.00001244095900     0.00010410622467    -0.00000000000000
    2     0.00000000000000    -0.00000000000000     0.00397715455280     0.00376074517065     0.00000000000000
    3    -0.00093297079468    -0.00788243878739    -0.00000000000000     0.00000000000000    -0.00058062456362
    4     0.00788243878739    -0.00093297079468    -0.00000000000000    -0.00000000000000     0.00092209848578
    5    -0.00000000000000     0.00000000000000    -0.00624865680395     0.00149866480870    -0.00000000000000
    6    -0.00000000000000     0.00000000000000    -0.08545378988055     0.01299660730374    -0.00000000000000
    7     0.00000000000000    -0.00000000000000     0.00943150935635    -0.00143649626348     0.00000000000000
    8    -0.00001428252570    -0.00003752496018    -0.00000000000000     0.00000000000000    -0.00000398403621
    9     0.00003752496018    -0.00001428252570     0.00000000000000    -0.00000000000000     0.00000380921615
   10     0.00000000000000    -0.00000000000000     0.00475392489594    -0.00073551619924     0.00000000000000
   11     0.99996849705050    -0.00000000000000    -0.00000000000000     0.00000000000000    -0.00000390520791
   12    -0.00000000000000     0.99996849705050     0.00000000000000    -0.00000000000000    -0.00000185830068
   13    -0.00000000000000     0.00000000000000     0.99625843132320     0.00056228225633    -0.00000000000000
   14     0.00000000000000    -0.00000000000000     0.00056194371276     0.99990587863010     0.00000000000000
   15    -0.00000390520791    -0.00000185830068    -0.00000000000000     0.00000000000000     0.99999940628003
   16     0.00000185830068    -0.00000390520791    -0.00000000000000     0.00000000000000     0.00000000000000
   17     0.00000000000000     0.00000000000000     0.00000000000000    -0.00000000000000     0.00000000000000
   18     0.00000000000000    -0.00000000000000    -0.00000000000000     0.00000000000000     0.00000000000000
   19     0.00000000000000    -0.00000000000000     0.00023502367734    -0.00003706858242     0.00000000000000

                16                  17                  18                  19

    1    -0.00000000000000    -0.00000000000000     0.00000000000000    -0.00002558585664
    2     0.00000000000000     0.00000000000000     0.00000000000000     0.00048452171537
    3    -0.00092209848578     0.00000000000000    -0.00000000000000    -0.00000000000000
    4    -0.00058062456362     0.00000000000000    -0.00000000000000    -0.00000000000000
    5    -0.00000000000000    -0.00000000000000     0.00000000000000     0.00102933345411
    6    -0.00000000000000     0.00000000000000    -0.00000000000000     0.00535511303164
    7     0.00000000000000    -0.00000000000000     0.00000000000000    -0.00059245983682
    8    -0.00000380921615     0.00000000000000    -0.00000000000000     0.00000000000000
    9    -0.00000398403621     0.00000000000000    -0.00000000000000    -0.00000000000000
   10     0.00000000000000    -0.00000000000000     0.00000000000000    -0.00030365401974
   11     0.00000185830068     0.00000000000000     0.00000000000000     0.00000000000000
   12    -0.00000390520791     0.00000000000000    -0.00000000000000    -0.00000000000000
   13    -0.00000000000000     0.00000000000000    -0.00000000000000     0.00023503143400
   14     0.00000000000000    -0.00000000000000     0.00000000000000    -0.00003710246331
   15     0.00000000000000     0.00000000000000     0.00000000000000     0.00000000000000
   16     0.99999940628003     0.00000000000000    -0.00000000000000     0.00000000000000
   17     0.00000000000000     1.00000000000000     0.00000000000000    -0.00000000000000
   18    -0.00000000000000     0.00000000000000     1.00000000000000     0.00000000000000
   19     0.00000000000000    -0.00000000000000     0.00000000000000     0.99998476387910



	Presorting SO-basis two-electron integrals.
	Sorting File: SO Ints (nn|nn) nbuckets = 1
	Transforming the one-electron integrals and constructing Fock matrices
	Starting first half-transformation.
	Sorting half-transformed integrals.
	First half integral transformation complete.
	Starting second half-transformation.
	Two-electron integral transformation complete.

  Integral transformation done. 0.02078000 s
  Reading the two-electron integrals from disk
  Size of two-electron integrals:   0.002913 GB

                -----------------------------------------------
                  String-based Full Configuration Interaction
                          by Francesco A. Evangelista
                -----------------------------------------------

  Number of electrons: 10
  Charge: 0
  Multiplicity: 1
  M_s: 0

  ==> String Lists <==

  Number of alpha electrons     = 1
  Number of beta electrons      = 1
  Number of alpha strings       = 2
  Number of beta strings        = 2
  Timing for strings        =      0.000 s
  Timing for NN strings     =      0.000 s
  Timing for VO strings     =      0.000 s
  Timing for OO strings     =      0.000 s
  Timing for Knowles-Handy  =      0.000 s
  Timing for VVOO strings   =      0.000 s
  Timing for VOVO strings   =      0.000 s
  Timing for 1-hole strings =      0.000 s
  Timing for 2-hole strings =      0.000 s
  Timing for 3-hole strings =      0.000 s
  Total timing              =      0.000 s

  ==> FCI Solver <==

    Number of determinants                           4
    Symmetry                                         0
    Multiplicity                                     1
    Number of roots                                  1
    Target root                                      0

  Allocating memory for the Hamiltonian algorithm. Size: 2 x 2 x 2.   Memory: 0.000000 GB

  ==> FCI Initial Guess <==

  ---------------------------------------------
    Root            Energy     <S^2>   Spin
  ---------------------------------------------
      0      -99.936703261408  0.000  singlet
      1      -99.796676865548  2.000  triplet
      2      -99.440549654134  0.000  singlet
      3      -99.080011915677  0.000  singlet
  ---------------------------------------------
  Timing for initial guess  =      0.000 s

  ==> Diagonalizing Hamiltonian <==

  ----------------------------------------
    Iter.      Avg. Energy       Delta_E
  ----------------------------------------
      1      -99.936703261408  -9.994e+01
      2      -99.936703261408  +1.421e-14
  ----------------------------------------
  The Davidson-Liu algorithm converged in 3 iterations.

  ==> Root No. 0 <==

    20      0.94737632
    02     -0.29326628

    Total Energy:       -99.936703261407928

  ==> RDMs for Root No. 0 <== MINTS: Wrapper to libmints.
   by Justin Turney

   Calculation information:
      Number of atoms:                   2
      Number of AO shells:               9
      Number of SO shells:               9
      Number of primitives:             27
      Number of atomic orbitals:        20
      Number of basis functions:        19

      Number of irreps:                  1
      Integral cutoff                 1.00e-12
      Number of functions per irrep: [  19 ]

 OEINTS: Overlap, kinetic, potential, dipole, and quadrupole integrals
         stored in file 35.

      Computing two-electron integrals...done
      Computed 4125 non-zero two-electron integrals.
        Stored in file 33.

	Batch   1 pq = [       0,     190] index = [             0,18145]
 MINTS: Wrapper to libmints.
   by Justin Turney

   Calculation information:
      Number of atoms:                   2
      Number of AO shells:               9
      Number of SO shells:               9
      Number of primitives:             27
      Number of atomic orbitals:        20
      Number of basis functions:        19

      Number of irreps:                  1
      Integral cutoff                 1.00e-12
      Number of functions per irrep: [  19 ]

 OEINTS: Overlap, kinetic, potential, dipole, and quadrupole integrals
         stored in file 35.

      Computing two-electron integrals...done
      Computed 4125 non-zero two-electron integrals.
        Stored in file 33.

	Batch   1 pq = [       0,     190] index = [             0,18145]
  Irrep: 1 Size: 19 x 19

                 1                   2                   3                   4                   5

    1     0.99999999135289    -0.00000011824716     0.00000000000000    -0.00000000000000     0.00001983033014
    2    -0.00000011853330     0.99995489230463     0.00000000000000    -0.00000000000000     0.00852541410842
    3     0.00000000000000     0.00000000000000     0.99999704997414     0.00000000000000    -0.00000000000000
    4    -0.00000000000000    -0.00000000000000     0.00000000000000     0.99999704997414     0.00000000000000
    5    -0.00001977394220    -0.00853281567799     0.00000000000000    -0.00000000000000     0.99987366943725
    6    -0.00002676323758     0.00382713126320     0.00000000000000     0.00000000000000    -0.00007167497882
    7     0.00000200707949    -0.00033793122318     0.00000000000000     0.00000000000000     0.00339829625367
    8    -0.00000000000000     0.00000000000000    -0.00093765095027     0.00023530180630     0.00000000000000
    9    -0.00000000000000     0.00000000000000    -0.00023530180630    -0.00093765095027     0.00000000000000
   10     0.00004398326281    -0.00032767830848    -0.00000000000000    -0.00000000000000    -0.01015884352891
   11    -0.00000000000000     0.00000000000000    -0.00025888112812     0.00218722242670     0.00000000000000
   12    -0.00000000000000    -0.00000000000000    -0.00218722242670    -0.00025888112812    -0.00000000000000
   13     0.00008399735732     0.00105196168574    -0.00000000000000    -0.00000000000000     0.00747958553080
   14     0.00008204025580     0.00119490696733    -0.00000000000000    -0.00000000000000    -0.00261615308442
   15     0.00000000000000    -0.00000000000000     0.00018032232797    -0.00028637256498     0.00000000000000
   16     0.00000000000000    -0.00000000000000     0.00028637256498     0.00018032232797     0.00000000000000
   17     0.00000000000000    -0.00000000000000    -0.00000000000000    -0.00000000000000     0.00000000000000
   18     0.00000000000000    -0.00000000000000     0.00000000000000    -0.00000000000000     0.00000000000000
   19     0.00002149903933    -0.00003850056001    -0.00000000000000     0.00000000000000    -0.00155498356434

                 6                   7                   8                   9                  10

    1     0.00002731938293    -0.00000099612782     0.00000000000000     0.00000000000000    -0.00004310418680
    2    -0.00385115802316     0.00015586612519     0.00000000000000    -0.00000000000000     0.00031808106403
    3    -0.00000000000000    -0.00000000000000     0.00093765095027     0.00023530180630     0.00000000000000
    4    -0.00000000000000    -0.00000000000000    -0.00023530180630     0.00093765095027     0.00000000000000
    5    -0.00007159718953    -0.00340040266684    -0.00000000000000    -0.00000000000000     0.01015608995253
    6     0.99884522471618     0.03985155004913    -0.00000000000000    -0.00000000000000     0.02505505715002
    7    -0.03985060129381     0.99919968330401     0.00000000000000     0.00000000000000    -0.00048230114743
    8     0.00000000000000     0.00000000000000     0.99999953272119     0.00000000000000     0.00000000000000
    9     0.00000000000000     0.00000000000000     0.00000000000000     0.99999953272119     0.00000000000000
   10    -0.02505381592975    -0.00048228232216     0.00000000000000     0.00000000000000     0.99963430370452
   11    -0.00000000000000    -0.00000000000000    -0.00000037869932     0.00000099496946    -0.00000000000000
   12    -0.00000000000000    -0.00000000000000    -0.00000099496946    -0.00000037869932    -0.00000000000000
   13     0.00778542977354     0.00014265654449    -0.00000000000000    -0.00000000000000     0.00013574998258
   14    -0.00172442331956    -0.00002976951228     0.00000000000000     0.00000000000000    -0.00003471203409
   15     0.00000000000000     0.00000000000000     0.00000011823187    -0.00000011304384     0.00000000000000
   16     0.00000000000000     0.00000000000000     0.00000011304384     0.00000011823187     0.00000000000000
   17    -0.00000000000000    -0.00000000000000    -0.00000000000000    -0.00000000000000    -0.00000000000000
   18    -0.00000000000000    -0.00000000000000     0.00000000000000    -0.00000000000000    -0.00000000000000
   19     0.00374554434010     0.00007731076008    -0.00000000000000    -0.00000000000000     0.00003904302485

                11                  12                  13                  14                  15

    1     0.00000000000000     0.00000000000000    -0.00008435610697    -0.00008194174713    -0.00000000000000
    2    -0.00000000000000     0.00000000000000    -0.00108580788691    -0.00117916411073     0.00000000000000
    3     0.00025888112812     0.00218722242670     0.00000000000000     0.00000000000000    -0.00018032232797
    4    -0.00218722242670     0.00025888112812     0.00000000000000     0.00000000000000     0.00028637256498
    5    -0.00000000000000     0.00000000000000    -0.00747046674733     0.00262627933097    -0.00000000000000
    6     0.00000000000000     0.00000000000000    -0.00778953185384     0.00171986749786    -0.00000000000000
    7    -0.00000000000000    -0.00000000000000     0.00014272417897    -0.00002969879110     0.00000000000000
    8    -0.00000037869932    -0.00000099496946    -0.00000000000000     0.00000000000000     0.00000011823187
    9     0.00000099496946    -0.00000037869932    -0.00000000000000     0.00000000000000    -0.00000011304384
   10    -0.00000000000000    -0.00000000000000     0.00013575701846    -0.00003470995112     0.00000000000000
   11     0.99999757451573     0.00000000000000    -0.00000000000000     0.00000000000000     0.00000033652177
   12     0.00000000000000     0.99999757451573     0.00000000000000    -0.00000000000000     0.00000016013453
   13    -0.00000000000000     0.00000000000000     0.99994114331641     0.00001587911787    -0.00000000000000
   14     0.00000000000000    -0.00000000000000     0.00001586010455     0.99999437259906     0.00000000000000
   15     0.00000033652177     0.00000016013453    -0.00000000000000     0.00000000000000     0.99999994273722
   16    -0.00000016013453     0.00000033652177    -0.00000000000000     0.00000000000000     0.00000000000000
   17    -0.00000000000000    -0.00000000000000    -0.00000000000000     0.00000000000000     0.00000000000000
   18     0.00000000000000     0.00000000000000     0.00000000000000    -0.00000000000000    -0.00000000000000
   19     0.00000000000000    -0.00000000000000    -0.00000875877122     0.00000121383510    -0.00000000000000

                16                  17                  18                  19

    1    -0.00000000000000    -0.00000000000000    -0.00000000000000    -0.00002156959076
    2     0.00000000000000     0.00000000000000     0.00000000000000     0.00006614838413
    3    -0.00028637256498     0.00000000000000    -0.00000000000000     0.00000000000000
    4    -0.00018032232797     0.00000000000000     0.00000000000000    -0.00000000000000
    5    -0.00000000000000    -0.00000000000000    -0.00000000000000     0.00155453773430
    6    -0.00000000000000     0.00000000000000     0.00000000000000    -0.00374534292055
    7     0.00000000000000    -0.00000000000000    -0.00000000000000     0.00007730530100
    8     0.00000011304384    -0.00000000000000     0.00000000000000    -0.00000000000000
    9     0.00000011823187    -0.00000000000000    -0.00000000000000    -0.00000000000000
   10     0.00000000000000    -0.00000000000000    -0.00000000000000     0.00003903987342
   11    -0.00000016013453    -0.00000000000000     0.00000000000000     0.00000000000000
   12     0.00000033652177    -0.00000000000000     0.00000000000000    -0.00000000000000
   13    -0.00000000000000    -0.00000000000000     0.00000000000000    -0.00000874950914
   14     0.00000000000000     0.00000000000000    -0.00000000000000     0.00000122504725
   15     0.00000000000000     0.00000000000000    -0.00000000000000    -0.00000000000000
   16     0.99999994273722     0.00000000000000    -0.00000000000000    -0.00000000000000
   17     0.00000000000000     1.00000000000000     0.00000000000000     0.00000000000000
   18    -0.00000000000000     0.00000000000000     1.00000000000000     0.00000000000000
   19    -0.00000000000000     0.00000000000000     0.00000000000000     0.99999177166600



	Presorting SO-basis two-electron integrals.
	Sorting File: SO Ints (nn|nn) nbuckets = 1
	Transforming the one-electron integrals and constructing Fock matrices
	Starting first half-transformation.
	Sorting half-transformed integrals.
	First half integral transformation complete.
	Starting second half-transformation.
	Two-electron integral transformation complete.

  Integral transformation done. 0.01829800 s
  Reading the two-electron integrals from disk
  Size of two-electron integrals:   0.002913 GB

                -----------------------------------------------
                  String-based Full Configuration Interaction
                          by Francesco A. Evangelista
                -----------------------------------------------

  Number of electrons: 10
  Charge: 0
  Multiplicity: 1
  M_s: 0

  ==> String Lists <==

  Number of alpha electrons     = 1
  Number of beta electrons      = 1
  Number of alpha strings       = 2
  Number of beta strings        = 2
  Timing for strings        =      0.000 s
  Timing for NN strings     =      0.000 s
  Timing for VO strings     =      0.000 s
  Timing for OO strings     =      0.000 s
  Timing for Knowles-Handy  =      0.000 s
  Timing for VVOO strings   =      0.000 s
  Timing for VOVO strings   =      0.000 s
  Timing for 1-hole strings =      0.000 s
  Timing for 2-hole strings =      0.000 s
  Timing for 3-hole strings =      0.000 s
  Total timing              =      0.000 s

  ==> FCI Solver <==

    Number of determinants                           4
    Symmetry                                         0
    Multiplicity                                     1
    Number of roots                                  1
    Target root                                      0

  Allocating memory for the Hamiltonian algorithm. Size: 2 x 2 x 2.   Memory: 0.000000 GB

  ==> FCI Initial Guess <==

  ---------------------------------------------
    Root            Energy     <S^2>   Spin
  ---------------------------------------------
      0      -99.938897393916  0.000  singlet
      1      -99.790472108935  2.000  triplet
      2      -99.408752837042  0.000  singlet
      3      -99.052770082744  0.000  singlet
  ---------------------------------------------
  Timing for initial guess  =      0.000 s

  ==> Diagonalizing Hamiltonian <==

  ----------------------------------------
    Iter.      Avg. Energy       Delta_E
  ----------------------------------------
      1      -99.938897393916  -9.994e+01
      2      -99.938897393916  +0.000e+00
  ----------------------------------------
  The Davidson-Liu algorithm converged in 3 iterations.

  ==> Root No. 0 <==

    20      0.94729542
    02     -0.29418018

    Total Energy:       -99.938897393916164

  ==> RDMs for Root No. 0 <== MINTS: Wrapper to libmints.
   by Justin Turney

   Calculation information:
      Number of atoms:                   2
      Number of AO shells:               9
      Number of SO shells:               9
      Number of primitives:             27
      Number of atomic orbitals:        20
      Number of basis functions:        19

      Number of irreps:                  1
      Integral cutoff                 1.00e-12
      Number of functions per irrep: [  19 ]

 OEINTS: Overlap, kinetic, potential, dipole, and quadrupole integrals
         stored in file 35.

      Computing two-electron integrals...done
      Computed 4125 non-zero two-electron integrals.
        Stored in file 33.

	Batch   1 pq = [       0,     190] index = [             0,18145]
 MINTS: Wrapper to libmints.
   by Justin Turney

   Calculation information:
      Number of atoms:                   2
      Number of AO shells:               9
      Number of SO shells:               9
      Number of primitives:             27
      Number of atomic orbitals:        20
      Number of basis functions:        19

      Number of irreps:                  1
      Integral cutoff                 1.00e-12
      Number of functions per irrep: [  19 ]

 OEINTS: Overlap, kinetic, potential, dipole, and quadrupole integrals
         stored in file 35.

      Computing two-electron integrals...done
      Computed 4125 non-zero two-electron integrals.
        Stored in file 33.

	Batch   1 pq = [       0,     190] index = [             0,18145]
  Irrep: 1 Size: 19 x 19

                 1                   2                   3                   4                   5

    1     0.99999999908209     0.00000007095548    -0.00000000000000     0.00000000000000    -0.00003482976199
    2     0.00000007094023     0.99998905708901     0.00000000000000    -0.00000000000000     0.00454765097459
    3    -0.00000000000000     0.00000000000000     0.99999877336795    -0.00000000000000    -0.00000000000000
    4     0.00000000000000    -0.00000000000000    -0.00000000000000     0.99999877336795     0.00000000000000
    5     0.00003479464020    -0.00454713824156     0.00000000000000    -0.00000000000000     0.99997938567939
    6     0.00000752058296     0.00094750117031     0.00000000000000    -0.00000000000000    -0.00001499298701
    7    -0.00000077732993    -0.00015646585836     0.00000000000000     0.00000000000000     0.00157763220484
    8     0.00000000000000    -0.00000000000000    -0.00092180512919     0.00023132532623     0.00000000000000
    9     0.00000000000000     0.00000000000000    -0.00023132532623    -0.00092180512919     0.00000000000000
   10    -0.00000061919904     0.00011187573170    -0.00000000000000    -0.00000000000000    -0.00311345262116
   11    -0.00000000000000    -0.00000000000000    -0.00014597682747     0.00123332200049     0.00000000000000
   12    -0.00000000000000    -0.00000000000000    -0.00123332200049    -0.00014597682747    -0.00000000000000
   13     0.00001801458877     0.00024431089553    -0.00000000000000    -0.00000000000000     0.00260262735349
   14     0.00001121999396     0.00046168479604    -0.00000000000000    -0.00000000000000    -0.00124670973049
   15     0.00000000000000    -0.00000000000000     0.00004655621898    -0.00007393662224     0.00000000000000
   16     0.00000000000000    -0.00000000000000     0.00007393662224     0.00004655621898     0.00000000000000
   17     0.00000000000000    -0.00000000000000    -0.00000000000000    -0.00000000000000     0.00000000000000
   18     0.00000000000000    -0.00000000000000     0.00000000000000    -0.00000000000000     0.00000000000000
   19    -0.00001082496461     0.00004048657181     0.00000000000000     0.00000000000000    -0.00018757421381

                 6                   7                   8                   9                  10

    1    -0.00000763116952     0.00000073402793    -0.00000000000000    -0.00000000000000     0.00000042849531
    2    -0.00094865202359     0.00013699747874     0.00000000000000    -0.00000000000000    -0.00010801596233
    3    -0.00000000000000    -0.00000000000000     0.00092180512919     0.00023132532623    -0.00000000000000
    4     0.00000000000000    -0.00000000000000    -0.00023132532623     0.00092180512919     0.00000000000000
    5    -0.00001499140575    -0.00157829943652    -0.00000000000000    -0.00000000000000     0.00311395260587
    6     0.99983014179507     0.01296535213705     0.00000000000000    -0.00000000000000     0.01086308349776
    7    -0.01296521301258     0.99991468797150    -0.00000000000000     0.00000000000000    -0.00006796286792
    8    -0.00000000000000    -0.00000000000000     0.99999954838167     0.00000000000000    -0.00000000000000
    9     0.00000000000000     0.00000000000000     0.00000000000000     0.99999954838167     0.00000000000000
   10    -0.01086318773247    -0.00006796339266    -0.00000000000000     0.00000000000000     0.99993613721129
   11    -0.00000000000000    -0.00000000000000    -0.00000020993053     0.00000055155754    -0.00000000000000
   12    -0.00000000000000    -0.00000000000000    -0.00000055155754    -0.00000020993053    -0.00000000000000
   13     0.00675468549893     0.00004175695796    -0.00000000000000    -0.00000000000000     0.00004073022437
   14    -0.00263607561395    -0.00001607200139     0.00000000000000     0.00000000000000    -0.00001628577818
   15     0.00000000000000     0.00000000000000     0.00000003000961    -0.00000002869278     0.00000000000000
   16     0.00000000000000     0.00000000000000     0.00000002869278     0.00000003000961     0.00000000000000
   17     0.00000000000000     0.00000000000000    -0.00000000000000    -0.00000000000000     0.00000000000000
   18    -0.00000000000000    -0.00000000000000     0.00000000000000     0.00000000000000    -0.00000000000000
   19    -0.00032721156994    -0.00000197036331     0.00000000000000     0.00000000000000    -0.00000207169900

                11                  12                  13                  14                  15

    1     0.00000000000000     0.00000000000000    -0.00001787282439    -0.00001128340291    -0.00000000000000
    2     0.00000000000000     0.00000000000000    -0.00024973923591    -0.00045850982587     0.00000000000000
    3     0.00014597682747     0.00123332200049     0.00000000000000     0.00000000000000    -0.00004655621898
    4    -0.00123332200049     0.00014597682747     0.00000000000000     0.00000000000000     0.00007393662224
    5    -0.00000000000000     0.00000000000000    -0.00260150464810     0.00124880159583    -0.00000000000000
    6     0.00000000000000     0.00000000000000    -0.00675491983823     0.00263563931237    -0.00000000000000
    7    -0.00000000000000    -0.00000000000000     0.00004175882677    -0.00001606917069     0.00000000000000
    8    -0.00000020993053    -0.00000055155754    -0.00000000000000     0.00000000000000     0.00000003000961
    9     0.00000055155754    -0.00000020993053    -0.00000000000000     0.00000000000000    -0.00000002869278
   10    -0.00000000000000    -0.00000000000000     0.00004072970873    -0.00001628625305     0.00000000000000
   11     0.99999922880333     0.00000000000000     0.00000000000000    -0.00000000000000     0.00000004899193
   12     0.00000000000000     0.99999922880333     0.00000000000000    -0.00000000000000     0.00000002331290
   13     0.00000000000000     0.00000000000000     0.99997376817010     0.00001047016716    -0.00000000000000
   14    -0.00000000000000    -0.00000000000000     0.00001046907411     0.99999564144451     0.00000000000000
   15     0.00000004899193     0.00000002331290    -0.00000000000000     0.00000000000000     0.99999999618294
   16    -0.00000002331290     0.00000004899193    -0.00000000000000     0.00000000000000     0.00000000000000
   17    -0.00000000000000    -0.00000000000000    -0.00000000000000     0.00000000000000     0.00000000000000
   18     0.00000000000000     0.00000000000000     0.00000000000000    -0.00000000000000    -0.00000000000000
   19    -0.00000000000000    -0.00000000000000     0.00000134439531    -0.00000055754903     0.00000000000000

                16                  17                  18                  19

    1    -0.00000000000000    -0.00000000000000    -0.00000000000000     0.00001081595240
    2     0.00000000000000     0.00000000000000     0.00000000000000    -0.00003994339248
    3    -0.00007393662224     0.00000000000000    -0.00000000000000    -0.00000000000000
    4    -0.00004655621898     0.00000000000000     0.00000000000000    -0.00000000000000
    5    -0.00000000000000    -0.00000000000000    -0.00000000000000     0.00018775746501
    6    -0.00000000000000    -0.00000000000000     0.00000000000000     0.00032717352424
    7     0.00000000000000     0.00000000000000    -0.00000000000000    -0.00000197012906
    8     0.00000002869278    -0.00000000000000     0.00000000000000     0.00000000000000
    9     0.00000003000961    -0.00000000000000     0.00000000000000     0.00000000000000
   10     0.00000000000000     0.00000000000000    -0.00000000000000    -0.00000207173152
   11    -0.00000002331290    -0.00000000000000     0.00000000000000    -0.00000000000000
   12     0.00000004899193    -0.00000000000000     0.00000000000000    -0.00000000000000
   13    -0.00000000000000    -0.00000000000000     0.00000000000000     0.00000134451327
   14     0.00000000000000     0.00000000000000    -0.00000000000000    -0.00000055750854
   15     0.00000000000000     0.00000000000000    -0.00000000000000     0.00000000000000
   16     0.99999999618294     0.00000000000000    -0.00000000000000     0.00000000000000
   17     0.00000000000000     1.00000000000000     0.00000000000000     0.00000000000000
   18    -0.00000000000000     0.00000000000000     1.00000000000000    -0.00000000000000
   19     0.00000000000000     0.00000000000000    -0.00000000000000     0.99999992799093



	Presorting SO-basis two-electron integrals.
	Sorting File: SO Ints (nn|nn) nbuckets = 1
	Transforming the one-electron integrals and constructing Fock matrices
	Starting first half-transformation.
	Sorting half-transformed integrals.
	First half integral transformation complete.
	Starting second half-transformation.
	Two-electron integral transformation complete.

  Integral transformation done. 0.01871000 s
  Reading the two-electron integrals from disk
  Size of two-electron integrals:   0.002913 GB

                -----------------------------------------------
                  String-based Full Configuration Interaction
                          by Francesco A. Evangelista
                -----------------------------------------------

  Number of electrons: 10
  Charge: 0
  Multiplicity: 1
  M_s: 0

  ==> String Lists <==

  Number of alpha electrons     = 1
  Number of beta electrons      = 1
  Number of alpha strings       = 2
  Number of beta strings        = 2
  Timing for strings        =      0.000 s
  Timing for NN strings     =      0.000 s
  Timing for VO strings     =      0.000 s
  Timing for OO strings     =      0.000 s
  Timing for Knowles-Handy  =      0.000 s
  Timing for VVOO strings   =      0.000 s
  Timing for VOVO strings   =      0.000 s
  Timing for 1-hole strings =      0.000 s
  Timing for 2-hole strings =      0.000 s
  Timing for 3-hole strings =      0.000 s
  Total timing              =      0.000 s

  ==> FCI Solver <==

    Number of determinants                           4
    Symmetry                                         0
    Multiplicity                                     1
    Number of roots                                  1
    Target root                                      0

  Allocating memory for the Hamiltonian algorithm. Size: 2 x 2 x 2.   Memory: 0.000000 GB

  ==> FCI Initial Guess <==

  ---------------------------------------------
    Root            Energy     <S^2>   Spin
  ---------------------------------------------
      0      -99.939234262120  0.000  singlet
      1      -99.785875962017  2.000  triplet
      2      -99.393588972387  0.000  singlet
      3      -99.039995759816  0.000  singlet
  ---------------------------------------------
  Timing for initial guess  =      0.000 s

  ==> Diagonalizing Hamiltonian <==

  ----------------------------------------
    Iter.      Avg. Energy       Delta_E
  ----------------------------------------
      1      -99.939234262120  -9.994e+01
      2      -99.939234262120  -1.421e-14
  ----------------------------------------
  The Davidson-Liu algorithm converged in 3 iterations.

  ==> Root No. 0 <==

    20     -0.94809374
    02      0.29296744

    Total Energy:       -99.939234262120394

  ==> RDMs for Root No. 0 <== MINTS: Wrapper to libmints.
   by Justin Turney

   Calculation information:
      Number of atoms:                   2
      Number of AO shells:               9
      Number of SO shells:               9
      Number of primitives:             27
      Number of atomic orbitals:        20
      Number of basis functions:        19

      Number of irreps:                  1
      Integral cutoff                 1.00e-12
      Number of functions per irrep: [  19 ]

 OEINTS: Overlap, kinetic, potential, dipole, and quadrupole integrals
         stored in file 35.

      Computing two-electron integrals...done
      Computed 4125 non-zero two-electron integrals.
        Stored in file 33.

	Batch   1 pq = [       0,     190] index = [             0,18145]
 MINTS: Wrapper to libmints.
   by Justin Turney

   Calculation information:
      Number of atoms:                   2
      Number of AO shells:               9
      Number of SO shells:               9
      Number of primitives:             27
      Number of atomic orbitals:        20
      Number of basis functions:        19

      Number of irreps:                  1
      Integral cutoff                 1.00e-12
      Number of functions per irrep: [  19 ]

 OEINTS: Overlap, kinetic, potential, dipole, and quadrupole integrals
         stored in file 35.

      Computing two-electron integrals...done
      Computed 4125 non-zero two-electron integrals.
        Stored in file 33.

	Batch   1 pq = [       0,     190] index = [             0,18145]
  Irrep: 1 Size: 19 x 19

                 1                   2                   3                   4                   5

    1     0.99999999997295     0.00000000232705    -0.00000000000000     0.00000000000000    -0.00000224325692
    2     0.00000000232468     0.99999744304319     0.00000000000000    -0.00000000000000     0.00225273933246
    3    -0.00000000000000     0.00000000000000     0.99999975924862    -0.00000000000000    -0.00000000000000
    4     0.00000000000000    -0.00000000000000    -0.00000000000000     0.99999975924862     0.00000000000000
    5     0.00000223965256    -0.00225264194207     0.00000000000000    -0.00000000000000     0.99999588597240
    6     0.00000208212177     0.00009300076527     0.00000000000000    -0.00000000000000    -0.00000345197860
    7     0.00000025846164    -0.00006921018533     0.00000000000000     0.00000000000000     0.00070073166015
    8     0.00000000000000    -0.00000000000000    -0.00046114300875     0.00011572300214     0.00000000000000
    9     0.00000000000000     0.00000000000000    -0.00011572300214    -0.00046114300875     0.00000000000000
   10    -0.00000121526482     0.00004998661429     0.00000000000000    -0.00000000000000    -0.00098572016180
   11    -0.00000000000000    -0.00000000000000    -0.00005939091367     0.00050177909555    -0.00000000000000
   12    -0.00000000000000    -0.00000000000000    -0.00050177909555    -0.00005939091367    -0.00000000000000
   13     0.00000219412178     0.00006891600752    -0.00000000000000    -0.00000000000000     0.00115291240317
   14     0.00000145923544     0.00013667540281    -0.00000000000000    -0.00000000000000    -0.00059351450798
   15     0.00000000000000    -0.00000000000000     0.00000649278825    -0.00001031129337     0.00000000000000
   16     0.00000000000000    -0.00000000000000     0.00001031129337     0.00000649278825     0.00000000000000
   17     0.00000000000000    -0.00000000000000    -0.00000000000000    -0.00000000000000    -0.00000000000000
   18     0.00000000000000    -0.00000000000000     0.00000000000000    -0.00000000000000     0.00000000000000
   19    -0.00000602232714     0.00001199654437    -0.00000000000000    -0.00000000000000    -0.00009513807602

                 6                   7                   8                   9                  10

    1    -0.00000209222398    -0.00000026669131    -0.00000000000000    -0.00000000000000     0.00000120228666
    2    -0.00009308109396     0.00006719461437     0.00000000000000    -0.00000000000000    -0.00004824597785
    3    -0.00000000000000    -0.00000000000000     0.00046114300875     0.00011572300214    -0.00000000000000
    4     0.00000000000000    -0.00000000000000    -0.00011572300214     0.00046114300875     0.00000000000000
    5    -0.00000345192131    -0.00070088529998    -0.00000000000000    -0.00000000000000     0.00098583080845
    6     0.99996722996905     0.00469550882651    -0.00000000000000    -0.00000000000000     0.00515931180136
    7    -0.00469550248148     0.99998872804578     0.00000000000000     0.00000000000000    -0.00001176590116
    8     0.00000000000000     0.00000000000000     0.99999988697764    -0.00000000000000     0.00000000000000
    9     0.00000000000000     0.00000000000000    -0.00000000000000     0.99999988697764     0.00000000000000
   10    -0.00515931636864    -0.00001176589458     0.00000000000000     0.00000000000000     0.99998620342765
   11    -0.00000000000000    -0.00000000000000    -0.00000004272755     0.00000011225953    -0.00000000000000
   12    -0.00000000000000    -0.00000000000000    -0.00000011225953    -0.00000004272755    -0.00000000000000
   13     0.00368858003267     0.00000825840672    -0.00000000000000    -0.00000000000000     0.00001008198269
   14    -0.00180422830166    -0.00000402330556     0.00000000000000     0.00000000000000    -0.00000495027787
   15     0.00000000000000     0.00000000000000     0.00000000209368    -0.00000000200181     0.00000000000000
   16     0.00000000000000     0.00000000000000     0.00000000200181     0.00000000209368     0.00000000000000
   17     0.00000000000000     0.00000000000000    -0.00000000000000    -0.00000000000000     0.00000000000000
   18    -0.00000000000000    -0.00000000000000     0.00000000000000    -0.00000000000000    -0.00000000000000
   19     0.00005618074999     0.00000016564774     0.00000000000000    -0.00000000000000     0.00000009773749

                11                  12                  13                  14                  15

    1     0.00000000000000     0.00000000000000    -0.00000218383889    -0.00000146433191    -0.00000000000000
    2     0.00000000000000     0.00000000000000    -0.00007116980944    -0.00013550591249     0.00000000000000
    3     0.00005939091367     0.00050177909555     0.00000000000000     0.00000000000000    -0.00000649278825
    4    -0.00050177909555     0.00005939091367     0.00000000000000     0.00000000000000     0.00001031129337
    5     0.00000000000000     0.00000000000000    -0.00115275462281     0.00059382107531    -0.00000000000000
    6     0.00000000000000     0.00000000000000    -0.00368858655403     0.00180421563670    -0.00000000000000
    7    -0.00000000000000    -0.00000000000000     0.00000825850503    -0.00000402324071     0.00000000000000
    8    -0.00000004272755    -0.00000011225953    -0.00000000000000     0.00000000000000     0.00000000209368
    9     0.00000011225953    -0.00000004272755    -0.00000000000000     0.00000000000000    -0.00000000200181
   10    -0.00000000000000    -0.00000000000000     0.00001008190516    -0.00000495033768     0.00000000000000
   11     0.99999987234521    -0.00000000000000     0.00000000000000    -0.00000000000000     0.00000000277980
   12    -0.00000000000000     0.99999987234521     0.00000000000000    -0.00000000000000     0.00000000132277
   13     0.00000000000000     0.00000000000000     0.99999253008851     0.00000366506755    -0.00000000000000
   14    -0.00000000000000    -0.00000000000000     0.00000366493801     0.99999818688053     0.00000000000000
   15     0.00000000277980     0.00000000132277    -0.00000000000000     0.00000000000000     0.99999999992576
   16    -0.00000000132277     0.00000000277980    -0.00000000000000     0.00000000000000     0.00000000000000
   17    -0.00000000000000    -0.00000000000000    -0.00000000000000     0.00000000000000     0.00000000000000
   18     0.00000000000000     0.00000000000000     0.00000000000000    -0.00000000000000    -0.00000000000000
   19     0.00000000000000     0.00000000000000    -0.00000004918587     0.00000002163114    -0.00000000000000

                16                  17                  18                  19

    1    -0.00000000000000    -0.00000000000000    -0.00000000000000     0.00000602223112
    2     0.00000000000000     0.00000000000000     0.00000000000000    -0.00001177697009
    3    -0.00001031129337     0.00000000000000    -0.00000000000000     0.00000000000000
    4    -0.00000649278825     0.00000000000000     0.00000000000000     0.00000000000000
    5    -0.00000000000000     0.00000000000000    -0.00000000000000     0.00009516486675
    6    -0.00000000000000    -0.00000000000000     0.00000000000000    -0.00005618184336
    7     0.00000000000000     0.00000000000000    -0.00000000000000     0.00000016565072
    8     0.00000000200181    -0.00000000000000     0.00000000000000     0.00000000000000
    9     0.00000000209368    -0.00000000000000    -0.00000000000000    -0.00000000000000
   10     0.00000000000000     0.00000000000000    -0.00000000000000     0.00000009773417
   11    -0.00000000132277    -0.00000000000000     0.00000000000000     0.00000000000000
   12     0.00000000277980    -0.00000000000000     0.00000000000000     0.00000000000000
   13    -0.00000000000000    -0.00000000000000     0.00000000000000    -0.00000004917179
   14     0.00000000000000     0.00000000000000    -0.00000000000000     0.00000002163646
   15     0.00000000000000     0.00000000000000    -0.00000000000000    -0.00000000000000
   16     0.99999999992576     0.00000000000000    -0.00000000000000    -0.00000000000000
   17     0.00000000000000     1.00000000000000     0.00000000000000    -0.00000000000000
   18    -0.00000000000000     0.00000000000000     1.00000000000000     0.00000000000000
   19    -0.00000000000000    -0.00000000000000     0.00000000000000     0.99999999380612



	Presorting SO-basis two-electron integrals.
	Sorting File: SO Ints (nn|nn) nbuckets = 1
	Transforming the one-electron integrals and constructing Fock matrices
	Starting first half-transformation.
	Sorting half-transformed integrals.
	First half integral transformation complete.
	Starting second half-transformation.
	Two-electron integral transformation complete.

  Integral transformation done. 0.01827200 s
  Reading the two-electron integrals from disk
  Size of two-electron integrals:   0.002913 GB

                -----------------------------------------------
                  String-based Full Configuration Interaction
                          by Francesco A. Evangelista
                -----------------------------------------------

  Number of electrons: 10
  Charge: 0
  Multiplicity: 1
  M_s: 0

  ==> String Lists <==

  Number of alpha electrons     = 1
  Number of beta electrons      = 1
  Number of alpha strings       = 2
  Number of beta strings        = 2
  Timing for strings        =      0.000 s
  Timing for NN strings     =      0.000 s
  Timing for VO strings     =      0.000 s
  Timing for OO strings     =      0.000 s
  Timing for Knowles-Handy  =      0.000 s
  Timing for VVOO strings   =      0.000 s
  Timing for VOVO strings   =      0.000 s
  Timing for 1-hole strings =      0.000 s
  Timing for 2-hole strings =      0.000 s
  Timing for 3-hole strings =      0.000 s
  Total timing              =      0.000 s

  ==> FCI Solver <==

    Number of determinants                           4
    Symmetry                                         0
    Multiplicity                                     1
    Number of roots                                  1
    Target root                                      0

  Allocating memory for the Hamiltonian algorithm. Size: 2 x 2 x 2.   Memory: 0.000000 GB

  ==> FCI Initial Guess <==

  ---------------------------------------------
    Root            Energy     <S^2>   Spin
  ---------------------------------------------
      0      -99.939298606712  0.000  singlet
      1      -99.783452475244  2.000  triplet
      2      -99.386264262953  0.000  singlet
      3      -99.034485462274  0.000  singlet
  ---------------------------------------------
  Timing for initial guess  =      0.000 s

  ==> Diagonalizing Hamiltonian <==

  ----------------------------------------
    Iter.      Avg. Energy       Delta_E
  ----------------------------------------
      1      -99.939298606712  -9.994e+01
      2      -99.939298606712  -2.842e-14
  ----------------------------------------
  The Davidson-Liu algorithm converged in 3 iterations.

  ==> Root No. 0 <==

    20      0.94858701
    02     -0.29212575

    Total Energy:       -99.939298606711986

  ==> RDMs for Root No. 0 <== MINTS: Wrapper to libmints.
   by Justin Turney

   Calculation information:
      Number of atoms:                   2
      Number of AO shells:               9
      Number of SO shells:               9
      Number of primitives:             27
      Number of atomic orbitals:        20
      Number of basis functions:        19

      Number of irreps:                  1
      Integral cutoff                 1.00e-12
      Number of functions per irrep: [  19 ]

 OEINTS: Overlap, kinetic, potential, dipole, and quadrupole integrals
         stored in file 35.

      Computing two-electron integrals...done
      Computed 4125 non-zero two-electron integrals.
        Stored in file 33.

	Batch   1 pq = [       0,     190] index = [             0,18145]
 MINTS: Wrapper to libmints.
   by Justin Turney

   Calculation information:
      Number of atoms:                   2
      Number of AO shells:               9
      Number of SO shells:               9
      Number of primitives:             27
      Number of atomic orbitals:        20
      Number of basis functions:        19

      Number of irreps:                  1
      Integral cutoff                 1.00e-12
      Number of functions per irrep: [  19 ]

 OEINTS: Overlap, kinetic, potential, dipole, and quadrupole integrals
         stored in file 35.

      Computing two-electron integrals...done
      Computed 4125 non-zero two-electron integrals.
        Stored in file 33.

	Batch   1 pq = [       0,     190] index = [             0,18145]
  Irrep: 1 Size: 19 x 19

                 1                   2                   3                   4                   5

    1     0.99999999999014     0.00000000218921    -0.00000000000000     0.00000000000000    -0.00000333426674
    2     0.00000000218938     0.99999914494684     0.00000000000000    -0.00000000000000     0.00130307012735
    3    -0.00000000000000     0.00000000000000     0.99999994504871     0.00000000000000    -0.00000000000000
    4     0.00000000000000    -0.00000000000000     0.00000000000000     0.99999994504871     0.00000000000000
    5     0.00000333459680    -0.00130306288170     0.00000000000000    -0.00000000000000     0.99999887869871
    6     0.00000084772841    -0.00007475484464     0.00000000000000    -0.00000000000000    -0.00000076235471
    7     0.00000014304243    -0.00004017963356     0.00000000000000     0.00000000000000     0.00030356598707
    8     0.00000000000000     0.00000000000000    -0.00023409181127     0.00005874491570    -0.00000000000000
    9     0.00000000000000     0.00000000000000    -0.00005874491570    -0.00023409181127     0.00000000000000
   10     0.00000006238689     0.00001083859430     0.00000000000000    -0.00000000000000    -0.00033029166679
   11     0.00000000000000    -0.00000000000000    -0.00002669029437     0.00022549967568    -0.00000000000000
   12     0.00000000000000    -0.00000000000000    -0.00022549967568    -0.00002669029437    -0.00000000000000
   13    -0.00000014121036     0.00004557771830    -0.00000000000000     0.00000000000000     0.00050957290434
   14     0.00000101424234     0.00005211689173    -0.00000000000000    -0.00000000000000    -0.00028923991654
   15     0.00000000000000    -0.00000000000000    -0.00000505945491     0.00000803499542     0.00000000000000
   16     0.00000000000000    -0.00000000000000    -0.00000803499542    -0.00000505945491     0.00000000000000
   17    -0.00000000000000     0.00000000000000     0.00000000000000     0.00000000000000    -0.00000000000000
   18    -0.00000000000000     0.00000000000000    -0.00000000000000     0.00000000000000    -0.00000000000000
   19    -0.00000260796734     0.00000436461358     0.00000000000000    -0.00000000000000    -0.00000535770996

                 6                   7                   8                   9                  10

    1    -0.00000084584926    -0.00000014361382    -0.00000000000000    -0.00000000000000    -0.00000006552053
    2     0.00007467099104     0.00003992376421    -0.00000000000000    -0.00000000000000    -0.00001022888194
    3    -0.00000000000000    -0.00000000000000     0.00023409181127     0.00005874491570    -0.00000000000000
    4     0.00000000000000    -0.00000000000000    -0.00005874491570     0.00023409181127     0.00000000000000
    5    -0.00000076231811    -0.00030361817762     0.00000000000000    -0.00000000000000     0.00033030539272
    6     0.99999325535798     0.00187022601539     0.00000000000000    -0.00000000000000     0.00239997848188
    7    -0.00187022900790     0.99999820423266    -0.00000000000000     0.00000000000000    -0.00000219391471
    8    -0.00000000000000    -0.00000000000000     0.99999997087503    -0.00000000000000    -0.00000000000000
    9     0.00000000000000     0.00000000000000    -0.00000000000000     0.99999997087503     0.00000000000000
   10    -0.00239997769493    -0.00000219390747    -0.00000000000000     0.00000000000000     0.99999706543850
   11    -0.00000000000000    -0.00000000000000    -0.00000000974747     0.00000002560985    -0.00000000000000
   12    -0.00000000000000    -0.00000000000000    -0.00000002560985    -0.00000000974747    -0.00000000000000
   13     0.00181701249589     0.00000162268439     0.00000000000000    -0.00000000000000     0.00000226431534
   14    -0.00095758459657    -0.00000085050487    -0.00000000000000     0.00000000000000    -0.00000119713965
   15     0.00000000000000     0.00000000000000    -0.00000000082820     0.00000000079185     0.00000000000000
   16    -0.00000000000000    -0.00000000000000    -0.00000000079185    -0.00000000082820    -0.00000000000000
   17     0.00000000000000     0.00000000000000     0.00000000000000     0.00000000000000     0.00000000000000
   18     0.00000000000000     0.00000000000000    -0.00000000000000     0.00000000000000     0.00000000000000
   19     0.00008665648821     0.00000008193490     0.00000000000000    -0.00000000000000     0.00000010307924

                11                  12                  13                  14                  15

    1    -0.00000000000000    -0.00000000000000     0.00000014444803    -0.00000101601778    -0.00000000000000
    2     0.00000000000000     0.00000000000000    -0.00004637744257    -0.00005166840381     0.00000000000000
    3     0.00002669029437     0.00022549967568     0.00000000000000     0.00000000000000     0.00000505945491
    4    -0.00022549967568     0.00002669029437    -0.00000000000000     0.00000000000000    -0.00000803499542
    5     0.00000000000000     0.00000000000000    -0.00050951299198     0.00028930753275    -0.00000000000000
    6     0.00000000000000     0.00000000000000    -0.00181700906063     0.00095758847277    -0.00000000000000
    7    -0.00000000000000    -0.00000000000000     0.00000162269899    -0.00000085050644     0.00000000000000
    8    -0.00000000974747    -0.00000002560985     0.00000000000000    -0.00000000000000    -0.00000000082820
    9     0.00000002560985    -0.00000000974747    -0.00000000000000     0.00000000000000     0.00000000079185
   10    -0.00000000000000    -0.00000000000000     0.00000226430319    -0.00000119714862     0.00000000000000
   11     0.99999997421876    -0.00000000000000     0.00000000000000    -0.00000000000000    -0.00000000097346
   12    -0.00000000000000     0.99999997421876     0.00000000000000    -0.00000000000000    -0.00000000046322
   13     0.00000000000000     0.00000000000000     0.99999821835593     0.00000094249186    -0.00000000000000
   14    -0.00000000000000    -0.00000000000000     0.00000094247116     0.99999949832576     0.00000000000000
   15    -0.00000000097346    -0.00000000046322    -0.00000000000000     0.00000000000000     0.99999999995492
   16     0.00000000046322    -0.00000000097346    -0.00000000000000     0.00000000000000    -0.00000000000000
   17     0.00000000000000     0.00000000000000    -0.00000000000000     0.00000000000000     0.00000000000000
   18    -0.00000000000000    -0.00000000000000    -0.00000000000000     0.00000000000000    -0.00000000000000
   19     0.00000000000000     0.00000000000000    -0.00000007746340     0.00000004060368    -0.00000000000000

                16                  17                  18                  19

    1    -0.00000000000000     0.00000000000000     0.00000000000000     0.00000260802284
    2     0.00000000000000    -0.00000000000000    -0.00000000000000    -0.00000436410283
    3     0.00000803499542    -0.00000000000000     0.00000000000000    -0.00000000000000
    4     0.00000505945491    -0.00000000000000    -0.00000000000000     0.00000000000000
    5    -0.00000000000000     0.00000000000000     0.00000000000000     0.00000536340571
    6     0.00000000000000    -0.00000000000000    -0.00000000000000    -0.00008665615993
    7    -0.00000000000000     0.00000000000000     0.00000000000000     0.00000008193527
    8    -0.00000000079185     0.00000000000000    -0.00000000000000     0.00000000000000
    9    -0.00000000082820     0.00000000000000     0.00000000000000    -0.00000000000000
   10    -0.00000000000000     0.00000000000000     0.00000000000000     0.00000010307835
   11     0.00000000046322     0.00000000000000    -0.00000000000000     0.00000000000000
   12    -0.00000000097346     0.00000000000000    -0.00000000000000     0.00000000000000
   13    -0.00000000000000    -0.00000000000000    -0.00000000000000    -0.00000007746222
   14     0.00000000000000     0.00000000000000     0.00000000000000     0.00000004060304
   15    -0.00000000000000     0.00000000000000    -0.00000000000000    -0.00000000000000
   16     0.99999999995492     0.00000000000000    -0.00000000000000     0.00000000000000
   17     0.00000000000000     1.00000000000000    -0.00000000000000    -0.00000000000000
   18    -0.00000000000000    -0.00000000000000     1.00000000000000    -0.00000000000000
   19     0.00000000000000    -0.00000000000000    -0.00000000000000     0.99999999621804



	Presorting SO-basis two-electron integrals.
	Sorting File: SO Ints (nn|nn) nbuckets = 1
	Transforming the one-electron integrals and constructing Fock matrices
	Starting first half-transformation.
	Sorting half-transformed integrals.
	First half integral transformation complete.
	Starting second half-transformation.
	Two-electron integral transformation complete.

  Integral transformation done. 0.02009000 s
  Reading the two-electron integrals from disk
  Size of two-electron integrals:   0.002913 GB

                -----------------------------------------------
                  String-based Full Configuration Interaction
                          by Francesco A. Evangelista
                -----------------------------------------------

  Number of electrons: 10
  Charge: 0
  Multiplicity: 1
  M_s: 0

  ==> String Lists <==

  Number of alpha electrons     = 1
  Number of beta electrons      = 1
  Number of alpha strings       = 2
  Number of beta strings        = 2
  Timing for strings        =      0.000 s
  Timing for NN strings     =      0.000 s
  Timing for VO strings     =      0.000 s
  Timing for OO strings     =      0.000 s
  Timing for Knowles-Handy  =      0.000 s
  Timing for VVOO strings   =      0.000 s
  Timing for VOVO strings   =      0.000 s
  Timing for 1-hole strings =      0.000 s
  Timing for 2-hole strings =      0.000 s
  Timing for 3-hole strings =      0.000 s
  Total timing              =      0.000 s

  ==> FCI Solver <==

    Number of determinants                           4
    Symmetry                                         0
    Multiplicity                                     1
    Number of roots                                  1
    Target root                                      0

  Allocating memory for the Hamiltonian algorithm. Size: 2 x 2 x 2.   Memory: 0.000000 GB

  ==> FCI Initial Guess <==

  ---------------------------------------------
    Root            Energy     <S^2>   Spin
  ---------------------------------------------
      0      -99.939312241002  0.000  singlet
      1      -99.782250391391  2.000  triplet
      2      -99.382836101826  0.000  singlet
      3      -99.032000983174  0.000  singlet
  ---------------------------------------------
  Timing for initial guess  =      0.000 s

  ==> Diagonalizing Hamiltonian <==

  ----------------------------------------
    Iter.      Avg. Energy       Delta_E
  ----------------------------------------
      1      -99.939312241002  -9.994e+01
      2      -99.939312241002  +0.000e+00
  ----------------------------------------
  The Davidson-Liu algorithm converged in 3 iterations.

  ==> Root No. 0 <==

    20     -0.94885588
    02      0.29165431

    Total Energy:       -99.939312241001915

  ==> RDMs for Root No. 0 <== MINTS: Wrapper to libmints.
   by Justin Turney

   Calculation information:
      Number of atoms:                   2
      Number of AO shells:               9
      Number of SO shells:               9
      Number of primitives:             27
      Number of atomic orbitals:        20
      Number of basis functions:        19

      Number of irreps:                  1
      Integral cutoff                 1.00e-12
      Number of functions per irrep: [  19 ]

 OEINTS: Overlap, kinetic, potential, dipole, and quadrupole integrals
         stored in file 35.

      Computing two-electron integrals...done
      Computed 4125 non-zero two-electron integrals.
        Stored in file 33.

	Batch   1 pq = [       0,     190] index = [             0,18145]
 MINTS: Wrapper to libmints.
   by Justin Turney

   Calculation information:
      Number of atoms:                   2
      Number of AO shells:               9
      Number of SO shells:               9
      Number of primitives:             27
      Number of atomic orbitals:        20
      Number of basis functions:        19

      Number of irreps:                  1
      Integral cutoff                 1.00e-12
      Number of functions per irrep: [  19 ]

 OEINTS: Overlap, kinetic, potential, dipole, and quadrupole integrals
         stored in file 35.

      Computing two-electron integrals...done
      Computed 4125 non-zero two-electron integrals.
        Stored in file 33.

	Batch   1 pq = [       0,     190] index = [             0,18145]
  Irrep: 1 Size: 19 x 19

                 1                   2                   3                   4                   5

    1     0.99999999999587     0.00000000097673    -0.00000000000000     0.00000000000000    -0.00000252514843
    2     0.00000000097680     0.99999970303042     0.00000000000000    -0.00000000000000     0.00076463205946
[...]
   17     0.00000000000000     0.00000000000000    -0.00000000000000     0.00000000000000     0.00000000000000
   18    -0.00000000000000     0.00000000000000    -0.00000000000000     0.00000000000000    -0.00000000000000
   19    -0.00000000000000     0.00000000000000    -0.00000000000484     0.00000000002726    -0.00000000000000

                16                  17                  18                  19

    1    -0.00000000000000     0.00000000000000     0.00000000000000     0.00000000541840
    2    -0.00000000000000    -0.00000000000000    -0.00000000000000     0.00000004153404
    3     0.00000022149076    -0.00000000000000    -0.00000000000000    -0.00000000000000
    4     0.00000013946772     0.00000000000000    -0.00000000000000    -0.00000000000000
    5    -0.00000000000000     0.00000000000000    -0.00000000000000    -0.00000130991687
    6     0.00000000000000    -0.00000000000000    -0.00000000000000    -0.00000591376390
    7    -0.00000000000000     0.00000000000000     0.00000000000000     0.00000000000951
    8    -0.00000000000007     0.00000000000000     0.00000000000000     0.00000000000000
    9    -0.00000000000008    -0.00000000000000     0.00000000000000    -0.00000000000000
   10    -0.00000000000000     0.00000000000000     0.00000000000000     0.00000000002791
   11     0.00000000000003     0.00000000000000    -0.00000000000000    -0.00000000000000
   12    -0.00000000000006     0.00000000000000     0.00000000000000     0.00000000000000
   13     0.00000000000000    -0.00000000000000    -0.00000000000000    -0.00000000000484
   14    -0.00000000000000     0.00000000000000     0.00000000000000     0.00000000002726
   15     0.00000000000000     0.00000000000000    -0.00000000000000    -0.00000000000000
   16     0.99999999999997     0.00000000000000     0.00000000000000     0.00000000000000
   17     0.00000000000000     1.00000000000000    -0.00000000000000    -0.00000000000000
   18     0.00000000000000    -0.00000000000000     1.00000000000000    -0.00000000000000
   19     0.00000000000000    -0.00000000000000    -0.00000000000000     0.99999999998165



	Presorting SO-basis two-electron integrals.
	Sorting File: SO Ints (nn|nn) nbuckets = 1
	Transforming the one-electron integrals and constructing Fock matrices
	Starting first half-transformation.
	Sorting half-transformed integrals.
	First half integral transformation complete.
	Starting second half-transformation.
	Two-electron integral transformation complete.

  Integral transformation done. 0.01950900 s
  Reading the two-electron integrals from disk
  Size of two-electron integrals:   0.002913 GB

                -----------------------------------------------
                  String-based Full Configuration Interaction
                          by Francesco A. Evangelista
                -----------------------------------------------

  Number of electrons: 10
  Charge: 0
  Multiplicity: 1
  M_s: 0

  ==> String Lists <==

  Number of alpha electrons     = 1
  Number of beta electrons      = 1
  Number of alpha strings       = 2
  Number of beta strings        = 2
  Timing for strings        =      0.000 s
  Timing for NN strings     =      0.000 s
  Timing for VO strings     =      0.000 s
  Timing for OO strings     =      0.000 s
  Timing for Knowles-Handy  =      0.000 s
  Timing for VVOO strings   =      0.000 s
  Timing for VOVO strings   =      0.000 s
  Timing for 1-hole strings =      0.000 s
  Timing for 2-hole strings =      0.000 s
  Timing for 3-hole strings =      0.000 s
  Total timing              =      0.000 s

  ==> FCI Solver <==

    Number of determinants                           4
    Symmetry                                         0
    Multiplicity                                     1
    Number of roots                                  1
    Target root                                      0

  Allocating memory for the Hamiltonian algorithm. Size: 2 x 2 x 2.   Memory: 0.000000 GB

  ==> FCI Initial Guess <==

  ---------------------------------------------
    Root            Energy     <S^2>   Spin
  ---------------------------------------------
      0      -99.939316381362  0.000  singlet
      1      -99.781111849972  2.000  triplet
      2      -99.379740902576  0.000  singlet
      3      -99.029892092148  0.000  singlet
  ---------------------------------------------
  Timing for initial guess  =      0.000 s

  ==> Diagonalizing Hamiltonian <==

  ----------------------------------------
    Iter.      Avg. Energy       Delta_E
  ----------------------------------------
      1      -99.939316381362  -9.994e+01
      2      -99.939316381362  +1.421e-14
  ----------------------------------------
  The Davidson-Liu algorithm converged in 3 iterations.

  ==> Root No. 0 <==

    20     -0.94913532
    02      0.29116033

    Total Energy:       -99.939316381362246

  ==> RDMs for Root No. 0 <== MINTS: Wrapper to libmints.
   by Justin Turney

   Calculation information:
      Number of atoms:                   2
      Number of AO shells:               9
      Number of SO shells:               9
      Number of primitives:             27
      Number of atomic orbitals:        20
      Number of basis functions:        19

      Number of irreps:                  1
      Integral cutoff                 1.00e-12
      Number of functions per irrep: [  19 ]

 OEINTS: Overlap, kinetic, potential, dipole, and quadrupole integrals
         stored in file 35.

      Computing two-electron integrals...done
      Computed 4125 non-zero two-electron integrals.
        Stored in file 33.

	Batch   1 pq = [       0,     190] index = [             0,18145]
 MINTS: Wrapper to libmints.
   by Justin Turney

   Calculation information:
      Number of atoms:                   2
      Number of AO shells:               9
      Number of SO shells:               9
      Number of primitives:             27
      Number of atomic orbitals:        20
      Number of basis functions:        19

      Number of irreps:                  1
      Integral cutoff                 1.00e-12
      Number of functions per irrep: [  19 ]

 OEINTS: Overlap, kinetic, potential, dipole, and quadrupole integrals
         stored in file 35.

      Computing two-electron integrals...done
      Computed 4125 non-zero two-electron integrals.
        Stored in file 33.

	Batch   1 pq = [       0,     190] index = [             0,18145]
  Irrep: 1 Size: 19 x 19

                 1                   2                   3                   4                   5

    1     1.00000000000000     0.00000000000042    -0.00000000000000    -0.00000000000000    -0.00000007374872
    2     0.00000000000042     0.99999999993204     0.00000000000000     0.00000000000000     0.00001151231210
    3    -0.00000000000000     0.00000000000000     0.99999999999986    -0.00000000000000    -0.00000000000000
    4    -0.00000000000000     0.00000000000000    -0.00000000000000     0.99999999999986    -0.00000000000000
    5     0.00000007374872    -0.00001151231190     0.00000000000000     0.00000000000000     0.99999999993240
    6    -0.00000000409071    -0.00000170524067     0.00000000000000    -0.00000000000000    -0.00000000001309
    7     0.00000000063953    -0.00000021271655     0.00000000000000     0.00000000000000     0.00000095413387
    8    -0.00000000000000     0.00000000000000    -0.00000041909298     0.00000010517062    -0.00000000000000
    9    -0.00000000000000     0.00000000000000    -0.00000010517062    -0.00000041909298     0.00000000000000
   10     0.00000000472876    -0.00000040748580     0.00000000000000    -0.00000000000000     0.00000000588772
   11     0.00000000000000    -0.00000000000000    -0.00000003080647     0.00000026027622    -0.00000000000000
   12    -0.00000000000000     0.00000000000000    -0.00000026027622    -0.00000003080647    -0.00000000000000
   13    -0.00000000861688     0.00000052246374    -0.00000000000000     0.00000000000000     0.00000001207348
   14     0.00000000388645    -0.00000002407387     0.00000000000000    -0.00000000000000    -0.00000106723505
   15     0.00000000000000    -0.00000000000000    -0.00000008031578     0.00000012755068     0.00000000000000
   16    -0.00000000000000    -0.00000000000000    -0.00000012755068    -0.00000008031578    -0.00000000000000
   17     0.00000000000000    -0.00000000000000    -0.00000000000000     0.00000000000000    -0.00000000000000
   18     0.00000000000000    -0.00000000000000    -0.00000000000000    -0.00000000000000    -0.00000000000000
   19    -0.00000000264104    -0.00000002582357    -0.00000000000000    -0.00000000000000     0.00000078623127

                 6                   7                   8                   9                  10

    1     0.00000000409077    -0.00000000063945     0.00000000000000     0.00000000000000    -0.00000000472874
    2     0.00000170523800     0.00000021270855    -0.00000000000000    -0.00000000000000     0.00000040749443
    3    -0.00000000000000    -0.00000000000000     0.00000041909298     0.00000010517062    -0.00000000000000
    4     0.00000000000000    -0.00000000000000    -0.00000010517062     0.00000041909298     0.00000000000000
    5    -0.00000000001309    -0.00000095413632     0.00000000000000    -0.00000000000000    -0.00000000589241
    6     0.99999999996454     0.00000175063055     0.00000000000000     0.00000000000000     0.00000509997117
    7    -0.00000175063091     0.99999999999799     0.00000000000000    -0.00000000000000    -0.00000000000451
    8    -0.00000000000000     0.00000000000000     0.99999999999991     0.00000000000000    -0.00000000000000
    9    -0.00000000000000    -0.00000000000000     0.00000000000000     0.99999999999991    -0.00000000000000
   10    -0.00000509997186    -0.00000000000451    -0.00000000000000    -0.00000000000000     0.99999999998691
   11    -0.00000000000000    -0.00000000000000    -0.00000000000002     0.00000000000005    -0.00000000000000
   12    -0.00000000000000    -0.00000000000000    -0.00000000000005    -0.00000000000002    -0.00000000000000
   13     0.00000035695597     0.00000000000036    -0.00000000000000     0.00000000000000     0.00000000000102
   14    -0.00000512397139    -0.00000000000398    -0.00000000000000    -0.00000000000000    -0.00000000001307
   15     0.00000000000000    -0.00000000000000    -0.00000000000002     0.00000000000002     0.00000000000000
   16     0.00000000000000     0.00000000000000    -0.00000000000002    -0.00000000000002     0.00000000000000
   17     0.00000000000000     0.00000000000000    -0.00000000000000     0.00000000000000     0.00000000000000
   18    -0.00000000000000    -0.00000000000000    -0.00000000000000    -0.00000000000000    -0.00000000000000
   19     0.00000354416852     0.00000000000272     0.00000000000000     0.00000000000000     0.00000000000903

                11                  12                  13                  14                  15

    1    -0.00000000000000     0.00000000000000     0.00000000861688    -0.00000000388651    -0.00000000000000
    2     0.00000000000000    -0.00000000000000    -0.00000052246449     0.00000002409489     0.00000000000000
    3     0.00000003080647     0.00000026027622     0.00000000000000    -0.00000000000000     0.00000008031578
    4    -0.00000026027622     0.00000003080647    -0.00000000000000     0.00000000000000    -0.00000012755068
    5     0.00000000000000     0.00000000000000    -0.00000001206747     0.00000106723477    -0.00000000000000
    6     0.00000000000000     0.00000000000000    -0.00000035695508     0.00000512397134    -0.00000000000000
    7    -0.00000000000000    -0.00000000000000     0.00000000000036    -0.00000000000398    -0.00000000000000
    8    -0.00000000000002    -0.00000000000005    -0.00000000000000    -0.00000000000000    -0.00000000000002
    9     0.00000000000005    -0.00000000000002     0.00000000000000    -0.00000000000000     0.00000000000002
   10    -0.00000000000000    -0.00000000000000     0.00000000000102    -0.00000000001307     0.00000000000000
   11     0.99999999999997    -0.00000000000000     0.00000000000000    -0.00000000000000    -0.00000000000002
   12    -0.00000000000000     0.99999999999997     0.00000000000000    -0.00000000000000    -0.00000000000001
   13     0.00000000000000     0.00000000000000     0.99999999999980     0.00000000000093    -0.00000000000000
   14    -0.00000000000000    -0.00000000000000     0.00000000000093     0.99999999998630     0.00000000000000
   15    -0.00000000000002    -0.00000000000001    -0.00000000000000     0.00000000000000     0.99999999999999
   16     0.00000000000001    -0.00000000000002    -0.00000000000000     0.00000000000000    -0.00000000000000
   17    -0.00000000000000    -0.00000000000000     0.00000000000000     0.00000000000000    -0.00000000000000
   18     0.00000000000000    -0.00000000000000     0.00000000000000    -0.00000000000000     0.00000000000000
   19     0.00000000000000     0.00000000000000    -0.00000000000063     0.00000000000950    -0.00000000000000

                16                  17                  18                  19

    1     0.00000000000000    -0.00000000000000    -0.00000000000000     0.00000000264108
    2     0.00000000000000     0.00000000000000     0.00000000000000     0.00000002580848
    3     0.00000012755068     0.00000000000000     0.00000000000000     0.00000000000000
    4     0.00000008031578    -0.00000000000000     0.00000000000000     0.00000000000000
    5     0.00000000000000     0.00000000000000     0.00000000000000    -0.00000078623157
    6    -0.00000000000000    -0.00000000000000     0.00000000000000    -0.00000354416856
    7     0.00000000000000     0.00000000000000    -0.00000000000000     0.00000000000272
    8    -0.00000000000002    -0.00000000000000    -0.00000000000000     0.00000000000000
    9    -0.00000000000002     0.00000000000000    -0.00000000000000     0.00000000000000
   10     0.00000000000000     0.00000000000000    -0.00000000000000     0.00000000000903
   11     0.00000000000001    -0.00000000000000     0.00000000000000     0.00000000000000
   12    -0.00000000000002    -0.00000000000000    -0.00000000000000     0.00000000000000
   13    -0.00000000000000     0.00000000000000     0.00000000000000    -0.00000000000063
   14     0.00000000000000     0.00000000000000    -0.00000000000000     0.00000000000950
   15    -0.00000000000000    -0.00000000000000     0.00000000000000    -0.00000000000000
   16     0.99999999999999     0.00000000000000    -0.00000000000000    -0.00000000000000
   17     0.00000000000000     1.00000000000000    -0.00000000000000    -0.00000000000000
   18    -0.00000000000000    -0.00000000000000     1.00000000000000     0.00000000000000
   19    -0.00000000000000    -0.00000000000000     0.00000000000000     0.99999999999341



	Presorting SO-basis two-electron integrals.
	Sorting File: SO Ints (nn|nn) nbuckets = 1
	Transforming the one-electron integrals and constructing Fock matrices
	Starting first half-transformation.
	Sorting half-transformed integrals.
	First half integral transformation complete.
	Starting second half-transformation.
	Two-electron integral transformation complete.

  Integral transformation done. 0.01975200 s
  Reading the two-electron integrals from disk
  Size of two-electron integrals:   0.002913 GB

                -----------------------------------------------
                  String-based Full Configuration Interaction
                          by Francesco A. Evangelista
                -----------------------------------------------

  Number of electrons: 10
  Charge: 0
  Multiplicity: 1
  M_s: 0

  ==> String Lists <==

  Number of alpha electrons     = 1
  Number of beta electrons      = 1
  Number of alpha strings       = 2
  Number of beta strings        = 2
  Timing for strings        =      0.000 s
  Timing for NN strings     =      0.000 s
  Timing for VO strings     =      0.000 s
  Timing for OO strings     =      0.000 s
  Timing for Knowles-Handy  =      0.000 s
  Timing for VVOO strings   =      0.000 s
  Timing for VOVO strings   =      0.000 s
  Timing for 1-hole strings =      0.000 s
  Timing for 2-hole strings =      0.000 s
  Timing for 3-hole strings =      0.000 s
  Total timing              =      0.000 s

  ==> FCI Solver <==

    Number of determinants                           4
    Symmetry                                         0
    Multiplicity                                     1
    Number of roots                                  1
    Target root                                      0

  Allocating memory for the Hamiltonian algorithm. Size: 2 x 2 x 2.   Memory: 0.000000 GB

  ==> FCI Initial Guess <==

  ---------------------------------------------
    Root            Energy     <S^2>   Spin
  ---------------------------------------------
      0      -99.939316381548  0.000  singlet
      1      -99.781109388848  2.000  triplet
      2      -99.379734830930  0.000  singlet
      3      -99.029888980729  0.000  singlet
  ---------------------------------------------
  Timing for initial guess  =      0.000 s

  ==> Diagonalizing Hamiltonian <==

  ----------------------------------------
    Iter.      Avg. Energy       Delta_E
  ----------------------------------------
      1      -99.939316381548  -9.994e+01
      2      -99.939316381548  +0.000e+00
  ----------------------------------------
  The Davidson-Liu algorithm converged in 3 iterations.

  ==> Root No. 0 <==

    20      0.94913610
    02     -0.29115906

    Total Energy:       -99.939316381547741

  ==> RDMs for Root No. 0 <== MINTS: Wrapper to libmints.
   by Justin Turney

   Calculation information:
      Number of atoms:                   2
      Number of AO shells:               9
      Number of SO shells:               9
      Number of primitives:             27
      Number of atomic orbitals:        20
      Number of basis functions:        19

      Number of irreps:                  1
      Integral cutoff                 1.00e-12
      Number of functions per irrep: [  19 ]

 OEINTS: Overlap, kinetic, potential, dipole, and quadrupole integrals
         stored in file 35.

      Computing two-electron integrals...done
      Computed 4125 non-zero two-electron integrals.
        Stored in file 33.

	Batch   1 pq = [       0,     190] index = [             0,18145]
 MINTS: Wrapper to libmints.
   by Justin Turney

   Calculation information:
      Number of atoms:                   2
      Number of AO shells:               9
      Number of SO shells:               9
      Number of primitives:             27
      Number of atomic orbitals:        20
      Number of basis functions:        19

      Number of irreps:                  1
      Integral cutoff                 1.00e-12
      Number of functions per irrep: [  19 ]

 OEINTS: Overlap, kinetic, potential, dipole, and quadrupole integrals
         stored in file 35.

      Computing two-electron integrals...done
      Computed 4125 non-zero two-electron integrals.
        Stored in file 33.

	Batch   1 pq = [       0,     190] index = [             0,18145]

 iter    g_norm      E_CASSCF
 0  0.013224107756   -99.910210805102
 1  0.006390887201   -99.936703261408
 2  0.002302629710   -99.938897393916
 3  0.000937746410   -99.939234262120
 4  0.000414476784   -99.939298606712
 5  0.000191444614   -99.939312241002
 6  0.000092676092   -99.939315346572
 7  0.000046822938   -99.939316103934
 8  0.000024647419   -99.939316302032
 9  0.000013428319   -99.939316357502
 10  0.000007513138   -99.939316373999
 11  0.000004282812   -99.939316379147
 12  0.000002471601   -99.939316380811
 13  0.000001437374   -99.939316381362
 14  0.000000839809   -99.939316381548

  Your calculation took 3.93143700 seconds

*** PSI4 exiting successfully. Buy a developer a beer!
