
    -----------------------------------------------------------------------
          Psi4: An Open-Source Ab Initio Electronic Structure Package
                               Psi4 1.2a1.dev422 

                         Git: Rev {HEAD} 28e4f15 dirty


    R. M. Parrish, L. A. Burns, D. G. A. Smith, A. C. Simmonett,
    A. E. DePrince III, E. G. Hohenstein, U. Bozkaya, A. Yu. Sokolov,
    R. Di Remigio, R. M. Richard, J. F. Gonthier, A. M. James,
    H. R. McAlexander, A. Kumar, M. Saitow, X. Wang, B. P. Pritchard,
    P. Verma, H. F. Schaefer III, K. Patkowski, R. A. King, E. F. Valeev,
    F. A. Evangelista, J. M. Turney, T. D. Crawford, and C. D. Sherrill,
    J. Chem. Theory Comput. in press (2017).
    (doi: 10.1021/acs.jctc.7b00174)

    -----------------------------------------------------------------------


    Psi4 started on: Wednesday, 16 August 2017 02:05PM

    Process ID:  17857
    PSIDATADIR: /opt/software/psi4/psi4-github-bin-g++-4.9.0-opt-c++11/share/psi4
    Memory:     500.0 MiB
    Threads:    1
    
  ==> Input File <==

--------------------------------------------------------------------------
#! Generated using commit GITCOMMIT

import forte

refrhf       = -2.17907771115918 # cc-pVDZ
refdsrg      = -2.253563514096707# cc-pVDZ

memory 500 mb

molecule H4{
  0 1
  H  0.0 0.0 0.0
  H  0.0 0.0 0.7
  H  0.0 1.4 0.0
  H  0.0 1.4 0.7
}

set globals{
   basis                   cc-pvdz
   reference               rhf
   scf_type                pk
   d_convergence           12
   e_convergence           15
   maxiter                 300
}

set forte{
   job_type                mrdsrg
   int_type                cholesky
   CHOLESKY_TOLERANCE      1e-4
   corr_level              ldsrg2
   restricted_docc         [0,0,0,0,0,0,0,0]
   active                  [1,0,0,1,0,1,1,0]
   root_sym                0
   nroot                   1
   dsrg_s                  0.5
   e_convergence           8
#  semi_canonical          false
   dsrg_hbar_seq           true
}

energy('scf')
compare_values(refrhf,get_variable("CURRENT ENERGY"),10,"SCF energy")

energy('forte')
compare_values(refdsrg,get_variable("CURRENT ENERGY"),10,"MRDSRG energy")
--------------------------------------------------------------------------
/home/zty/Source/forte/forte.so loaded.

  Memory set to 476.837 MiB by Python driver.

*** tstart() called on node21
*** at Wed Aug 16 14:06:00 2017

   => Loading Basis Set <=

    Name: CC-PVDZ
    Role: ORBITAL
    Keyword: BASIS
    atoms 1-4 entry H          line    22 file /opt/software/psi4/psi4-github-bin-g++-4.9.0-opt-c++11/share/psi4/basis/cc-pvdz.gbs 


         ---------------------------------------------------------
                                   SCF
            by Justin Turney, Rob Parrish, Andy Simmonett
                             and Daniel Smith
                              RHF Reference
                        1 Threads,    476 MiB Core
         ---------------------------------------------------------

  ==> Geometry <==

    Molecular point group: d2h
    Full point group: D2h

    Geometry (in Angstrom), charge = 0, multiplicity = 1:

       Center              X                  Y                   Z               Mass       
    ------------   -----------------  -----------------  -----------------  -----------------
           H          0.000000000000    -0.700000000000    -0.350000000000     1.007825032070
           H          0.000000000000    -0.700000000000     0.350000000000     1.007825032070
           H         -0.000000000000     0.700000000000    -0.350000000000     1.007825032070
           H         -0.000000000000     0.700000000000     0.350000000000     1.007825032070

  Running in d2h symmetry.

  Rotational constants: A =     34.13621  B =      8.53405  C =      6.82724 [cm^-1]
  Rotational constants: A = 1023377.76068  B = 255844.44017  C = 204675.55214 [MHz]
  Nuclear repulsion =    2.944060157129043

  Charge       = 0
  Multiplicity = 1
  Electrons    = 4
  Nalpha       = 2
  Nbeta        = 2

  ==> Algorithm <==

  SCF Algorithm Type is PK.
  DIIS enabled.
  MOM disabled.
  Fractional occupation disabled.
  Guess Type is SAD.
  Energy threshold   = 1.00e-15
  Density threshold  = 1.00e-12
  Integral threshold = 0.00e+00

  ==> Primary Basis <==

  Basis Set: CC-PVDZ
    Blend: CC-PVDZ
    Number of shells: 12
    Number of basis function: 20
    Number of Cartesian functions: 20
    Spherical Harmonics?: true
    Max angular momentum: 1

  ==> Pre-Iterations <==

   -------------------------------------------------------
    Irrep   Nso     Nmo     Nalpha   Nbeta   Ndocc  Nsocc
   -------------------------------------------------------
     Ag         4       4       0       0       0       0
     B1g        1       1       0       0       0       0
     B2g        1       1       0       0       0       0
     B3g        4       4       0       0       0       0
     Au         1       1       0       0       0       0
     B1u        4       4       0       0       0       0
     B2u        4       4       0       0       0       0
     B3u        1       1       0       0       0       0
   -------------------------------------------------------
    Total      20      20       2       2       2       0
   -------------------------------------------------------

  ==> Integral Setup <==

  Using in-core PK algorithm.
   Calculation information:
      Number of atoms:                   4
      Number of AO shells:              12
      Number of primitives:             20
      Number of atomic orbitals:        20
      Number of basis functions:        20

      Integral cutoff                 1.00e-12
      Number of threads:                 1

  Performing in-core PK
  Using 44310 doubles for integral storage.
  We computed 3081 shell quartets total.
  Whereas there are 3081 unique shell quartets.
  ==> DiskJK: Disk-Based J/K Matrices <==

    J tasked:                  Yes
    K tasked:                  Yes
    wK tasked:                  No
    Memory (MB):               357
    Schwarz Cutoff:          1E-12

    OpenMP threads:              1
  Minimum eigenvalue in the overlap matrix is 2.4975801198E-02.
  Using Symmetric Orthogonalization.

  SCF Guess: Superposition of Atomic Densities via on-the-fly atomic UHF.

  ==> Iterations <==

                        Total Energy        Delta E     RMS |[F,P]|

   @RHF iter   0:    -1.89053115060868   -1.89053e+00   4.91625e-02 
   @RHF iter   1:    -2.17498638758610   -2.84455e-01   8.12248e-03 
   @RHF iter   2:    -2.17894275946835   -3.95637e-03   1.50517e-03 DIIS
   @RHF iter   3:    -2.17907752253551   -1.34763e-04   6.71864e-05 DIIS
   @RHF iter   4:    -2.17907771098363   -1.88448e-07   2.29385e-06 DIIS
   @RHF iter   5:    -2.17907771115850   -1.74870e-10   8.98372e-08 DIIS
   @RHF iter   6:    -2.17907771115915   -6.55476e-13   1.84767e-08 DIIS
   @RHF iter   7:    -2.17907771115918   -2.17604e-14   1.36211e-09 DIIS
   @RHF iter   8:    -2.17907771115918    0.00000e+00   1.91133e-11 DIIS
   @RHF iter   9:    -2.17907771115917    1.77636e-15   3.89577e-13 DIIS
   @RHF iter  10:    -2.17907771115917    1.33227e-15   4.91284e-14 DIIS
   @RHF iter  11:    -2.17907771115918   -3.10862e-15   7.66977e-15 DIIS
   @RHF iter  12:    -2.17907771115918   -8.88178e-16   1.34094e-15 DIIS

  ==> Post-Iterations <==

    Orbital Energies (a.u.)
    -----------------------

    Doubly Occupied:                                                      

       1Ag    -0.731109     1B2u   -0.473172  

    Virtual:                                                              

       1B1u    0.149152     1B3g    0.312110     2Ag     0.467948  
       2B2u    0.487205     2B1u    0.888424     2B3g    1.029316  
       3Ag     1.093503     1B3u    1.157482     1B1g    1.442832  
       3B1u    1.883852     4Ag     1.902987     1B2g    1.930967  
       3B2u    1.999378     4B2u    2.160832     1Au     2.213770  
       3B3g    2.724004     4B1u    3.829643     4B3g    4.017613  

    Final Occupation by Irrep:
             Ag   B1g   B2g   B3g    Au   B1u   B2u   B3u 
    DOCC [     1,    0,    0,    0,    0,    0,    1,    0 ]

  Energy converged.

  @RHF Final Energy:    -2.17907771115918

   => Energetics <=

    Nuclear Repulsion Energy =              2.9440601571290435
    One-Electron Energy =                  -7.8377143748765192
    Two-Electron Energy =                   2.7145765065882985
    Total Energy =                         -2.1790777111591773



Properties will be evaluated at   0.000000,   0.000000,   0.000000 Bohr

Properties computed using the SCF density matrix

  Nuclear Dipole Moment: (a.u.)
     X:     0.0000      Y:     0.0000      Z:     0.0000

  Electronic Dipole Moment: (a.u.)
     X:     0.0000      Y:     0.0000      Z:     0.0000

  Dipole Moment: (a.u.)
     X:     0.0000      Y:     0.0000      Z:     0.0000     Total:     0.0000

  Dipole Moment: (Debye)
     X:     0.0000      Y:     0.0000      Z:     0.0000     Total:     0.0000


*** tstop() called on node21 at Wed Aug 16 14:06:00 2017
Module time:
	user time   =       0.49 seconds =       0.01 minutes
	system time =       0.01 seconds =       0.00 minutes
	total time  =          0 seconds =       0.00 minutes
Total time:
	user time   =       0.49 seconds =       0.01 minutes
	system time =       0.01 seconds =       0.00 minutes
	total time  =          0 seconds =       0.00 minutes
	SCF energy........................................................PASSED

*** tstart() called on node21
*** at Wed Aug 16 14:06:00 2017

   => Loading Basis Set <=

    Name: CC-PVDZ
    Role: ORBITAL
    Keyword: BASIS
    atoms 1-4 entry H          line    22 file /opt/software/psi4/psi4-github-bin-g++-4.9.0-opt-c++11/share/psi4/basis/cc-pvdz.gbs 


         ---------------------------------------------------------
                                   SCF
            by Justin Turney, Rob Parrish, Andy Simmonett
                             and Daniel Smith
                              RHF Reference
                        1 Threads,    476 MiB Core
         ---------------------------------------------------------

  ==> Geometry <==

    Molecular point group: d2h
    Full point group: D2h

    Geometry (in Angstrom), charge = 0, multiplicity = 1:

       Center              X                  Y                   Z               Mass       
    ------------   -----------------  -----------------  -----------------  -----------------
           H          0.000000000000    -0.700000000000    -0.350000000000     1.007825032070
           H          0.000000000000    -0.700000000000     0.350000000000     1.007825032070
           H         -0.000000000000     0.700000000000    -0.350000000000     1.007825032070
           H         -0.000000000000     0.700000000000     0.350000000000     1.007825032070

  Running in d2h symmetry.

  Rotational constants: A =     34.13621  B =      8.53405  C =      6.82724 [cm^-1]
  Rotational constants: A = 1023377.76068  B = 255844.44017  C = 204675.55214 [MHz]
  Nuclear repulsion =    2.944060157129043

  Charge       = 0
  Multiplicity = 1
  Electrons    = 4
  Nalpha       = 2
  Nbeta        = 2

  ==> Algorithm <==

  SCF Algorithm Type is PK.
  DIIS enabled.
  MOM disabled.
  Fractional occupation disabled.
  Guess Type is SAD.
  Energy threshold   = 1.00e-15
  Density threshold  = 1.00e-12
  Integral threshold = 0.00e+00

  ==> Primary Basis <==

  Basis Set: CC-PVDZ
    Blend: CC-PVDZ
    Number of shells: 12
    Number of basis function: 20
    Number of Cartesian functions: 20
    Spherical Harmonics?: true
    Max angular momentum: 1

  ==> Pre-Iterations <==

   -------------------------------------------------------
    Irrep   Nso     Nmo     Nalpha   Nbeta   Ndocc  Nsocc
   -------------------------------------------------------
     Ag         4       4       0       0       0       0
     B1g        1       1       0       0       0       0
     B2g        1       1       0       0       0       0
     B3g        4       4       0       0       0       0
     Au         1       1       0       0       0       0
     B1u        4       4       0       0       0       0
     B2u        4       4       0       0       0       0
     B3u        1       1       0       0       0       0
   -------------------------------------------------------
    Total      20      20       2       2       2       0
   -------------------------------------------------------

  ==> Integral Setup <==

  Using in-core PK algorithm.
   Calculation information:
      Number of atoms:                   4
      Number of AO shells:              12
      Number of primitives:             20
      Number of atomic orbitals:        20
      Number of basis functions:        20

      Integral cutoff                 1.00e-12
      Number of threads:                 1

  Performing in-core PK
  Using 44310 doubles for integral storage.
  We computed 3081 shell quartets total.
  Whereas there are 3081 unique shell quartets.
  ==> DiskJK: Disk-Based J/K Matrices <==

    J tasked:                  Yes
    K tasked:                  Yes
    wK tasked:                  No
    Memory (MB):               357
    Schwarz Cutoff:          1E-12

    OpenMP threads:              1
  Minimum eigenvalue in the overlap matrix is 2.4975801198E-02.
  Using Symmetric Orthogonalization.

  SCF Guess: Superposition of Atomic Densities via on-the-fly atomic UHF.

  ==> Iterations <==

                        Total Energy        Delta E     RMS |[F,P]|

   @RHF iter   0:    -1.89053115060868   -1.89053e+00   4.91625e-02 
   @RHF iter   1:    -2.17498638758610   -2.84455e-01   8.12248e-03 
   @RHF iter   2:    -2.17894275946835   -3.95637e-03   1.50517e-03 DIIS
   @RHF iter   3:    -2.17907752253551   -1.34763e-04   6.71864e-05 DIIS
   @RHF iter   4:    -2.17907771098363   -1.88448e-07   2.29385e-06 DIIS
   @RHF iter   5:    -2.17907771115850   -1.74870e-10   8.98372e-08 DIIS
   @RHF iter   6:    -2.17907771115915   -6.55476e-13   1.84767e-08 DIIS
   @RHF iter   7:    -2.17907771115918   -2.17604e-14   1.36211e-09 DIIS
   @RHF iter   8:    -2.17907771115918    0.00000e+00   1.91133e-11 DIIS
   @RHF iter   9:    -2.17907771115917    1.77636e-15   3.89577e-13 DIIS
   @RHF iter  10:    -2.17907771115917    1.33227e-15   4.91284e-14 DIIS
   @RHF iter  11:    -2.17907771115918   -3.10862e-15   7.66977e-15 DIIS
   @RHF iter  12:    -2.17907771115918   -8.88178e-16   1.34094e-15 DIIS

  ==> Post-Iterations <==

    Orbital Energies (a.u.)
    -----------------------

    Doubly Occupied:                                                      

       1Ag    -0.731109     1B2u   -0.473172  

    Virtual:                                                              

       1B1u    0.149152     1B3g    0.312110     2Ag     0.467948  
       2B2u    0.487205     2B1u    0.888424     2B3g    1.029316  
       3Ag     1.093503     1B3u    1.157482     1B1g    1.442832  
       3B1u    1.883852     4Ag     1.902987     1B2g    1.930967  
       3B2u    1.999378     4B2u    2.160832     1Au     2.213770  
       3B3g    2.724004     4B1u    3.829643     4B3g    4.017613  

    Final Occupation by Irrep:
             Ag   B1g   B2g   B3g    Au   B1u   B2u   B3u 
    DOCC [     1,    0,    0,    0,    0,    0,    1,    0 ]

  Energy converged.

  @RHF Final Energy:    -2.17907771115918

   => Energetics <=

    Nuclear Repulsion Energy =              2.9440601571290435
    One-Electron Energy =                  -7.8377143748765192
    Two-Electron Energy =                   2.7145765065882985
    Total Energy =                         -2.1790777111591773



Properties will be evaluated at   0.000000,   0.000000,   0.000000 Bohr

Properties computed using the SCF density matrix

  Nuclear Dipole Moment: (a.u.)
     X:     0.0000      Y:     0.0000      Z:     0.0000

  Electronic Dipole Moment: (a.u.)
     X:     0.0000      Y:     0.0000      Z:     0.0000

  Dipole Moment: (a.u.)
     X:     0.0000      Y:     0.0000      Z:     0.0000     Total:     0.0000

  Dipole Moment: (Debye)
     X:     0.0000      Y:     0.0000      Z:     0.0000     Total:     0.0000


*** tstop() called on node21 at Wed Aug 16 14:06:01 2017
Module time:
	user time   =       0.44 seconds =       0.01 minutes
	system time =       0.01 seconds =       0.00 minutes
	total time  =          1 seconds =       0.02 minutes
Total time:
	user time   =       0.94 seconds =       0.02 minutes
	system time =       0.02 seconds =       0.00 minutes
	total time  =          1 seconds =       0.02 minutes
   => Loading Basis Set <=

    Name: STO-3G
    Role: ORBITAL
    Keyword: MINAO_BASIS
    atoms 1-4 entry H          line    19 file /opt/software/psi4/psi4-github-bin-g++-4.9.0-opt-c++11/share/psi4/basis/sto-3g.gbs 


Reading options from the FORTE block
Calling plugin forte.so.



  Forte
  ----------------------------------------------------------------------------
  A suite of quantum chemistry methods for strongly correlated electrons

    git branch: DSRG_DF - git commit: 28c814d

  Developed by:
    Francesco A. Evangelista, Chenyang Li, Kevin P. Hannon,
    Jeffrey B. Schriber, Tianyuan Zhang, Chenxi Cai
  ----------------------------------------------------------------------------


  ==> MO Space Information <==

  Read options for space RESTRICTED_DOCC
  Read options for space ACTIVE
  -------------------------------------------------------------------------
                       Ag   B1g   B2g   B3g    Au   B1u   B2u   B3u   Sum
  -------------------------------------------------------------------------
    FROZEN_DOCC         0     0     0     0     0     0     0     0     0
    RESTRICTED_DOCC     0     0     0     0     0     0     0     0     0
    ACTIVE              1     0     0     1     0     1     1     0     4
    RESTRICTED_UOCC     3     1     1     3     1     3     3     1    16
    FROZEN_UOCC         0     0     0     0     0     0     0     0     0
    Total               4     1     1     4     1     4     4     1    20
  -------------------------------------------------------------------------

  ==> Integral Transformation <==

  Number of molecular orbitals:               20
  Number of correlated molecular orbitals:    20
  Number of frozen occupied orbitals:          0
  Number of frozen unoccupied orbitals:        0

    Molecular point group: d2h
    Full point group: D2h

    Geometry (in Angstrom), charge = 0, multiplicity = 1:

       Center              X                  Y                   Z               Mass       
    ------------   -----------------  -----------------  -----------------  -----------------
           H          0.000000000000    -0.700000000000    -0.350000000000     1.007825032070
           H          0.000000000000    -0.700000000000     0.350000000000     1.007825032070
           H         -0.000000000000     0.700000000000    -0.350000000000     1.007825032070
           H         -0.000000000000     0.700000000000     0.350000000000     1.007825032070

  -AO BASIS SET INFORMATION:
    Name                   = CC-PVDZ
    Blend                  = CC-PVDZ
    Total number of shells = 12
    Number of primitives   = 20
    Number of AO           = 20
    Number of SO           = 20
    Maximum AM             = 1
    Spherical Harmonics    = TRUE

  -Contraction Scheme:
    Atom   Type   All Primitives // Shells:
   ------ ------ --------------------------
       1     H     4s 1p // 2s 1p 
       2     H     4s 1p // 2s 1p 
       3     H     4s 1p // 2s 1p 
       4     H     4s 1p // 2s 1p 

  ==> AO Basis Functions <==

    [ CC-PVDZ ]
    spherical
    ****
    H   1
    S   3 1.00
                        13.01000000           0.01968500
                         1.96200000           0.13797700
                         0.44460000           0.47814800
    S   1 1.00
                         0.12200000           1.00000000
    P   1 1.00
                         0.72700000           1.00000000
    ****


  Cholesky integrals time
 Computing the Cholesky Vectors 

    Computing CD Integrals               ......Done. Timing        0.029668 s
 Need 0.000232 GB to store cd integrals in core

 Number of cholesky vectors 78 to satisfy       0.000100000000 tolerance

  CholeskyIntegrals take 0.07458400

                -----------------------------------------------
                  String-based Full Configuration Interaction
                          by Francesco A. Evangelista
                -----------------------------------------------

  Number of electrons: 4
  Charge: 0
  Multiplicity: 1
  Davidson subspace max dim: 8
  Davidson subspace min dim: 2
  M_s: 0
  A

  ==> String Lists <==

  Number of alpha electrons     = 2
  Number of beta electrons      = 2
  Number of alpha strings       = 6
  Number of beta strings        = 6
  Timing for strings        =      0.000 s
  Timing for NN strings     =      0.000 s
  Timing for VO strings     =      0.000 s
  Timing for OO strings     =      0.000 s
  Timing for VVOO strings   =      0.000 s
  Timing for VOVO strings   =      0.000 s
  Timing for 1-hole strings =      0.000 s
  Timing for 2-hole strings =      0.000 s
  Timing for 3-hole strings =      0.000 s
  Total timing              =      0.000 s

  ==> FCI Solver <==

    Number of determinants                          12
    Symmetry                                         0
    Multiplicity                                     1
    Number of roots                                  1
    Target root                                      0
    Trial vectors per root                          10

  B
  Allocating memory for the Hamiltonian algorithm. Size: 2 x 2 x 2.   Memory: 0.000000 GB

  ==> FCI Initial Guess <==

  ---------------------------------------------
    Root            Energy     <S^2>   Spin
  ---------------------------------------------
      0       -2.184584292953  0.000  singlet
      1       -1.494748201537  0.000  singlet
      2       -1.249754873666  6.000  quintet
      3       -1.142244098723  2.000  triplet
      4       -1.140458308772  0.000  singlet
      5       -1.082665866245  2.000  triplet
      6       -1.000141505443  0.000  singlet
      7       -0.901341096796  0.000  singlet
      8       -0.843482216762  2.000  triplet
      9       -0.703044630582  0.000  singlet
     10       -0.334309348025  0.000  singlet
     11        0.495149855620  0.000  singlet
  ---------------------------------------------
  Timing for initial guess  =      0.002 s

  Projecting out root 2
  Projecting out root 3
  Projecting out root 5
  Projecting out root 8
  ==> Diagonalizing Hamiltonian <==

  ----------------------------------------
    Iter.      Avg. Energy       Delta_E
  ----------------------------------------
      1       -2.184584292953  -2.185e+00
      2       -2.184584292953  -8.882e-16
  ----------------------------------------
  The Davidson-Liu algorithm converged in 3 iterations.

  ==> Root No. 0 <==

    2 0 0 2     -0.99771732

    Total Energy:        -2.184584292953460

  ==> Computing RDMs for Root No. 0 <==

    Timing for 1-RDM: 0.000 s
    Timing for 2-RDM: 0.000 s
    Timing for 3-RDM: 0.000 s

  ==> NATURAL ORBITALS <==

        1Ag     1.995760      1B2u    1.995112      1B1u    0.005663  
        1B3g    0.003465  


       -----------------------------------------------------------------
                            Semi-Canonical Orbitals
         Chenyang Li, Jeffrey B. Schriber and Francesco A. Evangelista
       -----------------------------------------------------------------

  Took 0.001682 s to build Fock matrix

  ==> Checking Fock Matrix Diagonal Blocks <==

    Off-Diag. Elements       Max           2-Norm
    ------------------------------------------------
    Fa actv              0.0000000000   0.0000000000
    Fb actv              0.0000000000   0.0000000000
    ------------------------------------------------
    Fa core              0.0000000000   0.0000000000
    Fb core              0.0000000000   0.0000000000
    ------------------------------------------------
    Fa virt              0.0005836406   0.0014881827
    Fb virt              0.0005836406   0.0014881827
    ------------------------------------------------

  ==> Integral Transformation to Semicanonical Basis <==
    Molecular point group: d2h
    Full point group: D2h

    Geometry (in Angstrom), charge = 0, multiplicity = 1:

       Center              X                  Y                   Z               Mass       
    ------------   -----------------  -----------------  -----------------  -----------------
           H          0.000000000000    -0.700000000000    -0.350000000000     1.007825032070
           H          0.000000000000    -0.700000000000     0.350000000000     1.007825032070
           H         -0.000000000000     0.700000000000    -0.350000000000     1.007825032070
           H         -0.000000000000     0.700000000000     0.350000000000     1.007825032070

  -AO BASIS SET INFORMATION:
    Name                   = CC-PVDZ
    Blend                  = CC-PVDZ
    Total number of shells = 12
    Number of primitives   = 20
    Number of AO           = 20
    Number of SO           = 20
    Maximum AM             = 1
    Spherical Harmonics    = TRUE

  -Contraction Scheme:
    Atom   Type   All Primitives // Shells:
   ------ ------ --------------------------
       1     H     4s 1p // 2s 1p 
       2     H     4s 1p // 2s 1p 
       3     H     4s 1p // 2s 1p 
       4     H     4s 1p // 2s 1p 

  ==> AO Basis Functions <==

    [ CC-PVDZ ]
    spherical
    ****
    H   1
    S   3 1.00
                        13.01000000           0.01968500
                         1.96200000           0.13797700
                         0.44460000           0.47814800
    S   1 1.00
                         0.12200000           1.00000000
    P   1 1.00
                         0.72700000           1.00000000
    ****


 Integrals are about to be computed.
 Computing the Cholesky Vectors 

    Computing CD Integrals               ......Done. Timing        0.018625 s
 Need 0.000232 GB to store cd integrals in core

 Number of cholesky vectors 78 to satisfy       0.000100000000 tolerance

 Integrals are about to be updated.
  Frozen Orbitals takes     0.000 s.

  ==> Reference Transformation to Semicanonical Basis <==

    Transformed 1 cumulants.
    Transformed 2 cumulants and RDMs.
    Transformed 3 cumulants.
  SemiCanonicalize takes 0.331532 s.

           ----------------------------------------------------------
             Multireference Driven Similarity Renormalization Group
                                  Chenyang Li
           ----------------------------------------------------------


  ==> Calculation Information <==

    ntamp                                            15
    diis_min_vecs                                     2
    diis_max_vecs                                     5
    flow parameter                            5.000e-01
    taylor expansion threshold                1.000e-03
    intruder_tamp                             1.000e-01
    corr_level                                   LDSRG2
    int_type                                   CHOLESKY
    source operator                            STANDARD
    smart_dsrg_s                                 DSRG_S
    reference relaxation                           NONE
    dsrg transformation type                    UNITARY
    core virtual source type                     NORMAL

  Warning: I am forcing density Db = Da to avoid spin symmetry breaking.
  If this is not desired, go to mrdsrg.cc build_density() around line 190.

  ==> Density Cumulant Summary <==

    2-body               AA           AB           BB
    -------------------------------------------------
    max            0.010533     0.001397     0.010533
    norm           0.030568     0.093259     0.030568
    -------------------------------------------------
    3-body              AAA          AAB          ABB          BBB
    --------------------------------------------------------------
    max            0.000111     0.000994     0.000994     0.000111
    norm           0.001311     0.009201     0.009201     0.001311
    --------------------------------------------------------------

  ==> Checking Orbitals <==

    Checking if orbitals are semi-canonicalized ...
    Warning! Orbitals are not semi-canonicalized!
    Off-Diagonal norms of the core, active, virtual blocks of Fock matrix
                  core          active         virtual
    --------------------------------------------------
    Fa    0.0000000000    0.0000015050    0.0000724855
    Fb    0.0000000000    0.0000015050    0.0000724855
    --------------------------------------------------

    MR-DSRG will be computed in an arbitrary basis. Orbital invariant formalism is employed.
    We recommend using semi-canonical for all denominator-based source operator.

  ==> Build Initial Amplitude from DSRG-MRPT2 <==

    Computing T2 amplitudes ...          Done. Timing      0.090 s
    Computing T1 amplitudes ...          Done. Timing      0.007 s

  ==> First-Order Excitation Amplitudes Summary <==

    Active Indices:    0    6   11   15 
    Largest T1 amplitudes for spin case A:
       i       a                  i       a                  i       a               
    --------------------------------------------------------------------------------
    [ 11      12    ] 0.000353 [  6       7    ]-0.000271 [  0       1    ] 0.000090 
    [ 15      16    ] 0.000087 [  0       2    ] 0.000078 [  6       8    ] 0.000071 
    [ 15      18    ]-0.000069 [  0       3    ]-0.000056 [ 15      17    ] 0.000021 
    [ 11      14    ]-0.000017 [  6       9    ]-0.000009 [ 11      13    ] 0.000003 
    [  6      17    ] 0.000003 [ 15       9    ] 0.000001 [  0      13    ] 0.000001 
    --------------------------------------------------------------------------------
    Norm of T1A vector: (nonzero elements: 48)                    0.000483509599568.
    --------------------------------------------------------------------------------
    Largest T1 amplitudes for spin case B:
       _       _                  _       _                  _       _               
       i       a                  i       a                  i       a               
    --------------------------------------------------------------------------------
    [ 11      12    ] 0.000353 [  6       7    ]-0.000271 [  0       1    ] 0.000090 
    [ 15      16    ] 0.000087 [  0       2    ] 0.000078 [  6       8    ] 0.000071 
    [ 15      18    ]-0.000069 [  0       3    ]-0.000056 [ 15      17    ] 0.000021 
    [ 11      14    ]-0.000017 [  6       9    ]-0.000009 [ 11      13    ] 0.000003 
    [  6      17    ] 0.000003 [ 15       9    ] 0.000001 [  0      13    ] 0.000001 
    --------------------------------------------------------------------------------
    Norm of T1B vector: (nonzero elements: 48)                    0.000483509599568.
    --------------------------------------------------------------------------------
    Largest T2 amplitudes for spin case AA:
       i   j   a   b              i   j   a   b              i   j   a   b           
    --------------------------------------------------------------------------------
    [  0  15   2  15]-0.035508 [ 11  15  12  15]-0.021909 [  0  11   1  11]-0.020856 
    [  0   6   0   7] 0.020744 [  0  11   0  12]-0.019561 [  0  15   0  16]-0.018412 
    [  0  11   1  12]-0.017781 [ 11  15   2   6]-0.017484 [  0  15   1  15]-0.017351 
    [  0   6  13  15]-0.016699 [  6  15   7  16] 0.015942 [ 11  15  11  16]-0.015643 
    [  6  15   7  15] 0.015281 [  6  15   6  16]-0.013815 [ 11  15  12  16]-0.013785 
    --------------------------------------------------------------------------------
    Norm of T2AA vector: (nonzero elements: 2816)                 0.191865379671936.
    --------------------------------------------------------------------------------
    Largest T2 amplitudes for spin case AB:
           _       _                  _       _                  _       _           
       i   j   a   b              i   j   a   b              i   j   a   b           
    --------------------------------------------------------------------------------
    [  0  15   0  16]-0.042508 [  0   0   0   1]-0.041859 [ 15  15   0   2] 0.038692 
    [ 15  15  15  16]-0.038301 [  0  15   1  15]-0.036737 [  0  11   0  12]-0.034493 
    [ 11  15  12  15]-0.030856 [  0   6   0   7] 0.028792 [  0   0  15  16]-0.028162 
    [  6  15   7  15] 0.027290 [ 15  15   2   2]-0.025045 [ 15  15   7   7]-0.024219 
    [ 15  15  16  16]-0.023131 [  0   0   2   2]-0.022204 [  0   0  19  19]-0.020549 
    --------------------------------------------------------------------------------
    Norm of T2AB vector: (nonzero elements: 3968)                 0.268370791911118.
    --------------------------------------------------------------------------------
    Largest T2 amplitudes for spin case BB:
       _   _   _   _              _   _   _   _              _   _   _   _           
       i   j   a   b              i   j   a   b              i   j   a   b           
    --------------------------------------------------------------------------------
    [  0  15   2  15]-0.035508 [ 11  15  12  15]-0.021909 [  0  11   1  11]-0.020856 
    [  0   6   0   7] 0.020744 [  0  11   0  12]-0.019561 [  0  15   0  16]-0.018412 
    [  0  11   1  12]-0.017781 [ 11  15   2   6]-0.017484 [  0  15   1  15]-0.017351 
    [  0   6  13  15]-0.016699 [  6  15   7  16] 0.015942 [ 11  15  11  16]-0.015643 
    [  6  15   7  15] 0.015281 [  6  15   6  16]-0.013815 [ 11  15  12  16]-0.013785 
    --------------------------------------------------------------------------------
    Norm of T2BB vector: (nonzero elements: 2816)                 0.191865379671936.
    --------------------------------------------------------------------------------

  ==> Possible Intruders <==

    T1 amplitudes larger than 0.1000 for spin case A: NULL
    T1 amplitudes larger than 0.1000 for spin case B: NULL
    T2 amplitudes larger than 0.1000 for spin case AA: NULL
    T2 amplitudes larger than 0.1000 for spin case AB: NULL
    T2 amplitudes larger than 0.1000 for spin case BB: NULL

  ==> Computing MR-LDSRG(2) Energy <==

    Reference:
      J. Chem. Phys. 2016, 144, 164114.

                  Energy (a.u.)           Non-Diagonal Norm        Amplitude RMS         Timings (s)   
           ---------------------------  ---------------------  ---------------------  -----------------
    Iter.        Corr.         Delta       Hbar1      Hbar2        T1         T2        Hbar     Amp.  
    ---------------------------------------------------------------------------------------------------
        0   -0.064577154762 -6.458e-02   3.486e-02  7.050e-01   7.875e-03  4.780e-02     5.238    0.260
        1   -0.068369123616 -3.792e-03   2.511e-02  6.825e-01   1.692e-03  1.049e-02     5.228    0.260
        2   -0.068848038110 -4.789e-04   2.424e-02  6.781e-01   5.185e-04  2.774e-03     5.815    0.259
        3   -0.068944006063 -9.597e-05   2.407e-02  6.781e-01   1.750e-04  7.935e-04     5.797    0.260
        4   -0.068969518065 -2.551e-05   2.403e-02  6.780e-01   5.661e-05  2.415e-04     5.792    0.259
        5   -0.068976314320 -6.796e-06   2.402e-02  6.780e-01   1.959e-05  7.583e-05     5.789    0.259 -> DIIS
        6   -0.068978370896 -2.057e-06   2.402e-02  6.780e-01   6.532e-06  2.463e-05     5.785    0.259 -> DIIS
        7   -0.068979227175 -8.563e-07   2.402e-02  6.780e-01   1.015e-07  6.068e-07     5.782    0.260 -> DIIS
        8   -0.068979221143  6.032e-09   2.402e-02  6.780e-01   1.581e-08  1.605e-07     5.794    0.259
    ---------------------------------------------------------------------------------------------------

  ==> MR-LDSRG(2) Energy Summary <==

    E0 (reference)                 =      -2.184584292953460
    MR-LDSRG(2) correlation energy =      -0.068979221143247
    MR-LDSRG(2) total energy       =      -2.253563514096707

  ==> Final Excitation Amplitudes Summary <==

    Active Indices:    0    6   11   15 
    Largest T1 amplitudes for spin case A:
       i       a                  i       a                  i       a               
    --------------------------------------------------------------------------------
    [ 11      12    ] 0.003764 [  6       7    ]-0.003209 [  0       3    ] 0.003130 
    [ 15      18    ] 0.002259 [ 15      17    ]-0.001898 [ 15      16    ] 0.001142 
    [  0       2    ] 0.000892 [  0       1    ] 0.000544 [ 11      13    ] 0.000370 
    [ 11      14    ]-0.000353 [  6       9    ]-0.000279 [  6       8    ] 0.000145 
    [  6      17    ] 0.000003 [ 15       9    ] 0.000002 [  0      13    ] 0.000001 
    --------------------------------------------------------------------------------
    Norm of T1A vector: (nonzero elements: 48)                    0.006762203235148.
    --------------------------------------------------------------------------------
    Largest T1 amplitudes for spin case B:
       _       _                  _       _                  _       _               
       i       a                  i       a                  i       a               
    --------------------------------------------------------------------------------
    [ 11      12    ] 0.003764 [  6       7    ]-0.003209 [  0       3    ] 0.003130 
    [ 15      18    ] 0.002259 [ 15      17    ]-0.001898 [ 15      16    ] 0.001142 
    [  0       2    ] 0.000892 [  0       1    ] 0.000544 [ 11      13    ] 0.000370 
    [ 11      14    ]-0.000353 [  6       9    ]-0.000279 [  6       8    ] 0.000145 
    [  6      17    ] 0.000003 [ 15       9    ] 0.000002 [  0      13    ] 0.000001 
    --------------------------------------------------------------------------------
    Norm of T1B vector: (nonzero elements: 48)                    0.006762203235149.
    --------------------------------------------------------------------------------
    Largest T2 amplitudes for spin case AA:
       i   j   a   b              i   j   a   b              i   j   a   b           
    --------------------------------------------------------------------------------
    [  0  15   2  15]-0.039602 [  0  11   1  11]-0.022556 [ 11  15  12  15]-0.020230 
    [  0   6   0   7] 0.019268 [ 11  15   2   6]-0.018901 [  0  15   0  16]-0.018333 
    [  0  15   1  15]-0.018327 [  0  11   1  12]-0.018185 [  0  11   0  12]-0.018020 
    [  0   6  13  15]-0.017110 [ 11  15  11  16]-0.017007 [  6  15   7  16] 0.016487 
    [  6  15   6  16]-0.015041 [  6  15   2  11]-0.014950 [  6  15   7  15] 0.014570 
    --------------------------------------------------------------------------------
    Norm of T2AA vector: (nonzero elements: 2880)                 0.196298372374319.
    --------------------------------------------------------------------------------
    Largest T2 amplitudes for spin case AB:
           _       _                  _       _                  _       _           
       i   j   a   b              i   j   a   b              i   j   a   b           
    --------------------------------------------------------------------------------
    [ 15  15   0   2] 0.045040 [  0   0   0   1]-0.044613 [  0  15   0  16]-0.042324 
    [  0  15   1  15]-0.038735 [ 15  15  15  16]-0.038291 [  0  11   0  12]-0.032311 
    [ 15  15   2   2]-0.031307 [ 15  15   7   7]-0.030554 [ 11  15  12  15]-0.028979 
    [ 15  15  16  16]-0.028646 [  0   0  15  16]-0.028219 [  0   6   0   7] 0.026988 
    [  0   0   2   2]-0.026471 [  0   0  12  12]-0.026067 [  6  15   7  15] 0.025952 
    --------------------------------------------------------------------------------
    Norm of T2AB vector: (nonzero elements: 4096)                 0.294314977619598.
    --------------------------------------------------------------------------------
    Largest T2 amplitudes for spin case BB:
       _   _   _   _              _   _   _   _              _   _   _   _           
       i   j   a   b              i   j   a   b              i   j   a   b           
    --------------------------------------------------------------------------------
    [  0  15   2  15]-0.039602 [  0  11   1  11]-0.022556 [ 11  15  12  15]-0.020230 
    [  0   6   0   7] 0.019268 [ 11  15   2   6]-0.018901 [  0  15   0  16]-0.018333 
    [  0  15   1  15]-0.018327 [  0  11   1  12]-0.018185 [  0  11   0  12]-0.018020 
    [  0   6  13  15]-0.017110 [ 11  15  11  16]-0.017007 [  6  15   7  16] 0.016487 
    [  6  15   6  16]-0.015041 [  6  15   2  11]-0.014950 [  6  15   7  15] 0.014570 
    --------------------------------------------------------------------------------
    Norm of T2BB vector: (nonzero elements: 2880)                 0.196298372374319.
    --------------------------------------------------------------------------------

  ==> Possible Intruders <==

    T1 amplitudes larger than 0.1000 for spin case A: NULL
    T1 amplitudes larger than 0.1000 for spin case B: NULL
    T2 amplitudes larger than 0.1000 for spin case AA: NULL
    T2 amplitudes larger than 0.1000 for spin case AB: NULL
    T2 amplitudes larger than 0.1000 for spin case BB: NULL

  ==> Total Timings (s) for Computing Commutators <==

             [H1, T1]    [H1, T2]    [H2, T1]    [H2, T2]
    -----------------------------------------------------
    -> C0       0.000       0.097       0.000       2.968
    -> C1       0.000       0.669       0.000      12.218
    -> C2                   2.467       0.000      30.640
    -----------------------------------------------------


  Your calculation took 54.20210200 seconds
	MRDSRG energy.....................................................PASSED

*** Psi4 exiting successfully. Buy a developer a beer!
