
    -----------------------------------------------------------------------
          Psi4: An Open-Source Ab Initio Electronic Structure Package
                               Psi4 1.7a1.dev6 

                         Git: Rev {master} 0d7bbc2 


    D. G. A. Smith, L. A. Burns, A. C. Simmonett, R. M. Parrish,
    M. C. Schieber, R. Galvelis, P. Kraus, H. Kruse, R. Di Remigio,
    A. Alenaizan, A. M. James, S. Lehtola, J. P. Misiewicz, M. Scheurer,
    R. A. Shaw, J. B. Schriber, Y. Xie, Z. L. Glick, D. A. Sirianni,
    J. S. O'Brien, J. M. Waldrop, A. Kumar, E. G. Hohenstein,
    B. P. Pritchard, B. R. Brooks, H. F. Schaefer III, A. Yu. Sokolov,
    K. Patkowski, A. E. DePrince III, U. Bozkaya, R. A. King,
    F. A. Evangelista, J. M. Turney, T. D. Crawford, C. D. Sherrill,
    J. Chem. Phys. 152(18) 184108 (2020). https://doi.org/10.1063/5.0006002

                            Additional Code Authors
    E. T. Seidl, C. L. Janssen, E. F. Valeev, M. L. Leininger,
    J. F. Gonthier, R. M. Richard, H. R. McAlexander, M. Saitow, X. Wang,
    P. Verma, M. H. Lechner, and A. Jiang

             Previous Authors, Complete List of Code Contributors,
                       and Citations for Specific Modules
    https://github.com/psi4/psi4/blob/master/codemeta.json
    https://github.com/psi4/psi4/graphs/contributors
    http://psicode.org/psi4manual/master/introduction.html#citing-psifour

    -----------------------------------------------------------------------


    Psi4 started on: Monday, 20 June 2022 03:40PM

    Process ID: 8651
    Host:       CHE-FEVANGE-01i
    PSIDATADIR: /Users/fevange/Source/psi4/objdir-Release/stage/share/psi4
    Memory:     500.0 MiB
    Threads:    1
    
  ==> Input File <==

--------------------------------------------------------------------------
import forte

refe = -1.147065798915086

molecule {
0 1
H
H 1 0.75
}

set {
  basis dz
  scf_type pk
  e_convergence 12
}

set forte {
  active_space_solver external
  read_wfn true
  correlation_solver dsrg-mrpt2
  relax_ref once
  active [1,0,0,0,0,1,0,0]
  restricted_docc [0,0,0,0,0,0,0,0]
  threepdc zero
}

energy('forte')
compare_values(refe, variable("CURRENT ENERGY"),11, "FCI energy") #TEST
--------------------------------------------------------------------------

Scratch directory: /tmp/

  Forte
  ----------------------------------------------------------------------------
  A suite of quantum chemistry methods for strongly correlated electrons

    git branch: qc - git commit: 8ee2ad8c

  Developed by:
    Francesco A. Evangelista, Chenyang Li, Kevin P. Hannon,
    Jeffrey B. Schriber, Tianyuan Zhang, Chenxi Cai,
    Nan He, Nicholas Stair, Shuhe Wang, Renke Huang
  ----------------------------------------------------------------------------

  Size of Determinant class: 128 bits

  Preparing forte objects from a Psi4 Wavefunction object
  No reference wave function provided for Forte. Computing SCF orbitals using Psi4 ...

*** tstart() called on CHE-FEVANGE-01i
*** at Mon Jun 20 15:40:53 2022

   => Loading Basis Set <=

    Name: DZ
    Role: ORBITAL
    Keyword: BASIS
    atoms 1-2 entry H          line    12 file /Users/fevange/Source/psi4/objdir-Release/stage/share/psi4/basis/dz.gbs 


         ---------------------------------------------------------
                                   SCF
               by Justin Turney, Rob Parrish, Andy Simmonett
                          and Daniel G. A. Smith
                              RHF Reference
                        1 Threads,    500 MiB Core
         ---------------------------------------------------------

  ==> Geometry <==

    Molecular point group: d2h
    Full point group: D_inf_h

    Geometry (in Angstrom), charge = 0, multiplicity = 1:

       Center              X                  Y                   Z               Mass       
    ------------   -----------------  -----------------  -----------------  -----------------
         H            0.000000000000     0.000000000000    -0.375000000000     1.007825032230
         H            0.000000000000     0.000000000000     0.375000000000     1.007825032230

  Running in d2h symmetry.

  Rotational constants: A = ************  B =     59.47286  C =     59.47286 [cm^-1]
  Rotational constants: A = ************  B = 1782951.48970  C = 1782951.48970 [MHz]
  Nuclear repulsion =    0.705569614226667

  Charge       = 0
  Multiplicity = 1
  Electrons    = 2
  Nalpha       = 1
  Nbeta        = 1

  ==> Algorithm <==

  SCF Algorithm Type is PK.
  DIIS enabled.
  MOM disabled.
  Fractional occupation disabled.
  Guess Type is SAD.
  Energy threshold   = 1.00e-12
  Density threshold  = 1.00e-08
  Integral threshold = 1.00e-12

  ==> Primary Basis <==

  Basis Set: DZ
    Blend: DZ
    Number of shells: 4
    Number of basis functions: 4
    Number of Cartesian functions: 4
    Spherical Harmonics?: false
    Max angular momentum: 0

  ==> Integral Setup <==

  Using in-core PK algorithm.
   Calculation information:
      Number of atoms:                   2
      Number of AO shells:               4
      Number of primitives:              8
      Number of atomic orbitals:         4
      Number of basis functions:         4

      Integral cutoff                 1.00e-12
      Number of threads:                 1

  Performing in-core PK
  Using 110 doubles for integral storage.
  We computed 55 shell quartets total.
  Whereas there are 55 unique shell quartets.

  ==> DiskJK: Disk-Based J/K Matrices <==

    J tasked:                  Yes
    K tasked:                  Yes
    wK tasked:                  No
    Memory [MiB]:              375
    Schwarz Cutoff:          1E-12

    OpenMP threads:              1

  Minimum eigenvalue in the overlap matrix is 2.6489095912E-01.
  Reciprocal condition number of the overlap matrix is 1.5266530972E-01.
    Using symmetric orthogonalization.

  ==> Pre-Iterations <==

  SCF Guess: Superposition of Atomic Densities via on-the-fly atomic UHF (no occupation information).

   -------------------------
    Irrep   Nso     Nmo    
   -------------------------
     Ag         2       2 
     B1g        0       0 
     B2g        0       0 
     B3g        0       0 
     Au         0       0 
     B1u        2       2 
     B2u        0       0 
     B3u        0       0 
   -------------------------
    Total       4       4
   -------------------------

  ==> Iterations <==

                        Total Energy        Delta E     RMS |[F,P]|

   @RHF iter SAD:    -0.85201588837503   -8.52016e-01   0.00000e+00 
   @RHF iter   1:    -1.12478337243668   -2.72767e-01   1.58057e-02 DIIS/ADIIS
   @RHF iter   2:    -1.12636733606918   -1.58396e-03   2.34717e-03 DIIS/ADIIS
   @RHF iter   3:    -1.12640311738346   -3.57813e-05   3.27512e-05 DIIS
   @RHF iter   4:    -1.12640312435475   -6.97129e-09   2.03613e-08 DIIS
   @RHF iter   5:    -1.12640312435475   -2.88658e-15   8.31767e-12 DIIS
  Energy and wave function converged.


  ==> Post-Iterations <==

    Orbital Energies [Eh]
    ---------------------

    Doubly Occupied:                                                      

       1Ag    -0.589979  

    Virtual:                                                              

       1B1u    0.257164     2Ag     0.857594     2B1u    1.468954  

    Final Occupation by Irrep:
             Ag   B1g   B2g   B3g    Au   B1u   B2u   B3u 
    DOCC [     1,    0,    0,    0,    0,    0,    0,    0 ]

  @RHF Final Energy:    -1.12640312435475

   => Energetics <=

    Nuclear Repulsion Energy =              0.7055696142266668
    One-Electron Energy =                  -2.4839879979864414
    Two-Electron Energy =                   0.6520152594050259
    Total Energy =                         -1.1264031243547488

Computation Completed


Properties will be evaluated at   0.000000,   0.000000,   0.000000 [a0]

Properties computed using the SCF density matrix


 Multipole Moments:

 ------------------------------------------------------------------------------------
     Multipole            Electronic (a.u.)      Nuclear  (a.u.)        Total (a.u.)
 ------------------------------------------------------------------------------------

 L = 1.  Multiply by 2.5417464519 to convert [e a0] to [Debye]
 Dipole X            :          0.0000000            0.0000000            0.0000000
 Dipole Y            :          0.0000000            0.0000000            0.0000000
 Dipole Z            :          0.0000000            0.0000000            0.0000000
 Magnitude           :                                                    0.0000000

 ------------------------------------------------------------------------------------

*** tstop() called on CHE-FEVANGE-01i at Mon Jun 20 15:40:53 2022
Module time:
	user time   =       0.11 seconds =       0.00 minutes
	system time =       0.02 seconds =       0.00 minutes
	total time  =          0 seconds =       0.00 minutes
Total time:
	user time   =       0.11 seconds =       0.00 minutes
	system time =       0.02 seconds =       0.00 minutes
	total time  =          0 seconds =       0.00 minutes

  Read options for space RESTRICTED_DOCC
  Read options for space ACTIVE
  Read options for space RESTRICTED_DOCC

  ==> MO Space Information <==

  -------------------------------------------------------------------------
                       Ag   B1g   B2g   B3g    Au   B1u   B2u   B3u   Sum
  -------------------------------------------------------------------------
    FROZEN_DOCC         0     0     0     0     0     0     0     0     0
    RESTRICTED_DOCC     0     0     0     0     0     0     0     0     0
    GAS1                1     0     0     0     0     1     0     0     2
    GAS2                0     0     0     0     0     0     0     0     0
    GAS3                0     0     0     0     0     0     0     0     0
    GAS4                0     0     0     0     0     0     0     0     0
    GAS5                0     0     0     0     0     0     0     0     0
    GAS6                0     0     0     0     0     0     0     0     0
    RESTRICTED_UOCC     1     0     0     0     0     1     0     0     2
    FROZEN_UOCC         0     0     0     0     0     0     0     0     0
    Total               2     0     0     0     0     2     0     0     4
  -------------------------------------------------------------------------   => Loading Basis Set <=

    Name: STO-3G
    Role: ORBITAL
    Keyword: MINAO_BASIS
    atoms 1-2 entry H          line    19 file /Users/fevange/Source/psi4/objdir-Release/stage/share/psi4/basis/sto-3g.gbs 


  Forte will use psi4 integrals

  ==> Primary Basis Set Summary <==

  Basis Set: DZ
    Blend: DZ
    Number of shells: 4
    Number of basis functions: 4
    Number of Cartesian functions: 4
    Spherical Harmonics?: false
    Max angular momentum: 0


  JK created using conventional PK integrals
  Using in-core PK algorithm.
   Calculation information:
      Number of atoms:                   2
      Number of AO shells:               4
      Number of primitives:              8
      Number of atomic orbitals:         4
      Number of basis functions:         4

      Integral cutoff                 1.00e-12
      Number of threads:                 1

  Performing in-core PK
  Using 110 doubles for integral storage.
  We computed 55 shell quartets total.
  Whereas there are 55 unique shell quartets.

  ==> DiskJK: Disk-Based J/K Matrices <==

    J tasked:                  Yes
    K tasked:                  Yes
    wK tasked:                  No
    Memory [MiB]:              400
    Schwarz Cutoff:          1E-12

    OpenMP threads:              1



  ==> Integral Transformation <==

  Number of molecular orbitals:                          4
  Number of correlated molecular orbitals:               4
  Number of frozen occupied orbitals:                    0
  Number of frozen unoccupied orbitals:                  0
  Two-electron integral type:                 Conventional


  Computing Conventional Integrals	Presorting SO-basis two-electron integrals.
	Sorting File: SO Ints (nn|nn) nbuckets = 1
	Constructing frozen core operators
	Starting first half-transformation.
	Sorting half-transformed integrals.
	First half integral transformation complete.
	Starting second half-transformation.
	Two-electron integral transformation complete.

  Integral transformation done. 0.00195971 s
  Reading the two-electron integrals from disk
  Size of two-electron integrals:   0.000006 GB
  Timing for conventional integral transformation:            0.005 s.
  Timing for freezing core and virtual orbitals:              0.000 s.
  Timing for computing conventional integrals:                0.005 s.

  ==> Summary of Active Space Solver Input <==

    Irrep.  Multi.(2ms)      N
    --------------------------
       Ag      1  (  0)      1
    --------------------------
    N: number of roots
    ms: spin z component
    Total number of roots:   1
    --------------------------


                        --------------------------------
                          External Active Space Solver
                        --------------------------------

The json file does not contain data for the 3-RDM

  ==> Energy Summary <==

    Multi.(2ms)  Irrep.  No.               Energy      <S^2>
    --------------------------------------------------------
       1  (  0)    Ag     0       -1.133162702139       n/a
    --------------------------------------------------------

  ==> Permanent Dipole Moments [e a0] for Singlet (Ms = 0) Ag <==

       State           DM_X           DM_Y           DM_Z           |DM|
    --------------------------------------------------------------------
         0AG     0.00000000     0.00000000     0.00000000     0.00000000
    --------------------------------------------------------------------

  ==> Semicanonicalize Orbitals <==

    MIX INACTIVE ORBITALS   ...... FALSE
    MIX GAS ACTIVE ORBITALS ...... FALSE
    FROZEN_DOCC     ...  CANONICAL
    FROZEN_UOCC     ...  CANONICAL
    GAS1            ...  CANONICAL
    RESTRICTED_DOCC ...  CANONICAL
    RESTRICTED_UOCC ...  CANONICAL

    Off-Diag. Elements       Max           2-Norm
    ------------------------------------------------
    GAS1                 0.0000000000   0.0000000000
    RESTRICTED_UOCC      0.0000000000   0.0000000000
    ------------------------------------------------
  Orbitals are already semicanonicalized.
  Timing for orbital canonicalization:                        0.000 s.

  ==> Multireference Driven Similarity Renormalization Group <==

    Computing Fock matrix and cleaning JK ........... Done
    Reading DSRG options ............................ Done
    Setting ambit MO space .......................... Done
    Preparing tensors for density cumulants ......... Done
    Filling Fock matrix from ForteIntegrals ......... Done

              ----------------------------------------------------
                    MR-DSRG Second-Order Perturbation Theory
                Chenyang Li, Kevin Hannon, Francesco Evangelista
              ----------------------------------------------------

    References:
      u-DSRG-MRPT2:    J. Chem. Theory Comput. 2015, 11, 2097.
      (pr-)DSRG-MRPT2: J. Chem. Phys. 2017, 146, 124132.

  ==> Calculation Information <==

    int_type                                    CONVENTIONAL
    source operator                                 STANDARD
    reference relaxation                                ONCE
    state_type                                STATE-SPECIFIC
    form Hbar3                                         FALSE
    flow parameter                                 5.000e-01
    taylor expansion threshold                     1.000e-03
    intruder_tamp                                  1.000e-01
    ntamp                                                 15


  ==> Checking Semicanonical Orbitals <==

    Block             Fa Max         Fa Mean           Fb Max         Fb Mean
    -------------------------------------------------------------------------
    CORE        0.0000000000    0.0000000000     0.0000000000    0.0000000000
    VIRTUAL     0.0000000000    0.0000000000     0.0000000000    0.0000000000
    GAS1        0.0000000000    0.0000000000     0.0000000000    0.0000000000
    -------------------------------------------------------------------------
    Orbitals are semi-canonicalized.

  ==> Computing DSRG-MRPT2 ... <==

    Computing T2 amplitudes                  ...  Done. Timing        0.000219 s
    Computing T1 amplitudes                  ...  Done. Timing        0.000349 s
    Renormalizing two-electron integrals     ...  Done. Timing        0.000035 s
    Renormalizing Fock matrix elements       ...  Done. Timing        0.000352 s
    Computing <[F, T1]>                      ...  Done. Timing        0.000158 s
    Computing <[F, T2]>                      ...  Done. Timing        0.000465 s
    Computing <[V, T1]>                      ...  Done. Timing        0.000515 s
    Computing <[V, T2]> (C_2)^4              ...  Done. Timing        0.003106 s
    Computing <[V, T2]> C_4 (C_2)^2 HH       ...  Done. Timing        0.000758 s
    Computing <[V, T2]> C_4 (C_2)^2 PP       ...  Done. Timing        0.000825 s
    Computing <[V, T2]> C_4 (C_2)^2 PH       ...  Done. Timing        0.003440 s

  ==> Excitation Amplitudes Summary <==

    Active Indices:    0    2 
    Largest T1 amplitudes for spin case A:
       i       a                  i       a                  i       a               
    --------------------------------------------------------------------------------
    [  2       3    ] 0.000381 [  0       1    ] 0.000104 
    --------------------------------------------------------------------------------
    Norm of T1A vector: (nonzero elements: 2)                     0.000394807749136.
    --------------------------------------------------------------------------------
    Largest T1 amplitudes for spin case B:
       _       _                  _       _                  _       _               
       i       a                  i       a                  i       a               
    --------------------------------------------------------------------------------
    [  2       3    ] 0.000381 [  0       1    ] 0.000104 
    --------------------------------------------------------------------------------
    Norm of T1B vector: (nonzero elements: 2)                     0.000394807749136.
    --------------------------------------------------------------------------------
    Largest T2 amplitudes for spin case AA:
       i   j   a   b              i   j   a   b              i   j   a   b           
    --------------------------------------------------------------------------------
    [  0   2   1   2]-0.031883 [  0   2   0   3]-0.027310 [  0   2   1   3]-0.018272 
    --------------------------------------------------------------------------------
    Norm of T2AA vector: (nonzero elements: 12)                   0.091569087163516.
    --------------------------------------------------------------------------------
    Largest T2 amplitudes for spin case AB:
           _       _                  _       _                  _       _           
       i   j   a   b              i   j   a   b              i   j   a   b           
    --------------------------------------------------------------------------------
    [  0   0   0   1]-0.073560 [  0   2   0   3]-0.061964 [  0   0   1   1]-0.037246 
    [  0   0   3   3]-0.032324 [  2   2   3   3]-0.027662 [  0   2   1   3]-0.027648 
    [  0   0   2   3]-0.027425 [  2   2   2   3]-0.025301 [  0   2   1   2]-0.024208 
    [  2   2   1   1]-0.015288 [  2   2   0   1]-0.002042 
    --------------------------------------------------------------------------------
    Norm of T2AB vector: (nonzero elements: 24)                   0.173555281301710.
    --------------------------------------------------------------------------------
    Largest T2 amplitudes for spin case BB:
       _   _   _   _              _   _   _   _              _   _   _   _           
       i   j   a   b              i   j   a   b              i   j   a   b           
    --------------------------------------------------------------------------------
    [  0   2   1   2]-0.031883 [  0   2   0   3]-0.027310 [  0   2   1   3]-0.018272 
    --------------------------------------------------------------------------------
    Norm of T2BB vector: (nonzero elements: 12)                   0.091569087163516.
    --------------------------------------------------------------------------------

  ==> Possible Intruders <==

    T1 amplitudes larger than 0.1000 for spin case A: NULL
    T1 amplitudes larger than 0.1000 for spin case B: NULL
    T2 amplitudes larger than 0.1000 for spin case AA: NULL
    T2 amplitudes larger than 0.1000 for spin case AB: NULL
    T2 amplitudes larger than 0.1000 for spin case BB: NULL

  ==> DSRG-MRPT2 Energy Summary <==

    E0 (reference)                 =     -1.133162702138564
    <[F, T1]>                      =     -0.000000070783598
    <[F, T2]>                      =     -0.000006567306088
    <[V, T1]>                      =     -0.000005190688217
    <[V, T2]> (C_2)^4              =     -0.013039353585635
    <[V, T2]> C_4 (C_2)^2 HH       =      0.000000000000000
    <[V, T2]> C_4 (C_2)^2 PP       =      0.001411318919774
    <[V, T2]> C_4 (C_2)^2 PH       =     -0.002263233332758
    <[V, T2]> C_6 C_2              =      0.000000000000000
    <[V, T2]>                      =     -0.013891267998620
    DSRG-MRPT2 correlation energy  =     -0.013903096776522
    DSRG-MRPT2 total energy        =     -1.147065798915086
    max(T1)                        =      0.000380862838984
    max(T2)                        =      0.073559758223342
    ||T1||                         =      0.000558342473358
    ||T2||                         =      0.370480145377295

  Energy took      0.011 s


  ==> De-Normal-Order DSRG Transformed Hamiltonian <==

    Computing the scalar term                ... Done. Timing    0.000 s
    Computing the 1-body term                ... Done. Timing    0.000 s

  ==> Rotate DSRG Transformed Hamiltonian back to Original Basis <==

    Rotating 1-body term to original basis   ... Done. Timing    0.000 s
    Rotating 2-body term to original basis   ... Done. Timing    0.001 sExternal solver wrote DSRG dressed integrals to disk

  ==> Total Timings (s) for Computing Commutators <==

             [H1, T1]    [H1, T2]    [H2, T1]    [H2, T2]
    -----------------------------------------------------
    -> C0       0.000       0.000       0.001       0.008
    -> C1       0.000       0.001       0.001       0.017
    -> C2                   0.001       0.001       0.007
    -----------------------------------------------------

    Psi4 stopped on: Monday, 20 June 2022 03:40PM
    Psi4 wall time for execution: 0:00:00.24

*** Psi4 encountered an error. Buy a developer more coffee!
*** Resources and help at github.com/psi4/psi4.
