
    -----------------------------------------------------------------------
          Psi4: An Open-Source Ab Initio Electronic Structure Package
                               Psi4 1.8a1.dev55 

                         Git: Rev {master} e66e6c8 


    D. G. A. Smith, L. A. Burns, A. C. Simmonett, R. M. Parrish,
    M. C. Schieber, R. Galvelis, P. Kraus, H. Kruse, R. Di Remigio,
    A. Alenaizan, A. M. James, S. Lehtola, J. P. Misiewicz, M. Scheurer,
    R. A. Shaw, J. B. Schriber, Y. Xie, Z. L. Glick, D. A. Sirianni,
    J. S. O'Brien, J. M. Waldrop, A. Kumar, E. G. Hohenstein,
    B. P. Pritchard, B. R. Brooks, H. F. Schaefer III, A. Yu. Sokolov,
    K. Patkowski, A. E. DePrince III, U. Bozkaya, R. A. King,
    F. A. Evangelista, J. M. Turney, T. D. Crawford, C. D. Sherrill,
    J. Chem. Phys. 152(18) 184108 (2020). https://doi.org/10.1063/5.0006002

                            Additional Code Authors
    E. T. Seidl, C. L. Janssen, E. F. Valeev, M. L. Leininger,
    J. F. Gonthier, R. M. Richard, H. R. McAlexander, M. Saitow, X. Wang,
    P. Verma, M. H. Lechner, A. Jiang, S. Behnle, A. G. Heide,
    M. F. Herbst, and D. L. Poole

             Previous Authors, Complete List of Code Contributors,
                       and Citations for Specific Modules
    https://github.com/psi4/psi4/blob/master/codemeta.json
    https://github.com/psi4/psi4/graphs/contributors
    http://psicode.org/psi4manual/master/introduction.html#citing-psifour

    -----------------------------------------------------------------------


    Psi4 started on: Friday, 05 May 2023 02:03PM

    Process ID: 10771
    Host:       renke-mbp15.wireless.emory.edu
    PSIDATADIR: /Users/renkehuang/source/psi4/objdir/stage/share/psi4
    Memory:     500.0 MiB
    Threads:    1
    
  ==> Input File <==

--------------------------------------------------------------------------
# This test case uses external RDMs from rdms.json to compute partial-relaxed DSRG-MRPT2 energy

import forte

refe = -1.153762971093

molecule {
0 1
H
H 1 0.7
}

set {
  basis                cc-pVDZ
  scf_type             pk
  e_convergence        12
}

set forte {
  job_type             newdriver
  active_space_solver  external    # read rdms.json, generate as_ints.json
  read_wfn             true        # read coeff.json
  correlation_solver   dsrg-mrpt2
  dsrg_s               0.5
  active               [1, 0, 0, 0, 0, 1, 0, 0]
  restricted_docc      [0, 0, 0, 0, 0, 0, 0, 0] 
  relax_ref            once        # generate dsrg_ints.json
  external_partial_relax true
}

energy('forte')
compare_values(refe, variable("CURRENT ENERGY"), 10, "DSRG-MRPT2 partial relaxed energy (external RDM)")
--------------------------------------------------------------------------

Scratch directory: /tmp/

  Forte
  ----------------------------------------------------------------------------
  A suite of quantum chemistry methods for strongly correlated electrons

    git branch: qc - git commit: 9cdccd91

  Developed by:
    Francesco A. Evangelista, Chenyang Li, Kevin P. Hannon,
    Jeffrey B. Schriber, Tianyuan Zhang, Chenxi Cai,
    Nan He, Nicholas Stair, Shuhe Wang, Renke Huang
  ----------------------------------------------------------------------------

  Size of Determinant class: 128 bits

  Preparing forte objects from a Psi4 Wavefunction object
  No reference wave function provided for Forte. Computing SCF orbitals using Psi4 ...

*** tstart() called on renke-mbp15.wireless.emory.edu
*** at Fri May  5 14:03:29 2023

   => Loading Basis Set <=

    Name: CC-PVDZ
    Role: ORBITAL
    Keyword: BASIS
    atoms 1-2 entry H          line    22 file /Users/renkehuang/source/psi4/objdir/stage/share/psi4/basis/cc-pvdz.gbs 


         ---------------------------------------------------------
                                   SCF
               by Justin Turney, Rob Parrish, Andy Simmonett
                          and Daniel G. A. Smith
                              RHF Reference
                        1 Threads,    500 MiB Core
         ---------------------------------------------------------

  ==> Geometry <==

    Molecular point group: d2h
    Full point group: D_inf_h

    Geometry (in Angstrom), charge = 0, multiplicity = 1:

       Center              X                  Y                   Z               Mass       
    ------------   -----------------  -----------------  -----------------  -----------------
         H            0.000000000000     0.000000000000    -0.350000000000     1.007825032230
         H            0.000000000000     0.000000000000     0.350000000000     1.007825032230

  Running in d2h symmetry.

  Rotational constants: A = ************  B =     68.27242  C =     68.27242 [cm^-1]
  Rotational constants: A = ************  B = 2046755.53664  C = 2046755.53664 [MHz]
  Nuclear repulsion =    0.755967443814286

  Charge       = 0
  Multiplicity = 1
  Electrons    = 2
  Nalpha       = 1
  Nbeta        = 1

  ==> Algorithm <==

  SCF Algorithm Type is PK.
  DIIS enabled.
  MOM disabled.
  Fractional occupation disabled.
  Guess Type is SAD.
  Energy threshold   = 1.00e-12
  Density threshold  = 1.00e-08
  Integral threshold = 1.00e-12

  ==> Primary Basis <==

  Basis Set: CC-PVDZ
    Blend: CC-PVDZ
    Number of shells: 6
    Number of basis functions: 10
    Number of Cartesian functions: 10
    Spherical Harmonics?: true
    Max angular momentum: 1

  ==> Integral Setup <==

  Using in-core PK algorithm.
   Calculation information:
      Number of atoms:                   2
      Number of AO shells:               6
      Number of primitives:             10
      Number of atomic orbitals:        10
      Number of basis functions:        10

      Integral cutoff                 1.00e-12
      Number of threads:                 1

  Performing in-core PK
  Using 3080 doubles for integral storage.
  We computed 231 shell quartets total.
  Whereas there are 231 unique shell quartets.

  ==> DiskJK: Disk-Based J/K Matrices <==

    J tasked:                  Yes
    K tasked:                  Yes
    wK tasked:                  No
    Memory [MiB]:              375
    Schwarz Cutoff:          1E-12

    OpenMP threads:              1

  Minimum eigenvalue in the overlap matrix is 6.4460149645E-02.
  Reciprocal condition number of the overlap matrix is 2.7296606011E-02.
    Using symmetric orthogonalization.

  ==> Pre-Iterations <==

  SCF Guess: Superposition of Atomic Densities via on-the-fly atomic UHF (no occupation information).

   -------------------------
    Irrep   Nso     Nmo    
   -------------------------
     Ag         3       3 
     B1g        0       0 
     B2g        1       1 
     B3g        1       1 
     Au         0       0 
     B1u        3       3 
     B2u        1       1 
     B3u        1       1 
   -------------------------
    Total      10      10
   -------------------------

  ==> Iterations <==

                        Total Energy        Delta E     RMS |[F,P]|

   @RHF iter SAD:    -0.84377146470516   -8.43771e-01   0.00000e+00 
   @RHF iter   1:    -1.12404776333444   -2.80276e-01   1.07807e-02 ADIIS/DIIS
   @RHF iter   2:    -1.12682912617525   -2.78136e-03   1.95941e-03 ADIIS/DIIS
   @RHF iter   3:    -1.12692456489430   -9.54387e-05   9.38746e-05 DIIS
   @RHF iter   4:    -1.12692469225421   -1.27360e-07   1.72031e-06 DIIS
   @RHF iter   5:    -1.12692469232735   -7.31415e-11   3.93495e-09 DIIS
   @RHF iter   6:    -1.12692469232736   -2.22045e-15   4.43504e-12 DIIS
  Energy and wave function converged.


  ==> Post-Iterations <==

    Orbital Energies [Eh]
    ---------------------

    Doubly Occupied:                                                      

       1Ag    -0.604819  

    Virtual:                                                              

       1B1u    0.204983     2Ag     0.469676     2B1u    0.967587  
       1B2u    1.297822     1B3u    1.297822     3Ag     1.994580  
       1B2g    2.070702     1B3g    2.070702     3B1u    3.883238  

    Final Occupation by Irrep:
             Ag   B1g   B2g   B3g    Au   B1u   B2u   B3u 
    DOCC [     1,    0,    0,    0,    0,    0,    0,    0 ]
    NA   [     1,    0,    0,    0,    0,    0,    0,    0 ]
    NB   [     1,    0,    0,    0,    0,    0,    0,    0 ]

  @RHF Final Energy:    -1.12692469232736

   => Energetics <=

    Nuclear Repulsion Energy =              0.7559674438142859
    One-Electron Energy =                  -2.5561468709736159
    Two-Electron Energy =                   0.6732547348319745
    Total Energy =                         -1.1269246923273557

Computation Completed


Properties will be evaluated at   0.000000,   0.000000,   0.000000 [a0]

Properties computed using the SCF density matrix


 Multipole Moments:

 ------------------------------------------------------------------------------------
     Multipole            Electronic (a.u.)      Nuclear  (a.u.)        Total (a.u.)
 ------------------------------------------------------------------------------------

 L = 1.  Multiply by 2.5417464519 to convert [e a0] to [Debye]
 Dipole X            :          0.0000000            0.0000000            0.0000000
 Dipole Y            :          0.0000000            0.0000000            0.0000000
 Dipole Z            :          0.0000000            0.0000000            0.0000000
 Magnitude           :                                                    0.0000000

 ------------------------------------------------------------------------------------

*** tstop() called on renke-mbp15.wireless.emory.edu at Fri May  5 14:03:30 2023
Module time:
	user time   =       0.66 seconds =       0.01 minutes
	system time =       0.09 seconds =       0.00 minutes
	total time  =          1 seconds =       0.02 minutes
Total time:
	user time   =       0.66 seconds =       0.01 minutes
	system time =       0.09 seconds =       0.00 minutes
	total time  =          1 seconds =       0.02 minutes

  Read options for space RESTRICTED_DOCC
  Read options for space ACTIVE
  Read options for space RESTRICTED_DOCC

  ==> MO Space Information <==

  -------------------------------------------------------------------------
                       Ag   B1g   B2g   B3g    Au   B1u   B2u   B3u   Sum
  -------------------------------------------------------------------------
    FROZEN_DOCC         0     0     0     0     0     0     0     0     0
    RESTRICTED_DOCC     0     0     0     0     0     0     0     0     0
    GAS1                1     0     0     0     0     1     0     0     2
    GAS2                0     0     0     0     0     0     0     0     0
    GAS3                0     0     0     0     0     0     0     0     0
    GAS4                0     0     0     0     0     0     0     0     0
    GAS5                0     0     0     0     0     0     0     0     0
    GAS6                0     0     0     0     0     0     0     0     0
    RESTRICTED_UOCC     2     0     1     1     0     2     1     1     8
    FROZEN_UOCC         0     0     0     0     0     0     0     0     0
    Total               3     0     1     1     0     3     1     1    10
  -------------------------------------------------------------------------   => Loading Basis Set <=

    Name: STO-3G
    Role: ORBITAL
    Keyword: MINAO_BASIS
    atoms 1-2 entry H          line    19 file /Users/renkehuang/source/psi4/objdir/stage/share/psi4/basis/sto-3g.gbs 


  Forte will use psi4 integrals

  ==> Primary Basis Set Summary <==

  Basis Set: CC-PVDZ
    Blend: CC-PVDZ
    Number of shells: 6
    Number of basis functions: 10
    Number of Cartesian functions: 10
    Spherical Harmonics?: true
    Max angular momentum: 1


  JK created using conventional PK integrals
  Using in-core PK algorithm.
   Calculation information:
      Number of atoms:                   2
      Number of AO shells:               6
      Number of primitives:             10
      Number of atomic orbitals:        10
      Number of basis functions:        10

      Integral cutoff                 1.00e-12
      Number of threads:                 1

  Performing in-core PK
  Using 3080 doubles for integral storage.
  We computed 231 shell quartets total.
  Whereas there are 231 unique shell quartets.

  ==> DiskJK: Disk-Based J/K Matrices <==

    J tasked:                  Yes
    K tasked:                  Yes
    wK tasked:                  No
    Memory [MiB]:              400
    Schwarz Cutoff:          1E-12

    OpenMP threads:              1



  ==> Integral Transformation <==

  Number of molecular orbitals:                         10
  Number of correlated molecular orbitals:              10
  Number of frozen occupied orbitals:                    0
  Number of frozen unoccupied orbitals:                  0
  Two-electron integral type:                 Conventional


  Computing Conventional Integrals	Presorting SO-basis two-electron integrals.
	Sorting File: SO Ints (nn|nn) nbuckets = 1
	Constructing frozen core operators
	Starting first half-transformation.
	Sorting half-transformed integrals.
	First half integral transformation complete.
	Starting second half-transformation.
	Two-electron integral transformation complete.

  Integral transformation done. 0.01021944 s
  Reading the two-electron integrals from disk
  Size of two-electron integrals:   0.000224 GB
  Timing for conventional integral transformation:            0.029 s.
  Timing for freezing core and virtual orbitals:              0.000 s.
  Timing for computing conventional integrals:                0.029 s.

  ==> Summary of Active Space Solver Input <==

    Irrep.  Multi.(2ms)      N
    --------------------------
       Ag      1  (  0)      1
    --------------------------
    N: number of roots
    ms: spin z component
    Total number of roots:   1
    --------------------------
External solver: save active space integrals to as_ints.json

                        --------------------------------
                          External Active Space Solver
                        --------------------------------


  ==> Energy Summary <==

    Multi.(2ms)  Irrep.  No.               Energy      <S^2>
    --------------------------------------------------------
       1  (  0)    Ag     0       -1.129181390402       n/a
    --------------------------------------------------------

  ==> Semicanonicalize Orbitals <==

    MIX INACTIVE ORBITALS   ...... FALSE
    MIX GAS ACTIVE ORBITALS ...... FALSE
    FROZEN_DOCC     ...  CANONICAL
    FROZEN_UOCC     ...  CANONICAL
    GAS1            ...  CANONICAL
    RESTRICTED_DOCC ...  CANONICAL
    RESTRICTED_UOCC ...  CANONICAL

    Off-Diag. Elements       Max           2-Norm
    ------------------------------------------------
    GAS1                 0.0000000000   0.0000000000
    RESTRICTED_UOCC      0.0003263893   0.0005082115
    ------------------------------------------------

    Canonicalization test failed

  Integrals are about to be updated.
  Computing Conventional Integrals	Presorting SO-basis two-electron integrals.
	Sorting File: SO Ints (nn|nn) nbuckets = 1
	Constructing frozen core operators
	Starting first half-transformation.
	Sorting half-transformed integrals.
	First half integral transformation complete.
	Starting second half-transformation.
	Two-electron integral transformation complete.

  Integral transformation done. 0.00944857 s
  Reading the two-electron integrals from disk
  Size of two-electron integrals:   0.000224 GB
  Timing for conventional integral transformation:            0.033 s.
  Timing for freezing core and virtual orbitals:              0.000 s.
  Integrals update took     0.033 s.
  Timing for orbital canonicalization:                        0.034 s.

  ==> Multireference Driven Similarity Renormalization Group <==

    Computing Fock matrix and cleaning JK ........... Done
    Reading DSRG options ............................ Done
    Setting ambit MO space .......................... Done
    Preparing tensors for density cumulants ......... Done
    Filling Fock matrix from ForteIntegrals ......... Done

              ----------------------------------------------------
                    MR-DSRG Second-Order Perturbation Theory
                Chenyang Li, Kevin Hannon, Francesco Evangelista
              ----------------------------------------------------

    References:
      u-DSRG-MRPT2:    J. Chem. Theory Comput. 2015, 11, 2097.
      (pr-)DSRG-MRPT2: J. Chem. Phys. 2017, 146, 124132.

  ==> Calculation Information <==

    int_type                                    CONVENTIONAL
    source operator                                 STANDARD
    reference relaxation                                ONCE
    state_type                                STATE-SPECIFIC
    form Hbar3                                         FALSE
    flow parameter                                 5.000e-01
    taylor expansion threshold                     1.000e-03
    intruder_tamp                                  1.000e-01
    ntamp                                                 15


  ==> Checking Semicanonical Orbitals <==

    Block             Fa Max         Fa Mean           Fb Max         Fb Mean
    -------------------------------------------------------------------------
    CORE        0.0000000000    0.0000000000     0.0000000000    0.0000000000
    VIRTUAL     0.0000000000    0.0000000000     0.0000000000    0.0000000000
    GAS1        0.0000000000    0.0000000000     0.0000000000    0.0000000000
    -------------------------------------------------------------------------
    Orbitals are semi-canonicalized.

  ==> Computing DSRG-MRPT2 ... <==

    Computing T2 amplitudes                  ...  Done. Timing        0.003803 s
    Computing T1 amplitudes                  ...  Done. Timing        0.005974 s
    Renormalizing two-electron integrals     ...  Done. Timing        0.001242 s
    Renormalizing Fock matrix elements       ...  Done. Timing        0.006399 s
    Computing <[F, T1]>                      ...  Done. Timing        0.003246 s
    Computing <[F, T2]>                      ...  Done. Timing        0.007905 s
    Computing <[V, T1]>                      ...  Done. Timing        0.008717 s
    Computing <[V, T2]> (C_2)^4              ...  Done. Timing        0.051802 s
    Computing <[V, T2]> C_4 (C_2)^2 HH       ...  Done. Timing        0.016473 s
    Computing <[V, T2]> C_4 (C_2)^2 PP       ...  Done. Timing        0.018752 s
    Computing <[V, T2]> C_4 (C_2)^2 PH       ...  Done. Timing        0.070707 s
    Computing <[V, T2]> C_6 C_2              ...  Done. Timing        0.023715 s

  ==> Excitation Amplitudes Summary <==

    Active Indices:    0    5 
    Largest T1 amplitudes for spin case A:
       i       a                  i       a                  i       a               
    --------------------------------------------------------------------------------
    [  5       6    ] 0.000101 [  0       1    ] 0.000055 [  0       2    ]-0.000034 
    [  5       7    ] 0.000017 
    --------------------------------------------------------------------------------
    Norm of T1A vector: (nonzero elements: 4)                     0.000120510799952.
    --------------------------------------------------------------------------------
    Largest T1 amplitudes for spin case B:
       _       _                  _       _                  _       _               
       i       a                  i       a                  i       a               
    --------------------------------------------------------------------------------
    [  5       6    ] 0.000101 [  0       1    ] 0.000055 [  0       2    ]-0.000034 
    [  5       7    ] 0.000017 
    --------------------------------------------------------------------------------
    Norm of T1B vector: (nonzero elements: 4)                     0.000120510799952.
    --------------------------------------------------------------------------------
    Largest T2 amplitudes for spin case AA:
       i   j   a   b              i   j   a   b              i   j   a   b           
    --------------------------------------------------------------------------------
    [  0   5   0   6]-0.023744 [  0   5   1   6]-0.023617 [  0   5   1   5]-0.023224 
    [  0   5   2   6] 0.014902 [  0   5   2   5] 0.009399 [  0   5   3   9] 0.007343 
    [  0   5   4   8] 0.007343 [  0   5   2   7] 0.003824 [  0   5   1   7]-0.000602 
    [  0   5   0   7]-0.000314 
    --------------------------------------------------------------------------------
    Norm of T2AA vector: (nonzero elements: 40)                   0.091525190041527.
    --------------------------------------------------------------------------------
    Largest T2 amplitudes for spin case AB:
           _       _                  _       _                  _       _           
       i   j   a   b              i   j   a   b              i   j   a   b           
    --------------------------------------------------------------------------------
    [  0   0   0   1]-0.065321 [  0   5   0   6]-0.045860 [  0   0   6   6]-0.038369 
    [  0   0   1   1]-0.035350 [  0   0   8   8]-0.032988 [  0   0   9   9]-0.032988 
    [  0   0   5   6]-0.026426 [  5   5   6   6]-0.026239 [  0   5   1   6]-0.022712 
    [  0   0   0   2] 0.020834 [  5   5   0   2]-0.016950 [  5   5   5   6]-0.015893 
    [  0   0   2   2]-0.014867 [  5   5   2   2]-0.013738 [  0   5   1   5]-0.012927 
    --------------------------------------------------------------------------------
    Norm of T2AB vector: (nonzero elements: 80)                   0.168170084659699.
    --------------------------------------------------------------------------------
    Largest T2 amplitudes for spin case BB:
       _   _   _   _              _   _   _   _              _   _   _   _           
       i   j   a   b              i   j   a   b              i   j   a   b           
    --------------------------------------------------------------------------------
    [  0   5   0   6]-0.023744 [  0   5   1   6]-0.023617 [  0   5   1   5]-0.023224 
    [  0   5   2   6] 0.014902 [  0   5   2   5] 0.009399 [  0   5   3   9] 0.007343 
    [  0   5   4   8] 0.007343 [  0   5   2   7] 0.003824 [  0   5   1   7]-0.000602 
    [  0   5   0   7]-0.000314 
    --------------------------------------------------------------------------------
    Norm of T2BB vector: (nonzero elements: 40)                   0.091525190041527.
    --------------------------------------------------------------------------------

  ==> Possible Intruders <==

    T1 amplitudes larger than 0.1000 for spin case A: NULL
    T1 amplitudes larger than 0.1000 for spin case B: NULL
    T2 amplitudes larger than 0.1000 for spin case AA: NULL
    T2 amplitudes larger than 0.1000 for spin case AB: NULL
    T2 amplitudes larger than 0.1000 for spin case BB: NULL

  ==> DSRG-MRPT2 Energy Summary <==

    E0 (reference)                 =     -1.129181390402433
    <[F, T1]>                      =     -0.000000029423301
    <[F, T2]>                      =     -0.000001283090089
    <[V, T1]>                      =     -0.000000286268613
    <[V, T2]> (C_2)^4              =     -0.024304562802958
    <[V, T2]> C_4 (C_2)^2 HH       =      0.000000000000000
    <[V, T2]> C_4 (C_2)^2 PP       =      0.001000024276417
    <[V, T2]> C_4 (C_2)^2 PH       =     -0.001219193218239
    <[V, T2]> C_6 C_2              =     -0.000051659626285
    <[V, T2]>                      =     -0.024575391371065
    DSRG-MRPT2 correlation energy  =     -0.024576990153068
    DSRG-MRPT2 total energy        =     -1.153758380555501
    max(T1)                        =      0.000100506507355
    max(T2)                        =      0.065320926540899
    ||T1||                         =      0.000170428007704
    ||T2||                         =      0.360386501303914

  Energy took      0.224 s


  ==> De-Normal-Order DSRG Transformed Hamiltonian <==

    Computing the scalar term                ... Done. Timing    0.004 s
    Computing the 1-body term                ... Done. Timing    0.002 s

  ==> Rotate DSRG Transformed Hamiltonian back to Original Basis <==

    Rotating 1-body term to original basis   ... Done. Timing    0.001 s
    Rotating 2-body term to original basis   ... Done. Timing    0.032 sExternal solver: save DSRG dressed integrals to dsrg_ints.json

  ==> Summary of Active Space Solver Input <==

    Irrep.  Multi.(2ms)      N
    --------------------------
       Ag      1  (  0)      1
    --------------------------
    N: number of roots
    ms: spin z component
    Total number of roots:   1
    --------------------------


  ==> String Lists <==

  Number of alpha electrons     = 1
  Number of beta electrons      = 1
  Number of alpha strings       = 2
  Number of beta strings        = 2
  Timing for strings        =      0.000 s
  Timing for NN strings     =      0.000 s
  Timing for VO strings     =      0.000 s
  Timing for OO strings     =      0.000 s
  Timing for VVOO strings   =      0.000 s
  Timing for 1-hole strings =      0.000 s
  Timing for 2-hole strings =      0.000 s
  Timing for 3-hole strings =      0.000 s
  Total timing              =      0.000 s

  ==> FCI Solver <==

    Number of determinants                           2
    Symmetry                                         0
    Multiplicity                                     1
    Number of roots                                  1
    Target root                                      0
    Trial vectors per root                          10

  Allocating memory for the Hamiltonian algorithm. Size: 2 x 1 x 1.   Memory: 0.000000 GB

  ==> FCI Initial Guess <==

  ---------------------------------------------
    Root            Energy     <S^2>   Spin
  ---------------------------------------------
      0       -1.153762971093  0.000  singlet
      1        0.066865403127  0.000  singlet
  ---------------------------------------------
  Timing for initial guess  =      0.000 s


  ==> Diagonalizing Hamiltonian <==

  Energy   convergence: 1.00e-12
  Residual convergence: 1.00e-06
  -----------------------------------------------------
    Iter.      Avg. Energy       Delta_E     Res. Norm
  -----------------------------------------------------
      1       -1.153762971093  -1.154e+00  +1.154e+00
      2       -1.153762971093  +0.000e+00  +4.441e-16
  -----------------------------------------------------
  The Davidson-Liu algorithm converged in 3 iterations.

  ==> Root No. 0 <==

    2 0     -0.99897818

    Total Energy:      -1.153762971093, <S^2>: -0.000000

  ==> Energy Summary <==

    Multi.(2ms)  Irrep.  No.               Energy      <S^2>
    --------------------------------------------------------
       1  (  0)    Ag     0       -1.153762971093  -0.000000
    --------------------------------------------------------

  => DSRG-MRPT2 Reference Relaxation Energy Summary <=

                         Fixed Ref. (a.u.)              Relaxed Ref. (a.u.)
           -------------------------------  -------------------------------
    Iter.          Total Energy      Delta          Total Energy      Delta
    -----------------------------------------------------------------------
        1       -1.153758380556 -1.154e+00       -1.153762971093 -1.154e+00
    -----------------------------------------------------------------------

  ==> Total Timings (s) for Computing Commutators <==

             [H1, T1]    [H1, T2]    [H2, T1]    [H2, T2]
    -----------------------------------------------------
    -> C0       0.003       0.008       0.009       0.182
    -> C1       0.003       0.021       0.015       0.339
    -> C2                   0.017       0.017       0.116
    -----------------------------------------------------


  Time to prepare integrals:        0.052 seconds
  Time to run job          :        0.901 seconds
  Total                    :        0.953 seconds
    DSRG-MRPT2 partial relaxed energy (external RDM)......................................PASSED

    Psi4 stopped on: Friday, 05 May 2023 02:03PM
    Psi4 wall time for execution: 0:00:02.29

*** Psi4 exiting successfully. Buy a developer a beer!
