
    -----------------------------------------------------------------------
          Psi4: An Open-Source Ab Initio Electronic Structure Package
                               Psi4 1.3a2.dev26 

                         Git: Rev {master} e20a281 


    R. M. Parrish, L. A. Burns, D. G. A. Smith, A. C. Simmonett,
    A. E. DePrince III, E. G. Hohenstein, U. Bozkaya, A. Yu. Sokolov,
    R. Di Remigio, R. M. Richard, J. F. Gonthier, A. M. James,
    H. R. McAlexander, A. Kumar, M. Saitow, X. Wang, B. P. Pritchard,
    P. Verma, H. F. Schaefer III, K. Patkowski, R. A. King, E. F. Valeev,
    F. A. Evangelista, J. M. Turney, T. D. Crawford, and C. D. Sherrill,
    J. Chem. Theory Comput. 13(7) pp 3185--3197 (2017).
    (doi: 10.1021/acs.jctc.7b00174)


                         Additional Contributions by
    P. Kraus, H. Kruse, M. H. Lechner, M. C. Schieber, and R. A. Shaw

    -----------------------------------------------------------------------


    Psi4 started on: Tuesday, 06 November 2018 09:50PM

    Process ID: 60184
    Host:       dhcp189-8.emerson.emory.edu
    PSIDATADIR: /Users/york/src/psi4new/psi4/share/psi4
    Memory:     500.0 MiB
    Threads:    1
    
  ==> Input File <==

--------------------------------------------------------------------------
#! Generated using commit GITCOMMIT

import forte

refmcscf   = -99.406065223640
refudsrg   = -99.498877580929829
refprdsrg  = -99.500379477238937
refrdsrg   = -99.500197312848783

memory 500 mb

molecule HF{
  0 1
  F
  H  1 R
  R = 1.50
}

set globals{
   basis                  3-21g
   reference              twocon
   e_convergence          8
   maxiter                100
   docc                   [3,0,1,1]
}

set mcscf{
   docc                   [2,0,1,1]
   socc                   [2,0,0,0]
   maxiter                1000
   level_shift            0.5
   d_convergence          10
   e_convergence          12
}

set forte{
   job_type               mrdsrg
   int_type               cholesky
   cholesky_tolerance     1e-4
   corr_level             ldsrg2
   frozen_docc            [1,0,0,0]
   restricted_docc        [1,0,1,1]
   active                 [2,0,0,0]
   root_sym               0
   nroot                  1
   dsrg_s                 1.0
   maxiter                100
   e_convergence          8
   dsrg_hbar_seq          true
   dsrg_nivo              true
   relax_ref              twice
}

Emcscf, wfn = energy('mcscf', return_wfn=True)
compare_values(refmcscf,get_variable("CURRENT ENERGY"),10,"MCSCF energy")

energy('forte', ref_wfn=wfn)
compare_values(refudsrg,get_variable("UNRELAXED ENERGY"),8,"MRDSRG unrelaxed energy")
compare_values(refprdsrg,get_variable("PARTIALLY RELAXED ENERGY"),8,"MRDSRG partially relaxed energy")
compare_values(refrdsrg,get_variable("RELAXED ENERGY"),8,"MRDSRG relaxed energy")
--------------------------------------------------------------------------

  Memory set to 476.837 MiB by Python driver.
   => Loading Basis Set <=

    Name: 3-21G
    Role: ORBITAL
    Keyword: BASIS
    atoms 1 entry F          line   101 file /Users/york/src/psi4new/psi4/share/psi4/basis/3-21g.gbs 
    atoms 2 entry H          line    21 file /Users/york/src/psi4new/psi4/share/psi4/basis/3-21g.gbs 


*** tstart() called on dhcp189-8.emerson.emory.edu
*** at Tue Nov  6 21:50:08 2018


         ------------------------------------------
           MCSCF: a self-consistent field program
            written by Francesco A. Evangelista
         ------------------------------------------

  MOs per irrep:                                      A1  A2  B1  B2 Total
  ----------------------------------------------------------------------------
  Total                                                7    0    2    2    11
  Doubly Occupied                                      2    0    1    1     4
  Active/Singly Occupied                               2    0    0    0     2
  ----------------------------------------------------------------------------

  Running an SCF calculation
  TWOCON MOs = [2 (A1),3 (A1)]

  Generated 66 pairs
  Distributed as [34 A1][4 A2][14 B1][14 B2]
  batch   0 pq = [       0,      34] index = [               0,             595]

  Allocated the PK matrix (595 elements) 
  Allocated the  K matrix (595 elements) 
  Reading the two-electron integrals to form PK and K ... 
  batch   0 ... done.


  =========================================================================================
         Cycle          Energy               D(Energy)            D(Density)            DIIS
  ===========================================================================================
  Setting level shift to 0.500 S
  @SCF    0      -90.711680138176     -90.711680138176       0.179571426993
    ci      = [ 0.00000000, 0.00000000]
    ci_grad = [ 0.00000000, 0.00000000]
  Setting level shift to 0.500 S
  @SCF    1      -99.209208290096      -8.497528151920       0.171539036662
    ci      = [ 0.00000000, 0.00000000]
    ci_grad = [ 0.00000000, 0.00000000]
  Setting level shift to 0.500 S
  @SCF    2      -99.181126225880       0.028082064215       0.014194650111
    ci      = [ 0.00000000, 0.00000000]
    ci_grad = [ 0.00000000, 0.00000000]
  Setting level shift to 0.500 S
  @SCF    3      -99.187147056378      -0.006020830498       0.007187093304
    ci      = [ 0.00000000, 0.00000000]
    ci_grad = [ 0.00000000, 0.00000000]
  Setting level shift to 0.500 S
  @SCF    4      -99.185505238746       0.001641817632       0.004582734282
    ci      = [ 0.00000000, 0.00000000]
    ci_grad = [ 0.00000000, 0.00000000]
  Setting level shift to 0.500 S
  @SCF    5      -99.188474395194      -0.002969156448       0.002877713567
    ci      = [ 0.00000000, 0.00000000]
    ci_grad = [ 0.00000000, 0.00000000]
  Setting level shift to 0.500 S
  @SCF    6      -99.186908015658       0.001566379537       0.001957181741
    ci      = [ 0.00000000, 0.00000000]
    ci_grad = [ 0.00000000, 0.00000000]
  Setting level shift to 0.500 S/E
  @SCF    7      -99.189018416397      -0.002110400739       0.001358833744
    ci      = [ 0.00000000, 0.00000000]
    ci_grad = [ 0.00000000, 0.00000000]
  Setting level shift to 0.500 S/E
  @SCF    8      -99.188321587265       0.000696829132       0.000571003453
    ci      = [ 0.00000000, 0.00000000]
    ci_grad = [ 0.00000000, 0.00000000]
  Setting level shift to 0.500 S/E
  @SCF    9      -99.188265995912       0.000055591352       0.000013369739
    ci      = [ 0.00000000, 0.00000000]
    ci_grad = [ 0.00000000, 0.00000000]
  Setting level shift to 0.500 S/E
  @SCF   10      -99.188257103781       0.000008892132       0.000002169527
    ci      = [-0.93934204, 0.34298182]
    ci_grad = [ 0.00000000, 0.00000000]
  Setting level shift to 0.500 S/E
  @SCF   11      -99.188255335433       0.000001768348       0.000000855765
    ci      = [-0.93934230, 0.34298111]
    ci_grad = [-0.00000152, 0.00000100]
  Setting level shift to 0.500 S/E
  @SCF   12      -99.188255068850       0.000000266583       0.000000113202
    ci      = [-0.93934223, 0.34298130]
    ci_grad = [-0.00000029,-0.00000001]
  Setting level shift to 0.500 S/E
  @SCF   13      -99.188257583891      -0.000002515042       0.000000557796
    ci      = [-0.93934249, 0.34298060]
    ci_grad = [ 0.00000250,-0.00000048]
  Setting level shift to 0.500 S/E
  @SCF   14      -99.188256442094       0.000001141797       0.000000350212
    ci      = [-0.93934242, 0.34298079]
    ci_grad = [-0.00000111, 0.00000029]
  Setting level shift to 0.500 S/E
  @SCF   15      -99.188256647610      -0.000000205516       0.000000028652
    ci      = [-0.93934243, 0.34298075]
    ci_grad = [ 0.00000020,-0.00000005]
  Setting level shift to 0.500 S/E
  @SCF   16      -99.188272219598      -0.000015571987       0.000001970923
    ci      = [-0.93934243, 0.34298075]
    ci_grad = [ 0.00001560,-0.00000267]
  Setting level shift to 0.500 S/E
  @SCF   17      -99.188250651916       0.000021567682       0.000002909252
    ci      = [-0.93934243, 0.34298075]
    ci_grad = [-0.00002006, 0.00000794]
  Setting level shift to 0.500 S/E
  @SCF   18      -99.338121751280      -0.149871099364       0.036391840947
    ci      = [-0.93934243, 0.34298075]
    ci_grad = [ 0.16012530, 0.02802378]
  Setting level shift to 0.500 S/E
  @SCF   19      -99.382222254159      -0.044100502880       0.017282268121
    ci      = [-0.93934243, 0.34298075]
    ci_grad = [ 0.05049211, 0.01325425]
  Setting level shift to 0.500 S/E
  @SCF   20      -99.390701242223      -0.008478988064       0.006387057079
    ci      = [-0.93934243, 0.34298075]
    ci_grad = [ 0.01846823, 0.03066260]
  Setting level shift to 0.500 S/E
  @SCF   21      -99.396313560851      -0.005612318628       0.005228732828
    ci      = [-0.93934243, 0.34298075]
    ci_grad = [ 0.01366243, 0.02392754]
  Setting level shift to 0.500 S/E
  @SCF   22      -99.401926327835      -0.005612766984       0.006534702139
    ci      = [-0.93934243, 0.34298075]
    ci_grad = [ 0.01346055, 0.02315755]
  Setting level shift to 0.500 S/E
  @SCF   23      -99.404359609559      -0.002433281724       0.004417717383
    ci      = [-0.93934243, 0.34298075]
    ci_grad = [ 0.00887264, 0.01884807]
  Setting level shift to 0.500 S/E
  @SCF   24      -99.405870291462      -0.001510681903       0.005264129063
    ci      = [-0.93934243, 0.34298075]
    ci_grad = [ 0.00790990, 0.01881699]
  Setting level shift to 0.500 S/E
  @SCF   25      -99.405927833285      -0.000057541822       0.000690372400
    ci      = [-0.93934243, 0.34298075]
    ci_grad = [ 0.00656544, 0.01937843]
  Setting level shift to 0.500 S/E
  @SCF   26      -99.405962481476      -0.000034648191       0.000462739471
    ci      = [-0.93934243, 0.34298075]
    ci_grad = [ 0.00660658, 0.01958740]
  Setting level shift to 0.500 S/E
  @SCF   27      -99.405975041833      -0.000012560358       0.000398214983
    ci      = [-0.93934243, 0.34298075]
    ci_grad = [ 0.00657727, 0.01956717]
  Setting level shift to 0.500 S/E
  @SCF   28      -99.405965394572       0.000009647261       0.000243880385
    ci      = [-0.94798049, 0.31832844]
    ci_grad = [ 0.00648583, 0.01934506]
  Setting level shift to 0.500 S/E
  @SCF   29      -99.405972667346      -0.000007272774       0.000130654592
    ci      = [-0.94802528, 0.31819502]
    ci_grad = [ 0.00004188, 0.00010193]
  Setting level shift to 0.500 S/E
  @SCF   30      -99.405974887487      -0.000002220141       0.000011460523
    ci      = [-0.94804257, 0.31814348]
    ci_grad = [ 0.00001562, 0.00003956]
  Setting level shift to 0.500 S/E
  @SCF   31      -99.405974062535       0.000000824952       0.000005015609
    ci      = [-0.94803621, 0.31816244]
    ci_grad = [-0.00000575,-0.00001455]
  Setting level shift to 0.500 S/E
  @SCF   32      -99.405991943305      -0.000017880770       0.000137892289
    ci      = [-0.94803621, 0.31816244]
    ci_grad = [ 0.00012965, 0.00033062]
  Setting level shift to 0.500 S/E
  @SCF   33      -99.406007360116      -0.000015416811       0.000143496643
    ci      = [-0.94803621, 0.31816244]
    ci_grad = [ 0.00023643, 0.00065799]
  Setting level shift to 0.500 S/E
  @SCF   34      -99.406041652868      -0.000034292752       0.000443585337
    ci      = [-0.94803621, 0.31816244]
    ci_grad = [ 0.00057366, 0.00161329]
  Setting level shift to 0.500 S/E
  @SCF   35      -99.406049028233      -0.000007375366       0.000160955312
    ci      = [-0.94884968, 0.31572819]
    ci_grad = [ 0.00064473, 0.00191423]
  Setting level shift to 0.500 S/E
  @SCF   36      -99.406062448737      -0.000013420503       0.000413469389
    ci      = [-0.94884968, 0.31572819]
    ci_grad = [ 0.00030373, 0.00087373]
  Setting level shift to 0.500 S/E
  @SCF   37      -99.406061952750       0.000000495987       0.000578632483
    ci      = [-0.94969892, 0.31316444]
    ci_grad = [ 0.00067069, 0.00203550]
  Setting level shift to 0.500 S/E
  @SCF   38      -99.406064526402      -0.000002573652       0.000402517109
    ci      = [-0.94931616, 0.31432280]
    ci_grad = [-0.00030080,-0.00091667]
  Setting level shift to 0.500 S/E
  @SCF   39      -99.406064792340      -0.000000265938       0.000249416800
    ci      = [-0.94953421, 0.31366348]
    ci_grad = [ 0.00017287, 0.00052248]
  Setting level shift to 0.500 S/E
  @SCF   40      -99.406065210159      -0.000000417819       0.000094216739
    ci      = [-0.94945275, 0.31390998]
    ci_grad = [-0.00006414,-0.00019532]
  Setting level shift to 0.500 S/E
  @SCF   41      -99.406065178827       0.000000031332       0.000019627187
    ci      = [-0.94946838, 0.31386270]
    ci_grad = [ 0.00001235, 0.00003746]
  Setting level shift to 0.500 S/E
  @SCF   42      -99.406065219436      -0.000000040609       0.000025997913
    ci      = [-0.94944611, 0.31393006]
    ci_grad = [-0.00001760,-0.00005335]
  Setting level shift to 0.500 S/E
  @SCF   43      -99.406065223523      -0.000000004087       0.000010944920
    ci      = [-0.94943813, 0.31395420]
    ci_grad = [-0.00000632,-0.00001911]
  Setting level shift to 0.500 S/E
  @SCF   44      -99.406065223492       0.000000000031       0.000000938478
    ci      = [-0.94943870, 0.31395248]
    ci_grad = [ 0.00000045, 0.00000136]
  Setting level shift to 0.500 S/E
  @SCF   45      -99.406065223633      -0.000000000141       0.000002021055
    ci      = [-0.94943701, 0.31395760]
    ci_grad = [-0.00000134,-0.00000405]
  Setting level shift to 0.500 S/E
  @SCF   46      -99.406065223637      -0.000000000003       0.000000408047
    ci      = [-0.94943714, 0.31395720]
    ci_grad = [ 0.00000010, 0.00000031]
  Setting level shift to 0.500 S/E
  @SCF   47      -99.406065223638      -0.000000000001       0.000000124993
    ci      = [-0.94943709, 0.31395734]
    ci_grad = [-0.00000004,-0.00000011]
  Setting level shift to 0.500 S/E
  @SCF   48      -99.406065223639      -0.000000000001       0.000000169006
    ci      = [-0.94943701, 0.31395758]
    ci_grad = [-0.00000006,-0.00000019]
  Setting level shift to 0.500 S/E
  @SCF   49      -99.406065223640      -0.000000000001       0.000000108802
    ci      = [-0.94943699, 0.31395764]
    ci_grad = [-0.00000001,-0.00000004]
  Setting level shift to 0.500 S/E
  @SCF   50      -99.406065223640       0.000000000000       0.000000061851
    ci      = [-0.94943696, 0.31395774]
    ci_grad = [-0.00000003,-0.00000008]
  Setting level shift to 0.500 S/E
  @SCF   51      -99.406065223640      -0.000000000000       0.000000011604
    ci      = [-0.94943696, 0.31395773]
    ci_grad = [ 0.00000000, 0.00000001]
  Setting level shift to 0.500 S/E
  @SCF   52      -99.406065223640      -0.000000000000       0.000000007888
    ci      = [-0.94943696, 0.31395774]
    ci_grad = [-0.00000000,-0.00000000]
  Setting level shift to 0.500 S/E
  @SCF   53      -99.406065223640       0.000000000000       0.000000010279
    ci      = [-0.94943697, 0.31395772]
    ci_grad = [ 0.00000001, 0.00000002]
  Setting level shift to 0.500 S/E
  @SCF   54      -99.406065223639       0.000000000000       0.000000003115
    ci      = [-0.94943696, 0.31395772]
    ci_grad = [-0.00000000,-0.00000000]
  Setting level shift to 0.500 S/E
  @SCF   55      -99.406065223640      -0.000000000000       0.000000005943
    ci      = [-0.94943697, 0.31395771]
    ci_grad = [ 0.00000000, 0.00000001]
  Setting level shift to 0.500 S/E
  @SCF   56      -99.406065223640      -0.000000000000       0.000000000629
    ci      = [-0.94943697, 0.31395771]
    ci_grad = [ 0.00000000, 0.00000000]
  Setting level shift to 0.500 S/E
  @SCF   57      -99.406065223640       0.000000000000       0.000000001170
    ci      = [-0.94943697, 0.31395771]
    ci_grad = [ 0.00000000, 0.00000000]
  Setting level shift to 0.500 S/E
  @SCF   58      -99.406065223640       0.000000000000       0.000000000386
    ci      = [-0.94943697, 0.31395771]
    ci_grad = [ 0.00000000, 0.00000000]
  Setting level shift to 0.500 S/E
  @SCF   59      -99.406065223639       0.000000000000       0.000000000973
    ci      = [-0.94943697, 0.31395771]
    ci_grad = [-0.00000000,-0.00000000]
  Setting level shift to 0.500 S/E
  @SCF   60      -99.406065223640      -0.000000000000       0.000000000193
    ci      = [-0.94943697, 0.31395771]
    ci_grad = [ 0.00000000, 0.00000000]
  Setting level shift to 0.500 S/E
  @SCF   61      -99.406065223639       0.000000000000       0.000000000279
    ci      = [-0.94943697, 0.31395771]
    ci_grad = [-0.00000000,-0.00000000]
  Setting level shift to 0.500 S/E
  @SCF   62      -99.406065223640      -0.000000000000       0.000000000036
    ci      = [-0.94943697, 0.31395771]
    ci_grad = [ 0.00000000, 0.00000000]
  Setting level shift to 0.500 S/E
  @SCF   63      -99.406065223640      -0.000000000000       0.000000000057
    ci      = [-0.94943697, 0.31395771]
    ci_grad = [-0.00000000,-0.00000000]
  Setting level shift to 0.500 S/E
  @SCF   64      -99.406065223640       0.000000000000       0.000000000034
    ci      = [-0.94943697, 0.31395771]
    ci_grad = [ 0.00000000, 0.00000000]
  =========================================================================================

      * SCF total energy   =     -99.406065223640


      CI coefficients  = [-0.949436969, 0.313957709]

  End of SCF
  MOs orthonormality check passed.

  Orbitals are canonicalized as:
  inactive (docc + uocc) : Fock(core)
  active   (actv)        : Fock(core)

  =========================================================================
  Eigenvalues (Eh)
  -------------------------------------------------------------------------
  Doubly occupied orbitals
      1    -26.175209  A1      2     -1.495695  A1      3     -0.623385  B1
      4     -0.623385  B2
  Active orbitals
      5     -0.510102  A1      6      0.074682  A1
  Unoccupied orbitals
      7      1.595133  A1      8      2.709370  B1      9      2.709370  B2
     10      2.796416  A1     11      3.870480  A1
  =========================================================================


  MCSCF Execution Completed.


*** tstop() called on dhcp189-8.emerson.emory.edu at Tue Nov  6 21:50:08 2018
Module time:
	user time   =       0.05 seconds =       0.00 minutes
	system time =       0.02 seconds =       0.00 minutes
	total time  =          0 seconds =       0.00 minutes
Total time:
	user time   =       0.05 seconds =       0.00 minutes
	system time =       0.02 seconds =       0.00 minutes
	total time  =          0 seconds =       0.00 minutes
	MCSCF energy......................................................PASSED
   => Loading Basis Set <=

    Name: STO-3G
    Role: ORBITAL
    Keyword: MINAO_BASIS
    atoms 1 entry F          line    91 file /Users/york/src/psi4new/psi4/share/psi4/basis/sto-3g.gbs 
    atoms 2 entry H          line    19 file /Users/york/src/psi4new/psi4/share/psi4/basis/sto-3g.gbs 


Reading options from the FORTE block
Calling plugin forte.so.



  Forte
  ----------------------------------------------------------------------------
  A suite of quantum chemistry methods for strongly correlated electrons

    git branch: dwsa-dsrg-pt - git commit: 84cccd4f

  Developed by:
    Francesco A. Evangelista, Chenyang Li, Kevin P. Hannon,
    Jeffrey B. Schriber, Tianyuan Zhang, Chenxi Cai
  ----------------------------------------------------------------------------

  Size of Determinant class: 16

  ==> MO Space Information <==

  Read options for space FROZEN_DOCC
  Read options for space RESTRICTED_DOCC
  Read options for space ACTIVE
  -------------------------------------------------
                       A1    A2    B1    B2   Sum
  -------------------------------------------------
    FROZEN_DOCC         1     0     0     0     1
    RESTRICTED_DOCC     1     0     1     1     3
    ACTIVE              2     0     0     0     2
    RESTRICTED_UOCC     3     0     1     1     5
    FROZEN_UOCC         0     0     0     0     0
    Total               7     0     2     2    11
  -------------------------------------------------

  ==> Integral Transformation <==

  Number of molecular orbitals:                    11
  Number of correlated molecular orbitals:         10
  Number of frozen occupied orbitals:               1
  Number of frozen unoccupied orbitals:             0
  Two-electron integral type:              Cholesky decomposition


  Computing the Cholesky Vectors 

  Computing CD Integrals               ......Done.
  Timing for cholesky transformation:                         0.012 s.
  Need 41.62 KB to store CD integrals in core

  Number of Cholesky vectors required for 1.000e-04 tolerance: 43
  Using in-core PK algorithm.
   Calculation information:
      Number of atoms:                   2
      Number of AO shells:               7
      Number of primitives:             12
      Number of atomic orbitals:        11
      Number of basis functions:        11

      Integral cutoff                 1.00e-12
      Number of threads:                 1

  Performing in-core PK
  Using 4422 doubles for integral storage.
  We computed 406 shell quartets total.
  Whereas there are 406 unique shell quartets.


  Frozen-core energy            -75.818535539737 a.u.
  Timing for frozen one-body operator:                        0.030 s.
  Resorting integrals after freezing core.
  Timing for freezing core and virtual orbitals:              0.030 s.
  Timing for computing Cholesky integrals:                    0.047 s.

                -----------------------------------------------
                  String-based Full Configuration Interaction
                          by Francesco A. Evangelista
                -----------------------------------------------

  Number of electrons: 10
  Charge: 0
  Multiplicity: 1
  Davidson subspace max dim: 8
  Davidson subspace min dim: 2
  M_s: 0

  ==> String Lists <==

  Number of alpha electrons     = 1
  Number of beta electrons      = 1
  Number of alpha strings       = 2
  Number of beta strings        = 2
  Timing for strings        =      0.000 s
  Timing for NN strings     =      0.000 s
  Timing for VO strings     =      0.000 s
  Timing for OO strings     =      0.000 s
  Timing for VVOO strings   =      0.000 s
  Timing for VOVO strings   =      0.000 s
  Timing for 1-hole strings =      0.000 s
  Timing for 2-hole strings =      0.000 s
  Timing for 3-hole strings =      0.000 s
  Total timing              =      0.000 s

  ==> FCI Solver <==

    Number of determinants                           4
    Symmetry                                         0
    Multiplicity                                     1
    Number of roots                                  1
    Target root                                      0
    Trial vectors per root                          10

  Allocating memory for the Hamiltonian algorithm. Size: 2 x 2 x 2.   Memory: 0.000000 GB

  ==> FCI Initial Guess <==

  ---------------------------------------------
    Root            Energy     <S^2>   Spin
  ---------------------------------------------
      0      -99.406062695553  0.000  singlet
      1      -99.266207742793  2.000  triplet
      2      -98.863145406967  0.000  singlet
      3      -98.545353132340  0.000  singlet
  ---------------------------------------------
  Timing for initial guess  =      0.000 s

  Projecting out root 1
  ==> Diagonalizing Hamiltonian <==

  ----------------------------------------
    Iter.      Avg. Energy       Delta_E
  ----------------------------------------
      1      -99.406062695553  -9.941e+01
      2      -99.406062695553  -1.421e-14
  ----------------------------------------
  The Davidson-Liu algorithm converged in 3 iterations.

  ==> Root No. 0 <==

    20     -0.94943631
    02      0.31395970

    Total Energy:       -99.406062695553118

  ==> Computing RDMs for Root No. 0 <==

    Timing for 1-RDM: 0.000 s
    Timing for 2-RDM: 0.000 s
    Timing for 3-RDM: 0.000 s

  ==> NATURAL ORBITALS <==

        1A1     1.802859      2A1     0.197141  


       -----------------------------------------------------------------
                            Semi-Canonical Orbitals
         Chenyang Li, Jeffrey B. Schriber and Francesco A. Evangelista
       -----------------------------------------------------------------

  Took 0.001866 s to build Fock matrix

  ==> Checking Fock Matrix Diagonal Blocks <==

    Off-Diag. Elements       Max           2-Norm
    ------------------------------------------------
    Fa actv              0.0348824640   0.0493312537
    Fb actv              0.0348824640   0.0493312537
    ------------------------------------------------
    Fa core              0.0000000000   0.0000000000
    Fb core              0.0000000000   0.0000000000
    ------------------------------------------------
    Fa virt              0.0000150723   0.0000239151
    Fb virt              0.0000150723   0.0000239151
    ------------------------------------------------

  ==> Integral Transformation to Semicanonical Basis <==

 Integrals are about to be computed.
  Computing the Cholesky Vectors 

  Computing CD Integrals               ......Done.
  Timing for cholesky transformation:                         0.012 s.
  Need 41.62 KB to store CD integrals in core

  Number of Cholesky vectors required for 1.000e-04 tolerance: 43

 Integrals are about to be updated.  Using in-core PK algorithm.
   Calculation information:
      Number of atoms:                   2
      Number of AO shells:               7
      Number of primitives:             12
      Number of atomic orbitals:        11
      Number of basis functions:        11

      Integral cutoff                 1.00e-12
      Number of threads:                 1

  Performing in-core PK
  Using 4422 doubles for integral storage.
  We computed 406 shell quartets total.
  Whereas there are 406 unique shell quartets.


  Frozen-core energy            -75.818535539737 a.u.
  Timing for frozen one-body operator:                        0.027 s.
  Resorting integrals after freezing core.
  Timing for freezing core and virtual orbitals:              0.027 s.

  ==> Reference Transformation to Semicanonical Basis <==

    Transformed 1 cumulants.
    Transformed 2 cumulants and RDMs.
    Transformed 3 cumulants.
  SemiCanonicalize takes 1.321560 s.

  ==> Multireference Driven Similarity Renormalization Group <==

    Reading DSRG options ............................ Done
    Setting ambit MO space .......................... Done
    Preparing tensors for density cumulants ......... Done
    Building Fock matrix ............................ Done
    Checking reference energy ....................... Done

           ----------------------------------------------------------
             Multireference Driven Similarity Renormalization Group
                                  Chenyang Li
           ----------------------------------------------------------

  Additional contributions by: Tianyuan Zhang

  ==> Density Cumulant Summary <==

    2-body             AA           AB           BB
    -----------------------------------------------
    max          0.088855     0.294746     0.088855
    norm         0.177709     0.457482     0.177709
    -----------------------------------------------
    3-body            AAA          AAB          ABB          BBB
    ------------------------------------------------------------
    max          0.000000     0.070835     0.070835     0.000000
    norm         0.000000     0.201773     0.201773     0.000000
    ------------------------------------------------------------

  ==> Checking Semicanonical Orbitals <==

    Abs. max of Fock core, active, virtual blocks (Fij, i != j)
                  core          active         virtual
    --------------------------------------------------
    Fα    0.0000000000    0.0000000000    0.0000150723
    Fβ    0.0000000000    0.0000000000    0.0000150723
    --------------------------------------------------

    1-Norm of Fock core, active, virtual blocks (Fij, i != j)
                  core          active         virtual
    --------------------------------------------------
    Fα    0.0000000000    0.0000000000    0.0000465924
    Fβ    0.0000000000    0.0000000000    0.0000465924
    --------------------------------------------------

    Orbitals are semi-canonicalized.

  ==> Calculation Information <==

    ntamp                                            15
    diis_min_vecs                                     2
    diis_max_vecs                                     5
    flow parameter                            1.000e+00
    taylor expansion threshold                1.000e-03
    intruder_tamp                             1.000e-01
    corr_level                                   LDSRG2
    int_type                                   CHOLESKY
    source operator                            STANDARD
    smart_dsrg_s                                 DSRG_S
    reference relaxation                          TWICE
    dsrg transformation type                    UNITARY
    core virtual source type                     NORMAL
    sequential dsrg transformation                 TRUE
    omit blocks of >= 3 virtual indices            TRUE


  ==> MR-DSRG Reference Relaxation Iter. 0 <==


  ==> Build Initial Amplitude from DSRG-MRPT2 <==

    Computing T2 amplitudes ...          Done. Timing      0.011 s
    Computing T1 amplitudes ...          Done. Timing      0.003 s

  ==> First-Order Excitation Amplitudes Summary <==

    Active Indices:    1    2 
    Largest T1 amplitudes for spin case A:
       i       a                  i       a                  i       a               
    --------------------------------------------------------------------------------
    [  2       4    ]-0.102482 [  2       3    ] 0.096229 [  0       1    ] 0.039642 
    [  1       4    ]-0.020487 [  1       3    ]-0.007567 [  0       2    ]-0.006770 
    [  2       5    ] 0.004896 [  1       5    ] 0.003080 [  6       7    ] 0.000314 
    [  8       9    ] 0.000314 [  0       3    ] 0.000098 [  0       5    ]-0.000032 
    [  0       4    ] 0.000024 
    --------------------------------------------------------------------------------
    Norm of T1A vector: (nonzero elements: 13)                    0.147954929345834.
    --------------------------------------------------------------------------------
    Largest T1 amplitudes for spin case B:
       _       _                  _       _                  _       _               
       i       a                  i       a                  i       a               
    --------------------------------------------------------------------------------
    [  2       4    ]-0.102482 [  2       3    ] 0.096229 [  0       1    ] 0.039642 
    [  1       4    ]-0.020487 [  1       3    ]-0.007567 [  0       2    ]-0.006770 
    [  2       5    ] 0.004896 [  1       5    ] 0.003080 [  6       7    ] 0.000314 
    [  8       9    ] 0.000314 [  0       3    ] 0.000098 [  0       5    ]-0.000032 
    [  0       4    ] 0.000024 
    --------------------------------------------------------------------------------
    Norm of T1B vector: (nonzero elements: 13)                    0.147954929345834.
    --------------------------------------------------------------------------------
    Largest T2 amplitudes for spin case AA:
       i   j   a   b              i   j   a   b              i   j   a   b           
    --------------------------------------------------------------------------------
    [  1   6   1   7]-0.046847 [  1   8   1   9]-0.046847 [  2   6   1   7]-0.045392 
    [  2   8   1   9]-0.045392 [  2   6   2   7]-0.036069 [  2   8   2   9]-0.036069 
    [  0   1   1   2] 0.034295 [  1   6   2   7]-0.030772 [  1   8   2   9]-0.030772 
    [  1   2   1   3] 0.024606 [  6   8   7   9]-0.024087 [  0   1   1   5]-0.021279 
    [  1   2   1   4]-0.019810 [  2   6   4   7]-0.019572 [  2   8   4   9]-0.019572 
    --------------------------------------------------------------------------------
    Norm of T2AA vector: (nonzero elements: 240)                  0.282243011190714.
    --------------------------------------------------------------------------------
    Largest T2 amplitudes for spin case AB:
           _       _                  _       _                  _       _           
       i   j   a   b              i   j   a   b              i   j   a   b           
    --------------------------------------------------------------------------------
    [  2   2   2   3] 0.075865 [  2   2   1   4]-0.074388 [  0   0   1   1]-0.060156 
    [  2   2   3   3]-0.051716 [  1   2   1   3] 0.050780 [  1   2   1   4]-0.050278 
    [  2   6   1   7]-0.050009 [  2   8   1   9]-0.050009 [  1   6   1   7]-0.048769 
    [  1   8   1   9]-0.048769 [  1   2   2   4]-0.046425 [  2   6   2   7]-0.039894 
    [  2   8   2   9]-0.039894 [  6   6   7   7]-0.036327 [  8   8   9   9]-0.036327 
    --------------------------------------------------------------------------------
    Norm of T2AB vector: (nonzero elements: 405)                  0.349804465664603.
    --------------------------------------------------------------------------------
    Largest T2 amplitudes for spin case BB:
       _   _   _   _              _   _   _   _              _   _   _   _           
       i   j   a   b              i   j   a   b              i   j   a   b           
    --------------------------------------------------------------------------------
    [  1   6   1   7]-0.046847 [  1   8   1   9]-0.046847 [  2   6   1   7]-0.045392 
    [  2   8   1   9]-0.045392 [  2   6   2   7]-0.036069 [  2   8   2   9]-0.036069 
    [  0   1   1   2] 0.034295 [  1   6   2   7]-0.030772 [  1   8   2   9]-0.030772 
    [  1   2   1   3] 0.024606 [  6   8   7   9]-0.024087 [  0   1   1   5]-0.021279 
    [  1   2   1   4]-0.019810 [  2   6   4   7]-0.019572 [  2   8   4   9]-0.019572 
    --------------------------------------------------------------------------------
    Norm of T2BB vector: (nonzero elements: 240)                  0.282243011190714.
    --------------------------------------------------------------------------------

  ==> Possible Intruders <==

    T1 amplitudes larger than 0.1000 for spin case A:
        Amplitude         Value                  Denominator              
    ----------------------------------------------------------------------
    [  2       4    ]   -0.10248212 (  0.076767 -   2.296426 =  -2.219658)
    ----------------------------------------------------------------------
    T1 amplitudes larger than 0.1000 for spin case B:
        Amplitude         Value                  Denominator              
    ----------------------------------------------------------------------
    [  2       4    ]   -0.10248212 (  0.076767 -   2.296426 =  -2.219658)
    ----------------------------------------------------------------------
    T2 amplitudes larger than 0.1000 for spin case AA: NULL
    T2 amplitudes larger than 0.1000 for spin case AB: NULL
    T2 amplitudes larger than 0.1000 for spin case BB: NULL

  ==> Computing MR-LDSRG(2) Energy <==

    Reference:
      J. Chem. Phys. 2016, 144, 164114.

                  Energy (a.u.)           Non-Diagonal Norm        Amplitude RMS         Timings (s)   
           ---------------------------  ---------------------  ---------------------  -----------------
    Iter.        Corr.         Delta       Hbar1      Hbar2        T1         T2        Hbar     Amp.  
    ---------------------------------------------------------------------------------------------------
        0   -0.089444203128 -8.944e-02   1.292e-01  6.365e-01   3.282e-02  1.665e-01    18.713    0.011
        1   -0.092338495740 -2.894e-03   1.330e-01  2.302e-01   1.421e-02  4.481e-02    20.009    0.010
        2   -0.092710577259 -3.721e-04   1.144e-01  1.609e-01   3.232e-03  1.428e-02    18.437    0.010
        3   -0.092828936978 -1.184e-04   1.166e-01  1.604e-01   1.483e-03  4.612e-03    19.765    0.010
        4   -0.092813151161  1.579e-05   1.154e-01  1.577e-01   4.342e-04  1.463e-03    18.305    0.010
        5   -0.092817469285 -4.318e-06   1.156e-01  1.582e-01   1.642e-04  4.650e-04    18.494    0.010 -> DIIS
        6   -0.092815057281  2.412e-06   1.155e-01  1.579e-01   4.699e-05  1.482e-04    18.509    0.010 -> DIIS
        7   -0.092814836781  2.205e-07   1.155e-01  1.580e-01   9.100e-07  5.027e-06    18.428    0.009 -> DIIS
        8   -0.092814891577 -5.480e-08   1.155e-01  1.580e-01   4.800e-07  1.340e-06    18.393    0.010 -> DIIS
        9   -0.092814886148  5.428e-09   1.155e-01  1.580e-01   7.454e-08  3.341e-07    18.341    0.011
    ---------------------------------------------------------------------------------------------------

  ==> MR-LDSRG(2) Energy Summary <==

    E0 (reference)                 =     -99.406062695553118
    MR-LDSRG(2) correlation energy =      -0.092814886148011
    MR-LDSRG(2) total energy       =     -99.498877581701123

  ==> Final Excitation Amplitudes Summary <==

    Active Indices:    1    2 
    Largest T1 amplitudes for spin case A:
       i       a                  i       a                  i       a               
    --------------------------------------------------------------------------------
    [  2       4    ]-0.090639 [  2       3    ] 0.088724 [  0       1    ] 0.048840 
    [  1       4    ]-0.014228 [  0       2    ]-0.010736 [  1       3    ]-0.005453 
    [  2       5    ] 0.002565 [  1       5    ] 0.002029 [  6       7    ] 0.000942 
    [  8       9    ] 0.000942 [  0       5    ]-0.000915 [  0       4    ] 0.000699 
    [  0       3    ]-0.000510 
    --------------------------------------------------------------------------------
    Norm of T1A vector: (nonzero elements: 13)                    0.137237269555682.
    --------------------------------------------------------------------------------
    Largest T1 amplitudes for spin case B:
       _       _                  _       _                  _       _               
       i       a                  i       a                  i       a               
    --------------------------------------------------------------------------------
    [  2       4    ]-0.090639 [  2       3    ] 0.088724 [  0       1    ] 0.048840 
    [  1       4    ]-0.014228 [  0       2    ]-0.010736 [  1       3    ]-0.005453 
    [  2       5    ] 0.002565 [  1       5    ] 0.002029 [  6       7    ] 0.000942 
    [  8       9    ] 0.000942 [  0       5    ]-0.000915 [  0       4    ] 0.000699 
    [  0       3    ]-0.000510 
    --------------------------------------------------------------------------------
    Norm of T1B vector: (nonzero elements: 13)                    0.137237269555682.
    --------------------------------------------------------------------------------
    Largest T2 amplitudes for spin case AA:
       i   j   a   b              i   j   a   b              i   j   a   b           
    --------------------------------------------------------------------------------
    [  0   1   1   2] 0.040491 [  1   6   1   7]-0.037739 [  1   8   1   9]-0.037739 
    [  2   8   1   9]-0.029470 [  2   6   1   7]-0.029470 [  1   6   2   7]-0.024582 
    [  1   8   2   9]-0.024582 [  2   6   2   7]-0.023832 [  2   8   2   9]-0.023832 
    [  6   8   7   9]-0.022886 [  1   2   1   3] 0.021349 [  0   2   1   2]-0.016760 
    [  0   1   1   5]-0.016226 [  1   2   2   3] 0.016008 [  1   8   4   9]-0.015873 
    --------------------------------------------------------------------------------
    Norm of T2AA vector: (nonzero elements: 240)                  0.225831797657985.
    --------------------------------------------------------------------------------
    Largest T2 amplitudes for spin case AB:
           _       _                  _       _                  _       _           
       i   j   a   b              i   j   a   b              i   j   a   b           
    --------------------------------------------------------------------------------
    [  0   0   1   1]-0.067264 [  2   2   2   3] 0.059105 [  1   2   1   3] 0.047923 
    [  8   8   9   9]-0.041493 [  6   6   7   7]-0.041493 [  1   6   1   7]-0.041218 
    [  1   8   1   9]-0.041218 [  0   0   1   2]-0.039050 [  2   2   3   3]-0.038755 
    [  2   6   1   7]-0.034893 [  2   8   1   9]-0.034893 [  2   2   1   4]-0.034474 
    [  6   8   7   9]-0.029908 [  2   8   2   9]-0.029483 [  2   6   2   7]-0.029483 
    --------------------------------------------------------------------------------
    Norm of T2AB vector: (nonzero elements: 405)                  0.297694410631960.
    --------------------------------------------------------------------------------
    Largest T2 amplitudes for spin case BB:
       _   _   _   _              _   _   _   _              _   _   _   _           
       i   j   a   b              i   j   a   b              i   j   a   b           
    --------------------------------------------------------------------------------
    [  0   1   1   2] 0.040491 [  1   8   1   9]-0.037739 [  1   6   1   7]-0.037739 
    [  2   8   1   9]-0.029470 [  2   6   1   7]-0.029470 [  1   6   2   7]-0.024582 
    [  1   8   2   9]-0.024582 [  2   8   2   9]-0.023832 [  2   6   2   7]-0.023832 
    [  6   8   7   9]-0.022886 [  1   2   1   3] 0.021349 [  0   2   1   2]-0.016760 
    [  0   1   1   5]-0.016226 [  1   2   2   3] 0.016008 [  1   8   4   9]-0.015873 
    --------------------------------------------------------------------------------
    Norm of T2BB vector: (nonzero elements: 240)                  0.225831797657985.
    --------------------------------------------------------------------------------

  ==> Possible Intruders <==

    T1 amplitudes larger than 0.1000 for spin case A: NULL
    T1 amplitudes larger than 0.1000 for spin case B: NULL
    T2 amplitudes larger than 0.1000 for spin case AA: NULL
    T2 amplitudes larger than 0.1000 for spin case AB: NULL
    T2 amplitudes larger than 0.1000 for spin case BB: NULL

  ==> De-Normal-Order DSRG Transformed Hamiltonian <==

    Computing the scalar term                ... Done. Timing    0.005 s
    Computing the 1-body term                ... Done. Timing    0.003 s

  ==> Rotate DSRG Transformed Hamiltonian back to Original Basis <==

    Rotating 1-body term to original basis   ... Done. Timing    0.000 s
    Rotating 2-body term to original basis   ... Done. Timing    0.012 s

                -----------------------------------------------
                  String-based Full Configuration Interaction
                          by Francesco A. Evangelista
                -----------------------------------------------

  Number of electrons: 10
  Charge: 0
  Multiplicity: 1
  Davidson subspace max dim: 8
  Davidson subspace min dim: 2
  M_s: 0

  ==> String Lists <==

  Number of alpha electrons     = 1
  Number of beta electrons      = 1
  Number of alpha strings       = 2
  Number of beta strings        = 2
  Timing for strings        =      0.000 s
  Timing for NN strings     =      0.000 s
  Timing for VO strings     =      0.000 s
  Timing for OO strings     =      0.000 s
  Timing for VVOO strings   =      0.000 s
  Timing for VOVO strings   =      0.000 s
  Timing for 1-hole strings =      0.000 s
  Timing for 2-hole strings =      0.000 s
  Timing for 3-hole strings =      0.000 s
  Total timing              =      0.000 s

  ==> FCI Solver <==

    Number of determinants                           4
    Symmetry                                         0
    Multiplicity                                     1
    Number of roots                                  1
    Target root                                      0
    Trial vectors per root                          10

  Allocating memory for the Hamiltonian algorithm. Size: 2 x 2 x 2.   Memory: 0.000000 GB

  ==> FCI Initial Guess <==

  ---------------------------------------------
    Root            Energy     <S^2>   Spin
  ---------------------------------------------
      0      -99.500379478002  0.000  singlet
      1      -99.367410162178  2.000  triplet
      2      -99.095462874464  0.000  singlet
      3      -98.770924119167  0.000  singlet
  ---------------------------------------------
  Timing for initial guess  =      0.000 s

  Projecting out root 1
  ==> Diagonalizing Hamiltonian <==

  ----------------------------------------
    Iter.      Avg. Energy       Delta_E
  ----------------------------------------
      1      -99.500379478002  -9.950e+01
      2      -99.500379478002  -1.421e-14
  ----------------------------------------
  The Davidson-Liu algorithm converged in 3 iterations.

  ==> Root No. 0 <==

    20      0.96300019
    02     -0.26815160

    Total Energy:       -99.500379478001818

  ==> Computing RDMs for Root No. 0 <==

    Timing for 1-RDM: 0.000 s
    Timing for 2-RDM: 0.000 s
    Timing for 3-RDM: 0.000 s

  ==> NATURAL ORBITALS <==

        1A1     1.855873      2A1     0.144127  

  The following reference rotation will make the new reference and integrals in the same basis.

  ==> Reference Transformation to Semicanonical Basis <==

    Transformed 1 cumulants.
    Transformed 2 cumulants and RDMs.
    Transformed 3 cumulants.

  ==> Semicanonicalize Orbitals <==

  Took 0.001766 s to build Fock matrix

  ==> Checking Fock Matrix Diagonal Blocks <==

    Off-Diag. Elements       Max           2-Norm
    ------------------------------------------------
    Fa actv              0.0040511989   0.0057292605
    Fb actv              0.0040511989   0.0057292605
    ------------------------------------------------
    Fa core              0.0000000000   0.0000000000
    Fb core              0.0000000000   0.0000000000
    ------------------------------------------------
    Fa virt              0.0020297351   0.0047440919
    Fb virt              0.0020297351   0.0047440919
    ------------------------------------------------

  ==> Integral Transformation to Semicanonical Basis <==

 Integrals are about to be computed.
  Computing the Cholesky Vectors 

  Computing CD Integrals               ......Done.
  Timing for cholesky transformation:                         0.012 s.
  Need 41.62 KB to store CD integrals in core

  Number of Cholesky vectors required for 1.000e-04 tolerance: 43

 Integrals are about to be updated.  Using in-core PK algorithm.
   Calculation information:
      Number of atoms:                   2
      Number of AO shells:               7
      Number of primitives:             12
      Number of atomic orbitals:        11
      Number of basis functions:        11

      Integral cutoff                 1.00e-12
      Number of threads:                 1

  Performing in-core PK
  Using 4422 doubles for integral storage.
  We computed 406 shell quartets total.
  Whereas there are 406 unique shell quartets.


  Frozen-core energy            -75.818535539737 a.u.
  Timing for frozen one-body operator:                        0.026 s.
  Resorting integrals after freezing core.
  Timing for freezing core and virtual orbitals:              0.027 s.

  ==> Reference Transformation to Semicanonical Basis <==

    Transformed 1 cumulants.
    Transformed 2 cumulants and RDMs.
    Transformed 3 cumulants.
  SemiCanonicalize takes 1.315972 s.

  ==> Density Cumulant Summary <==

    2-body             AA           AB           BB
    -----------------------------------------------
    max          0.066870     0.257509     0.066870
    norm         0.133740     0.389393     0.133740
    -----------------------------------------------
    3-body            AAA          AAB          ABB          BBB
    ------------------------------------------------------------
    max          0.000000     0.057074     0.057074     0.000000
    norm         0.000000     0.161878     0.161878     0.000000
    ------------------------------------------------------------

  Updated reference energy E0 =     -99.404150505600981

  ==> MR-DSRG Reference Relaxation Iter. 1 <==


  ==> Build Initial Amplitude from DSRG-MRPT2 <==

    Computing T2 amplitudes ...          Done. Timing      0.010 s
    Computing T1 amplitudes ...          Done. Timing      0.002 s

  ==> First-Order Excitation Amplitudes Summary <==

    Active Indices:    1    2 
    Largest T1 amplitudes for spin case A:
       i       a                  i       a                  i       a               
    --------------------------------------------------------------------------------
    [  2       4    ] 0.105135 [  2       3    ]-0.095037 [  0       1    ]-0.041036 
    [  1       4    ] 0.020373 [  1       3    ] 0.007333 [  0       2    ] 0.007245 
    [  2       5    ]-0.005490 [  1       5    ]-0.003148 [  8       9    ]-0.001857 
    [  6       7    ]-0.001857 [  0       5    ] 0.001075 [  0       4    ]-0.000078 
    [  0       3    ] 0.000077 
    --------------------------------------------------------------------------------
    Norm of T1A vector: (nonzero elements: 13)                    0.149461401365652.
    --------------------------------------------------------------------------------
    Largest T1 amplitudes for spin case B:
       _       _                  _       _                  _       _               
       i       a                  i       a                  i       a               
    --------------------------------------------------------------------------------
    [  2       4    ] 0.105135 [  2       3    ]-0.095037 [  0       1    ]-0.041036 
    [  1       4    ] 0.020373 [  1       3    ] 0.007333 [  0       2    ] 0.007245 
    [  2       5    ]-0.005490 [  1       5    ]-0.003148 [  8       9    ]-0.001857 
    [  6       7    ]-0.001857 [  0       5    ] 0.001075 [  0       4    ]-0.000078 
    [  0       3    ] 0.000077 
    --------------------------------------------------------------------------------
    Norm of T1B vector: (nonzero elements: 13)                    0.149461401365652.
    --------------------------------------------------------------------------------
    Largest T2 amplitudes for spin case AA:
       i   j   a   b              i   j   a   b              i   j   a   b           
    --------------------------------------------------------------------------------
    [  1   6   1   7]-0.046372 [  1   8   1   9]-0.046372 [  2   6   1   7]-0.045787 
    [  2   8   1   9]-0.045787 [  2   6   2   7]-0.036575 [  2   8   2   9]-0.036575 
    [  0   1   1   2]-0.034455 [  1   6   2   7]-0.030703 [  1   8   2   9]-0.030703 
    [  1   2   1   3]-0.024427 [  6   8   7   9]-0.024097 [  0   1   1   5]-0.021060 
    [  1   2   1   4] 0.019727 [  2   6   4   7] 0.019693 [  2   8   4   9] 0.019693 
    --------------------------------------------------------------------------------
    Norm of T2AA vector: (nonzero elements: 240)                  0.282519116305973.
    --------------------------------------------------------------------------------
    Largest T2 amplitudes for spin case AB:
           _       _                  _       _                  _       _           
       i   j   a   b              i   j   a   b              i   j   a   b           
    --------------------------------------------------------------------------------
    [  2   2   1   4] 0.075120 [  2   2   2   3]-0.074787 [  0   0   1   1]-0.060630 
    [  2   2   3   3]-0.052070 [  1   2   1   3]-0.050811 [  2   6   1   7]-0.050419 
    [  2   8   1   9]-0.050419 [  1   2   1   4] 0.049765 [  1   6   1   7]-0.048253 
    [  1   8   1   9]-0.048253 [  1   2   2   4] 0.046377 [  2   6   2   7]-0.040444 
    [  2   8   2   9]-0.040444 [  6   6   7   7]-0.036341 [  8   8   9   9]-0.036341 
    --------------------------------------------------------------------------------
    Norm of T2AB vector: (nonzero elements: 405)                  0.349793194731063.
    --------------------------------------------------------------------------------
    Largest T2 amplitudes for spin case BB:
       _   _   _   _              _   _   _   _              _   _   _   _           
       i   j   a   b              i   j   a   b              i   j   a   b           
    --------------------------------------------------------------------------------
    [  1   6   1   7]-0.046372 [  1   8   1   9]-0.046372 [  2   6   1   7]-0.045787 
    [  2   8   1   9]-0.045787 [  2   6   2   7]-0.036575 [  2   8   2   9]-0.036575 
    [  0   1   1   2]-0.034455 [  1   6   2   7]-0.030703 [  1   8   2   9]-0.030703 
    [  1   2   1   3]-0.024427 [  6   8   7   9]-0.024097 [  0   1   1   5]-0.021060 
    [  1   2   1   4] 0.019727 [  2   6   4   7] 0.019693 [  2   8   4   9] 0.019693 
    --------------------------------------------------------------------------------
    Norm of T2BB vector: (nonzero elements: 240)                  0.282519116305973.
    --------------------------------------------------------------------------------

  ==> Possible Intruders <==

    T1 amplitudes larger than 0.1000 for spin case A:
        Amplitude         Value                  Denominator              
    ----------------------------------------------------------------------
    [  2       4    ]    0.10513481 (  0.086375 -   2.310195 =  -2.223819)
    ----------------------------------------------------------------------
    T1 amplitudes larger than 0.1000 for spin case B:
        Amplitude         Value                  Denominator              
    ----------------------------------------------------------------------
    [  2       4    ]    0.10513481 (  0.086375 -   2.310195 =  -2.223819)
    ----------------------------------------------------------------------
    T2 amplitudes larger than 0.1000 for spin case AA: NULL
    T2 amplitudes larger than 0.1000 for spin case AB: NULL
    T2 amplitudes larger than 0.1000 for spin case BB: NULL

  ==> Computing MR-LDSRG(2) Energy <==

    Reference:
      J. Chem. Phys. 2016, 144, 164114.

                  Energy (a.u.)           Non-Diagonal Norm        Amplitude RMS         Timings (s)   
           ---------------------------  ---------------------  ---------------------  -----------------
    Iter.        Corr.         Delta       Hbar1      Hbar2        T1         T2        Hbar     Amp.  
    ---------------------------------------------------------------------------------------------------
        0   -0.092837955316 -9.284e-02   1.356e-01  6.426e-01   3.403e-02  1.692e-01    20.129    0.010
        1   -0.095580263647 -2.742e-03   1.367e-01  2.374e-01   1.408e-02  4.658e-02    20.007    0.010
        2   -0.095952026372 -3.718e-04   1.187e-01  1.647e-01   3.159e-03  1.485e-02    18.905    0.010
        3   -0.096055431792 -1.034e-04   1.208e-01  1.645e-01   1.469e-03  4.818e-03    20.273    0.010
        4   -0.096045301288  1.013e-05   1.197e-01  1.616e-01   4.317e-04  1.507e-03    18.994    0.010
        5   -0.096048713900 -3.413e-06   1.199e-01  1.621e-01   1.630e-04  4.760e-04    18.970    0.010 -> DIIS
        6   -0.096047045337  1.669e-06   1.198e-01  1.619e-01   4.625e-05  1.493e-04    19.138    0.010 -> DIIS
        7   -0.096046783865  2.615e-07   1.198e-01  1.619e-01   1.175e-06  5.418e-06    18.798    0.010 -> DIIS
        8   -0.096046817170 -3.330e-08   1.198e-01  1.619e-01   5.023e-07  1.431e-06    18.629    0.009 -> DIIS
        9   -0.096046808256  8.913e-09   1.198e-01  1.619e-01   8.257e-08  3.681e-07    18.206    0.010
    ---------------------------------------------------------------------------------------------------

  ==> MR-LDSRG(2) Energy Summary <==

    E0 (reference)                 =     -99.404150505600981
    MR-LDSRG(2) correlation energy =      -0.096046808256307
    MR-LDSRG(2) total energy       =     -99.500197313857285

  ==> Final Excitation Amplitudes Summary <==

    Active Indices:    1    2 
    Largest T1 amplitudes for spin case A:
       i       a                  i       a                  i       a               
    --------------------------------------------------------------------------------
    [  2       4    ] 0.092387 [  2       3    ]-0.087236 [  0       1    ]-0.050383 
    [  1       4    ] 0.014246 [  0       2    ] 0.010913 [  1       3    ] 0.005085 
    [  2       5    ]-0.002918 [  1       5    ]-0.002098 [  8       9    ]-0.000583 
    [  6       7    ]-0.000583 [  0       4    ] 0.000567 [  0       3    ]-0.000478 
    [  0       5    ]-0.000132 
    --------------------------------------------------------------------------------
    Norm of T1A vector: (nonzero elements: 13)                    0.138007032075223.
    --------------------------------------------------------------------------------
    Largest T1 amplitudes for spin case B:
       _       _                  _       _                  _       _               
       i       a                  i       a                  i       a               
    --------------------------------------------------------------------------------
    [  2       4    ] 0.092387 [  2       3    ]-0.087236 [  0       1    ]-0.050383 
    [  1       4    ] 0.014246 [  0       2    ] 0.010913 [  1       3    ] 0.005085 
    [  2       5    ]-0.002918 [  1       5    ]-0.002098 [  8       9    ]-0.000583 
    [  6       7    ]-0.000583 [  0       4    ] 0.000567 [  0       3    ]-0.000478 
    [  0       5    ]-0.000132 
    --------------------------------------------------------------------------------
    Norm of T1B vector: (nonzero elements: 13)                    0.138007032075223.
    --------------------------------------------------------------------------------
    Largest T2 amplitudes for spin case AA:
       i   j   a   b              i   j   a   b              i   j   a   b           
    --------------------------------------------------------------------------------
    [  0   1   1   2]-0.040585 [  1   6   1   7]-0.037336 [  1   8   1   9]-0.037336 
    [  2   8   1   9]-0.029486 [  2   6   1   7]-0.029486 [  1   6   2   7]-0.024630 
    [  1   8   2   9]-0.024630 [  2   8   2   9]-0.024097 [  2   6   2   7]-0.024097 
    [  6   8   7   9]-0.022865 [  1   2   1   3]-0.021203 [  0   2   1   2] 0.016448 
    [  1   2   2   3]-0.016319 [  0   1   1   5]-0.016052 [  1   8   4   9] 0.015775 
    --------------------------------------------------------------------------------
    Norm of T2AA vector: (nonzero elements: 240)                  0.225493988186296.
    --------------------------------------------------------------------------------
    Largest T2 amplitudes for spin case AB:
           _       _                  _       _                  _       _           
       i   j   a   b              i   j   a   b              i   j   a   b           
    --------------------------------------------------------------------------------
    [  0   0   1   1]-0.066529 [  2   2   2   3]-0.057695 [  1   2   1   3]-0.047479 
    [  6   6   7   7]-0.041484 [  8   8   9   9]-0.041484 [  1   6   1   7]-0.040758 
    [  1   8   1   9]-0.040758 [  0   0   1   2]-0.039172 [  2   2   3   3]-0.038493 
    [  2   6   1   7]-0.034838 [  2   8   1   9]-0.034838 [  2   2   1   4] 0.034464 
    [  6   8   7   9]-0.029893 [  2   6   2   7]-0.029801 [  2   8   2   9]-0.029801 
    --------------------------------------------------------------------------------
    Norm of T2AB vector: (nonzero elements: 405)                  0.296612100249420.
    --------------------------------------------------------------------------------
    Largest T2 amplitudes for spin case BB:
       _   _   _   _              _   _   _   _              _   _   _   _           
       i   j   a   b              i   j   a   b              i   j   a   b           
    --------------------------------------------------------------------------------
    [  0   1   1   2]-0.040585 [  1   6   1   7]-0.037336 [  1   8   1   9]-0.037336 
    [  2   8   1   9]-0.029486 [  2   6   1   7]-0.029486 [  1   6   2   7]-0.024630 
    [  1   8   2   9]-0.024630 [  2   8   2   9]-0.024097 [  2   6   2   7]-0.024097 
    [  6   8   7   9]-0.022865 [  1   2   1   3]-0.021203 [  0   2   1   2] 0.016448 
    [  1   2   2   3]-0.016319 [  0   1   1   5]-0.016052 [  1   8   4   9] 0.015775 
    --------------------------------------------------------------------------------
    Norm of T2BB vector: (nonzero elements: 240)                  0.225493988186296.
    --------------------------------------------------------------------------------

  ==> Possible Intruders <==

    T1 amplitudes larger than 0.1000 for spin case A: NULL
    T1 amplitudes larger than 0.1000 for spin case B: NULL
    T2 amplitudes larger than 0.1000 for spin case AA: NULL
    T2 amplitudes larger than 0.1000 for spin case AB: NULL
    T2 amplitudes larger than 0.1000 for spin case BB: NULL

  ==> De-Normal-Order DSRG Transformed Hamiltonian <==

    Computing the scalar term                ... Done. Timing    0.005 s
    Computing the 1-body term                ... Done. Timing    0.003 s

  ==> Rotate DSRG Transformed Hamiltonian back to Original Basis <==

    Rotating 1-body term to original basis   ... Done. Timing    0.000 s
    Rotating 2-body term to original basis   ... Done. Timing    0.012 s

                -----------------------------------------------
                  String-based Full Configuration Interaction
                          by Francesco A. Evangelista
                -----------------------------------------------

  Number of electrons: 10
  Charge: 0
  Multiplicity: 1
  Davidson subspace max dim: 8
  Davidson subspace min dim: 2
  M_s: 0

  ==> String Lists <==

  Number of alpha electrons     = 1
  Number of beta electrons      = 1
  Number of alpha strings       = 2
  Number of beta strings        = 2
  Timing for strings        =      0.000 s
  Timing for NN strings     =      0.000 s
  Timing for VO strings     =      0.000 s
  Timing for OO strings     =      0.000 s
  Timing for VVOO strings   =      0.000 s
  Timing for VOVO strings   =      0.000 s
  Timing for 1-hole strings =      0.000 s
  Timing for 2-hole strings =      0.000 s
  Timing for 3-hole strings =      0.000 s
  Total timing              =      0.000 s

  ==> FCI Solver <==

    Number of determinants                           4
    Symmetry                                         0
    Multiplicity                                     1
    Number of roots                                  1
    Target root                                      0
    Trial vectors per root                          10

  Allocating memory for the Hamiltonian algorithm. Size: 2 x 2 x 2.   Memory: 0.000000 GB

  ==> FCI Initial Guess <==

  ---------------------------------------------
    Root            Energy     <S^2>   Spin
  ---------------------------------------------
      0      -99.500197649426  0.000  singlet
      1      -99.366873494085  2.000  triplet
      2      -99.094278740450  0.000  singlet
      3      -98.769930994132  0.000  singlet
  ---------------------------------------------
  Timing for initial guess  =      0.000 s

  Projecting out root 1
  ==> Diagonalizing Hamiltonian <==

  ----------------------------------------
    Iter.      Avg. Energy       Delta_E
  ----------------------------------------
      1      -99.500197649426  -9.950e+01
      2      -99.500197649426  +0.000e+00
  ----------------------------------------
  The Davidson-Liu algorithm converged in 3 iterations.

  ==> Root No. 0 <==

    20     -0.96113777
    02      0.26541944

    Total Energy:       -99.500197649425616

  ==> Computing RDMs for Root No. 0 <==

    Timing for 1-RDM: 0.000 s
    Timing for 2-RDM: 0.000 s
    Timing for 3-RDM: 0.000 s

  ==> NATURAL ORBITALS <==

        1A1     1.856603      2A1     0.143397  

  The following reference rotation will make the new reference and integrals in the same basis.

  ==> Reference Transformation to Semicanonical Basis <==

    Transformed 1 cumulants.
    Transformed 2 cumulants and RDMs.
    Transformed 3 cumulants.

  ==> Semicanonicalize Orbitals <==

  Took 0.001708 s to build Fock matrix

  ==> Checking Fock Matrix Diagonal Blocks <==

    Off-Diag. Elements       Max           2-Norm
    ------------------------------------------------
    Fa actv              0.0000576976   0.0000815968
    Fb actv              0.0000576976   0.0000815968
    ------------------------------------------------
    Fa core              0.0000000000   0.0000000000
    Fb core              0.0000000000   0.0000000000
    ------------------------------------------------
    Fa virt              0.0000319947   0.0000734920
    Fb virt              0.0000319947   0.0000734920
    ------------------------------------------------
  Orbitals are already semicanonicalized.

  ==> Density Cumulant Summary <==

    2-body             AA           AB           BB
    -----------------------------------------------
    max          0.066558     0.256921     0.066558
    norm         0.133116     0.388375     0.133116
    -----------------------------------------------
    3-body            AAA          AAB          ABB          BBB
    ------------------------------------------------------------
    max          0.000000     0.056858     0.056858     0.000000
    norm         0.000000     0.161259     0.161259     0.000000
    ------------------------------------------------------------

  Updated reference energy E0 =     -99.404093084889411

  ==> MRDSRG Reference Relaxation Summary <==

                  Fixed Ref. (a.u.)               Relaxed Ref. (a.u.)      
           -------------------------------  -------------------------------
    Iter.      Total Energy        Delta        Total Energy        Delta  
    -----------------------------------------------------------------------
        0      -99.498877581701 -9.950e+01      -99.500379478002 -9.950e+01
        1      -99.500197313857 -1.320e-03      -99.500197649426  1.818e-04
    -----------------------------------------------------------------------
    MRDSRG Total Energy            =     -99.500197313857285
    MRDSRG Total Energy (relaxed)  =     -99.500197649425616


  ==> Total Timings (s) for Computing Commutators <==

             [H1, T1]    [H1, T2]    [H2, T1]    [H2, T2]
    -----------------------------------------------------
    -> C0       0.000       0.600       0.000      21.142
    -> C1       0.000       4.493       0.000     127.781
    -> C2                  14.772       0.000     240.409
    -----------------------------------------------------
	MRDSRG unrelaxed energy...........................................PASSED
	MRDSRG partially relaxed energy...................................PASSED
	MRDSRG relaxed energy.............................................PASSED

    Psi4 stopped on: Tuesday, 06 November 2018 09:57PM
    Psi4 wall time for execution: 0:07:02.14

*** Psi4 exiting successfully. Buy a developer a beer!
