
    -----------------------------------------------------------------------
          Psi4: An Open-Source Ab Initio Electronic Structure Package
                               Psi4 undefined 

                         Git: Rev {master} 4dde4d8 dirty


    D. G. A. Smith, L. A. Burns, A. C. Simmonett, R. M. Parrish,
    M. C. Schieber, R. Galvelis, P. Kraus, H. Kruse, R. Di Remigio,
    A. Alenaizan, A. M. James, S. Lehtola, J. P. Misiewicz, M. Scheurer,
    R. A. Shaw, J. B. Schriber, Y. Xie, Z. L. Glick, D. A. Sirianni,
    J. S. O'Brien, J. M. Waldrop, A. Kumar, E. G. Hohenstein,
    B. P. Pritchard, B. R. Brooks, H. F. Schaefer III, A. Yu. Sokolov,
    K. Patkowski, A. E. DePrince III, U. Bozkaya, R. A. King,
    F. A. Evangelista, J. M. Turney, T. D. Crawford, C. D. Sherrill,
    J. Chem. Phys. 152(18) 184108 (2020). https://doi.org/10.1063/5.0006002

                            Additional Code Authors
    E. T. Seidl, C. L. Janssen, E. F. Valeev, M. L. Leininger,
    J. F. Gonthier, R. M. Richard, H. R. McAlexander, M. Saitow, X. Wang,
    P. Verma, and M. H. Lechner

             Previous Authors, Complete List of Code Contributors,
                       and Citations for Specific Modules
    https://github.com/psi4/psi4/blob/master/codemeta.json
    https://github.com/psi4/psi4/graphs/contributors
    http://psicode.org/psi4manual/master/introduction.html#citing-psifour

    -----------------------------------------------------------------------


    Psi4 started on: Thursday, 10 December 2020 12:16PM

    Process ID: 15107
    Host:       Yorks-Mac.local
    PSIDATADIR: /Users/york/src/psi4new/psi4/share/psi4
    Memory:     500.0 MiB
    Threads:    1
    
  ==> Input File <==

--------------------------------------------------------------------------
import forte

refEcas = -108.578990567074172
refEopt = -108.581904286642313
refRe    =   2.143040291018850 # in Bohr

molecule N2p{
1 2
N
N 1 1.1
}

set {
basis         cc-pvdz
reference     rohf
maxiter       100
d_convergence 6
e_convergence 8
docc          [2,0,0,0,0,2,1,1]
socc          [1,0,0,0,0,0,0,0]
}

set findif{
points 5  # need this to match analytic result in high precision
}

set forte{
job_type             mcscf_two_step
frozen_docc          [0,0,0,0,0,0,0,0]
restricted_docc      [1,0,0,0,0,1,0,0]
active               [2,0,1,1,0,2,1,1]
casscf_ci_solver     fci
casscf_maxiter       100
casscf_e_convergence 8
casscf_g_convergence 8
}

# Assuming the starting geometry is close to the equilibrium,
# we can pass the Wavefunction of the starting geometry as the guess for MCSCF.

Ecas, ref_wfn = energy('forte', return_wfn=True)
compare_values(refEcas, Ecas, 7, "CASSCF(9e,8o)/cc-pVDZ on N2+ @ 1.1 A")

# here we run finite difference
Eopt, wfn = optimize('forte', return_wfn=True, ref_wfn=ref_wfn, dertype=0)
compare_values(refEopt, Eopt, 7, "CASSCF(9e,8o)/cc-pVDZ on N2+ @ Re")

mol = psi4.core.get_active_molecule()
mol.print_out()
bond = abs(mol.z(0) - mol.z(1))
print(f'bond: {bond:.15f}')
print(wfn.molecule().to_string(dtype='psi4', units='angstrom'))
compare_values(bond, refRe, 6, "CASSCF(9e,8o)/cc-pVDZ optimized bond length")
--------------------------------------------------------------------------

Scratch directory: /Users/york/scratch/psi4/

  Forte
  ----------------------------------------------------------------------------
  A suite of quantum chemistry methods for strongly correlated electrons

    git branch: mcscf_rotation_printing - git commit: 2ad462be

  Developed by:
    Francesco A. Evangelista, Chenyang Li, Kevin P. Hannon,
    Jeffrey B. Schriber, Tianyuan Zhang, Chenxi Cai,
    Nan He, Nicholas Stair, Shuhe Wang, Renke Huang
  ----------------------------------------------------------------------------

  Size of Determinant class: 256 bits
  Preparing forte objects from a psi4 Wavefunction object
  No reference wavefunction provided. Computing SCF orbitals with psi4

*** tstart() called on Yorks-Mac.local
*** at Thu Dec 10 12:16:43 2020

   => Loading Basis Set <=

    Name: CC-PVDZ
    Role: ORBITAL
    Keyword: BASIS
    atoms 1-2 entry N          line   168 file /Users/york/src/psi4new/psi4/share/psi4/basis/cc-pvdz.gbs 


         ---------------------------------------------------------
                                   SCF
               by Justin Turney, Rob Parrish, Andy Simmonett
                          and Daniel G. A. Smith
                             ROHF Reference
                        1 Threads,    500 MiB Core
         ---------------------------------------------------------

  ==> Geometry <==

    Molecular point group: d2h
    Full point group: D_inf_h

    Geometry (in Angstrom), charge = 1, multiplicity = 2:

       Center              X                  Y                   Z               Mass       
    ------------   -----------------  -----------------  -----------------  -----------------
         N            0.000000000000     0.000000000000    -0.550000000000    14.003074004430
         N            0.000000000000     0.000000000000     0.550000000000    14.003074004430

  Running in d2h symmetry.

  Rotational constants: A = ************  B =      1.98984  C =      1.98984 [cm^-1]
  Rotational constants: A = ************  B =  59653.84489  C =  59653.84489 [MHz]
  Nuclear repulsion =   23.572439384390908

  Charge       = 1
  Multiplicity = 2
  Electrons    = 13
  Nalpha       = 7
  Nbeta        = 6

  ==> Algorithm <==

  SCF Algorithm Type is PK.
  DIIS enabled.
  MOM disabled.
  Fractional occupation disabled.
  Guess Type is SAD.
  Energy threshold   = 1.00e-08
  Density threshold  = 1.00e-06
  Integral threshold = 1.00e-12

  ==> Primary Basis <==

  Basis Set: CC-PVDZ
    Blend: CC-PVDZ
    Number of shells: 12
    Number of basis function: 28
    Number of Cartesian functions: 30
    Spherical Harmonics?: true
    Max angular momentum: 2

  ==> Integral Setup <==

  Using in-core PK algorithm.
   Calculation information:
      Number of atoms:                   2
      Number of AO shells:              12
      Number of primitives:             44
      Number of atomic orbitals:        30
      Number of basis functions:        28

      Integral cutoff                 1.00e-12
      Number of threads:                 1

  Performing in-core PK
  Using 165242 doubles for integral storage.
  We computed 3081 shell quartets total.
  Whereas there are 3081 unique shell quartets.

  ==> DiskJK: Disk-Based J/K Matrices <==

    J tasked:                  Yes
    K tasked:                  Yes
    wK tasked:                  No
    Memory [MiB]:              375
    Schwarz Cutoff:          1E-12

    OpenMP threads:              1

  Minimum eigenvalue in the overlap matrix is 1.1767548982E-02.
  Reciprocal condition number of the overlap matrix is 4.1659319633E-03.
    Using symmetric orthogonalization.

  ==> Pre-Iterations <==

  SCF Guess: Superposition of Atomic Densities via on-the-fly atomic UHF (no occupation information).

   -------------------------
    Irrep   Nso     Nmo    
   -------------------------
     Ag         7       7 
     B1g        1       1 
     B2g        3       3 
     B3g        3       3 
     Au         1       1 
     B1u        7       7 
     B2u        3       3 
     B3u        3       3 
   -------------------------
    Total      28      28
   -------------------------

  ==> Iterations <==

                        Total Energy        Delta E     RMS |[F,P]|

   @ROHF iter SAD:  -108.07311788444413   -1.08073e+02   0.00000e+00 
   @ROHF iter   1:  -108.32467957604543   -2.51562e-01   1.92704e-02 DIIS
   @ROHF iter   2:  -108.36847698350489   -4.37974e-02   4.21310e-03 DIIS
   @ROHF iter   3:  -108.37057127240287   -2.09429e-03   9.10048e-04 DIIS
   @ROHF iter   4:  -108.37070937992634   -1.38108e-04   1.66418e-04 DIIS
   @ROHF iter   5:  -108.37071439047146   -5.01055e-06   1.46933e-05 DIIS
   @ROHF iter   6:  -108.37071441902761   -2.85561e-08   1.16803e-06 DIIS
   @ROHF iter   7:  -108.37071441923895   -2.11344e-10   1.37188e-07 DIIS
  Energy and wave function converged.


  ==> Post-Iterations <==

    Orbital Energies [Eh]
    ---------------------

    Doubly Occupied:                                                      

       1Ag   -16.193792     1B1u  -16.190838     2Ag    -1.907223  
       2B1u   -1.156324     1B2u   -1.036681     1B3u   -1.036681  

    Singly Occupied:                                                      

       3Ag    -0.829580  

    Virtual:                                                              

       1B2g   -0.235196     1B3g   -0.235196     3B1u    0.254535  
       4Ag     0.473358     2B3u    0.501763     2B2u    0.501763  
       5Ag     0.608338     2B3g    0.670010     2B2g    0.670010  
       4B1u    0.721632     5B1u    1.262578     1B1g    1.343223  
       6Ag     1.343223     3B3u    1.449153     3B2u    1.449153  
       1Au     1.880145     6B1u    1.880145     7Ag     2.440406  
       3B3g    2.560628     3B2g    2.560628     7B1u    2.830943  

    Final Occupation by Irrep:
             Ag   B1g   B2g   B3g    Au   B1u   B2u   B3u 
    DOCC [     2,    0,    0,    0,    0,    2,    1,    1 ]
    SOCC [     1,    0,    0,    0,    0,    0,    0,    0 ]

  @ROHF Final Energy:  -108.37071441923895

   => Energetics <=

    Nuclear Repulsion Energy =             23.5724393843909077
    One-Electron Energy =                -187.7146896774484333
    Two-Electron Energy =                  55.7715358738185785
    Total Energy =                       -108.3707144192389364

Computation Completed


Properties will be evaluated at   0.000000,   0.000000,   0.000000 [a0]

Properties computed using the SCF density matrix

  Nuclear Dipole Moment: [e a0]
     X:     0.0000      Y:     0.0000      Z:     0.0000

  Electronic Dipole Moment: [e a0]
     X:     0.0000      Y:     0.0000      Z:     0.0000

  Dipole Moment: [e a0]
     X:     0.0000      Y:     0.0000      Z:     0.0000     Total:     0.0000

  Dipole Moment: [D]
     X:     0.0000      Y:     0.0000      Z:     0.0000     Total:     0.0000


*** tstop() called on Yorks-Mac.local at Thu Dec 10 12:16:43 2020
Module time:
	user time   =       0.22 seconds =       0.00 minutes
	system time =       0.01 seconds =       0.00 minutes
	total time  =          0 seconds =       0.00 minutes
Total time:
	user time   =       0.22 seconds =       0.00 minutes
	system time =       0.01 seconds =       0.00 minutes
	total time  =          0 seconds =       0.00 minutes

  Read options for space FROZEN_DOCC
  Read options for space RESTRICTED_DOCC
  Read options for space ACTIVE
  Read options for space FROZEN_DOCC
  Read options for space RESTRICTED_DOCC

  ==> MO Space Information <==

  -------------------------------------------------------------------------
                       Ag   B1g   B2g   B3g    Au   B1u   B2u   B3u   Sum
  -------------------------------------------------------------------------
    FROZEN_DOCC         0     0     0     0     0     0     0     0     0
    RESTRICTED_DOCC     1     0     0     0     0     1     0     0     2
    GAS1                2     0     1     1     0     2     1     1     8
    GAS2                0     0     0     0     0     0     0     0     0
    GAS3                0     0     0     0     0     0     0     0     0
    GAS4                0     0     0     0     0     0     0     0     0
    GAS5                0     0     0     0     0     0     0     0     0
    GAS6                0     0     0     0     0     0     0     0     0
    RESTRICTED_UOCC     4     1     2     2     1     4     2     2    18
    FROZEN_UOCC         0     0     0     0     0     0     0     0     0
    Total               7     1     3     3     1     7     3     3    28
  -------------------------------------------------------------------------

  Forte Testing Orbital Orthonormality ...   => Loading Basis Set <=

    Name: CC-PVDZ
    Role: ORBITAL
    Keyword: BASIS
    atoms 1-2 entry N          line   168 file /Users/york/src/psi4new/psi4/share/psi4/basis/cc-pvdz.gbs 


  Done checking orbital orthonormality (OK).   => Loading Basis Set <=

    Name: STO-3G
    Role: ORBITAL
    Keyword: MINAO_BASIS
    atoms 1-2 entry N          line    71 file /Users/york/src/psi4new/psi4/share/psi4/basis/sto-3g.gbs 


  Forte will use psi4 integrals

  ==> Primary Basis Set Summary <==

  Basis Set: CC-PVDZ
    Blend: CC-PVDZ
    Number of shells: 12
    Number of basis function: 28
    Number of Cartesian functions: 30
    Spherical Harmonics?: true
    Max angular momentum: 2


  JK created using conventional PK integrals
  Using in-core PK algorithm.
   Calculation information:
      Number of atoms:                   2
      Number of AO shells:              12
      Number of primitives:             44
      Number of atomic orbitals:        30
      Number of basis functions:        28

      Integral cutoff                 1.00e-12
      Number of threads:                 1

  Performing in-core PK
  Using 165242 doubles for integral storage.
  We computed 3081 shell quartets total.
  Whereas there are 3081 unique shell quartets.

  ==> DiskJK: Disk-Based J/K Matrices <==

    J tasked:                  Yes
    K tasked:                  Yes
    wK tasked:                  No
    Memory [MiB]:              400
    Schwarz Cutoff:          1E-12

    OpenMP threads:              1



  ==> Integral Transformation <==

  Number of molecular orbitals:                         28
  Number of correlated molecular orbitals:              28
  Number of frozen occupied orbitals:                    0
  Number of frozen unoccupied orbitals:                  0
  Two-electron integral type:                 Conventional


  Skip integral allocation and transformation for AO-driven CASSCF.

          -----------------------------------------------------------
                  Multi-Configurational Self Consistent Field
                Two-Step Approximate Second-Order AO Algorithm
            written by Chenyang Li, Kevin P. Hannon, and Shuhe Wang
          -----------------------------------------------------------


  ==> Calculation Information <==

    Integral type                               CONVENTIONAL
    CI solver type                                       FCI
    Final orbital type                             CANONICAL
    Include internal rotations                         FALSE
    Debug printing                                     FALSE
    Energy convergence                             1.000e-08
    Gradient convergence                           1.000e-08
    Max value for rotation                         5.000e-01
    Printing level                                         1
    Max number of macro iterations                       100
    Max number of micro iterations                        50
    Min number of micro iterations                        15
    DIIS start                                             2
    Min DIIS vectors                                       2
    Max DIIS vectors                                       8
    Frequency of DIIS extrapolation                        1


  ==> Independent Orbital Rotations <==

    ORBITAL SPACES                       Ag   B1g   B2g   B3g    Au   B1u   B2u   B3u
    ---------------------------------------------------------------------------------
             ACTIVE / RESTRICTED_DOCC     2     0     0     0     0     2     0     0
    RESTRICTED_UOCC /          ACTIVE     8     0     2     2     0     8     2     2
    RESTRICTED_UOCC / RESTRICTED_DOCC     4     0     0     0     0     4     0     0
    ---------------------------------------------------------------------------------

  ==> Summary of Active Space Solver Input <==

    Irrep.  Multi.(2ms)      N
    --------------------------
       Ag      2  (  1)      1
    --------------------------
    N: number of roots
    ms: spin z component
    Total number of roots:   1
    --------------------------


  ==> Energy Summary <==

    Multi.(2ms)  Irrep.  No.               Energy
    ---------------------------------------------
       2  (  1)    Ag     0     -108.516650677175
    ---------------------------------------------

  ==> Optimizing Orbitals for Current RDMs <==

  L-BFGS Iter:  1; fx = -108.549076476247649; g_norm = 1.282843e-01; step = 5.244e-01
  L-BFGS Iter:  2; fx = -108.561104683650896; g_norm = 1.911050e-02; step = 1.000e+00
  L-BFGS Iter:  3; fx = -108.561846267325052; g_norm = 6.049808e-03; step = 1.000e+00
  L-BFGS Iter:  4; fx = -108.561855546509960; g_norm = 1.340614e-03; step = 1.000e+00
  L-BFGS Iter:  5; fx = -108.561855891207870; g_norm = 5.895299e-04; step = 1.000e+00
  L-BFGS Iter:  6; fx = -108.561855917976743; g_norm = 8.820567e-05; step = 1.000e+00
  L-BFGS Iter:  7; fx = -108.561855919695631; g_norm = 7.610386e-05; step = 1.000e+00
  L-BFGS Iter:  8; fx = -108.561855919897539; g_norm = 1.762741e-05; step = 1.000e+00
  L-BFGS Iter:  9; fx = -108.561855919926415; g_norm = 7.738451e-06; step = 1.000e+00

  ==> MCSCF Macro Iter. 1 <==

             Energy CI (  Delta E  )         Energy Opt. (  Delta E  )  E_OPT - E_CI   Orbital RMS  Micro  DIIS
     -108.516650677175 (-1.0852e+02)   -108.561855919926 (-1.0856e+02)   -4.5205e-02    1.2897e-06    9/Y

  ==> Summary of Active Space Solver Input <==

    Irrep.  Multi.(2ms)      N
    --------------------------
       Ag      2  (  1)      1
    --------------------------
    N: number of roots
    ms: spin z component
    Total number of roots:   1
    --------------------------


  ==> Energy Summary <==

    Multi.(2ms)  Irrep.  No.               Energy
    ---------------------------------------------
       2  (  1)    Ag     0     -108.578112060961
    ---------------------------------------------

  ==> Optimizing Orbitals for Current RDMs <==

  L-BFGS Iter:  1; fx = -108.578886118630265; g_norm = 9.285537e-03; step = 1.000e+00
  L-BFGS Iter:  2; fx = -108.578903363609214; g_norm = 1.680331e-03; step = 1.000e+00
  L-BFGS Iter:  3; fx = -108.578903720179696; g_norm = 3.855386e-04; step = 1.000e+00
  L-BFGS Iter:  4; fx = -108.578903729868500; g_norm = 4.895228e-05; step = 1.000e+00
  L-BFGS Iter:  5; fx = -108.578903730282263; g_norm = 3.671243e-05; step = 1.000e+00
  L-BFGS Iter:  6; fx = -108.578903730325351; g_norm = 4.563770e-06; step = 1.000e+00
  L-BFGS Iter:  7; fx = -108.578903730327568; g_norm = 1.182047e-06; step = 1.000e+00
  L-BFGS Iter:  8; fx = -108.578903730327696; g_norm = 1.419947e-07; step = 1.000e+00

  ==> MCSCF Macro Iter. 2 <==

             Energy CI (  Delta E  )         Energy Opt. (  Delta E  )  E_OPT - E_CI   Orbital RMS  Micro  DIIS
     -108.578112060961 (-6.1461e-02)   -108.578903730328 (-1.7048e-02)   -7.9167e-04    1.2795e-06    8/Y   S

  ==> Summary of Active Space Solver Input <==

    Irrep.  Multi.(2ms)      N
    --------------------------
       Ag      2  (  1)      1
    --------------------------
    N: number of roots
    ms: spin z component
    Total number of roots:   1
    --------------------------


  ==> Energy Summary <==

    Multi.(2ms)  Irrep.  No.               Energy
    ---------------------------------------------
       2  (  1)    Ag     0     -108.578979496287
    ---------------------------------------------

  ==> Optimizing Orbitals for Current RDMs <==

  L-BFGS Iter:  1; fx = -108.578988459346931; g_norm = 9.964203e-04; step = 1.000e+00
  L-BFGS Iter:  2; fx = -108.578988687252988; g_norm = 1.963083e-04; step = 1.000e+00
  L-BFGS Iter:  3; fx = -108.578988692941266; g_norm = 3.129396e-05; step = 1.000e+00
  L-BFGS Iter:  4; fx = -108.578988693097102; g_norm = 6.226968e-06; step = 1.000e+00
  L-BFGS Iter:  5; fx = -108.578988693100996; g_norm = 1.223218e-06; step = 1.000e+00
  L-BFGS Iter:  6; fx = -108.578988693101152; g_norm = 2.069392e-07; step = 1.000e+00

  ==> MCSCF Macro Iter. 3 <==

             Energy CI (  Delta E  )         Energy Opt. (  Delta E  )  E_OPT - E_CI   Orbital RMS  Micro  DIIS
     -108.578979496287 (-8.6744e-04)   -108.578988693101 (-8.4963e-05)   -9.1968e-06    3.3392e-08    6/Y   S

  ==> Summary of Active Space Solver Input <==

    Irrep.  Multi.(2ms)      N
    --------------------------
       Ag      2  (  1)      1
    --------------------------
    N: number of roots
    ms: spin z component
    Total number of roots:   1
    --------------------------


  ==> Energy Summary <==

    Multi.(2ms)  Irrep.  No.               Energy
    ---------------------------------------------
       2  (  1)    Ag     0     -108.578990205403
    ---------------------------------------------

  ==> Optimizing Orbitals for Current RDMs <==

  L-BFGS Iter:  1; fx = -108.578990485377034; g_norm = 1.779412e-04; step = 1.000e+00
  L-BFGS Iter:  2; fx = -108.578990492438351; g_norm = 3.724929e-05; step = 1.000e+00
  L-BFGS Iter:  3; fx = -108.578990492624087; g_norm = 6.832036e-06; step = 1.000e+00
  L-BFGS Iter:  4; fx = -108.578990492630680; g_norm = 1.291559e-06; step = 1.000e+00
  L-BFGS Iter:  5; fx = -108.578990492630837; g_norm = 3.863419e-07; step = 1.000e+00

  ==> MCSCF Macro Iter. 4 <==

             Energy CI (  Delta E  )         Energy Opt. (  Delta E  )  E_OPT - E_CI   Orbital RMS  Micro  DIIS
     -108.578990205403 (-1.0709e-05)   -108.578990492631 (-1.7995e-06)   -2.8723e-07    6.8039e-08    5/Y   S/E

  ==> Summary of Active Space Solver Input <==

    Irrep.  Multi.(2ms)      N
    --------------------------
       Ag      2  (  1)      1
    --------------------------
    N: number of roots
    ms: spin z component
    Total number of roots:   1
    --------------------------


  ==> Energy Summary <==

    Multi.(2ms)  Irrep.  No.               Energy
    ---------------------------------------------
       2  (  1)    Ag     0     -108.578990566774
    ---------------------------------------------

  ==> Optimizing Orbitals for Current RDMs <==

  L-BFGS Iter:  1; fx = -108.578990567011118; g_norm = 4.956017e-06; step = 1.000e+00
  L-BFGS Iter:  2; fx = -108.578990567020327; g_norm = 9.381090e-07; step = 1.000e+00
  L-BFGS Iter:  3; fx = -108.578990567020469; g_norm = 2.439749e-07; step = 1.000e+00
  L-BFGS Iter:  4; fx = -108.578990567020412; g_norm = 3.344383e-08; step = 1.000e+00

  ==> MCSCF Macro Iter. 5 <==

             Energy CI (  Delta E  )         Energy Opt. (  Delta E  )  E_OPT - E_CI   Orbital RMS  Micro  DIIS
     -108.578990566774 (-3.6137e-07)   -108.578990567020 (-7.4390e-08)   -2.4679e-10    6.7502e-08    4/Y   S/E

  ==> Summary of Active Space Solver Input <==

    Irrep.  Multi.(2ms)      N
    --------------------------
       Ag      2  (  1)      1
    --------------------------
    N: number of roots
    ms: spin z component
    Total number of roots:   1
    --------------------------


  ==> Energy Summary <==

    Multi.(2ms)  Irrep.  No.               Energy
    ---------------------------------------------
       2  (  1)    Ag     0     -108.578990567074
    ---------------------------------------------

  ==> Optimizing Orbitals for Current RDMs <==

  L-BFGS Iter:  1; fx = -108.578990567074143; g_norm = 1.622362e-07; step = 1.000e+00
  L-BFGS Iter:  2; fx = -108.578990567074129; g_norm = 2.796812e-08; step = 1.000e+00
  L-BFGS Iter:  3; fx = -108.578990567074186; g_norm = 1.610422e-08; step = 1.000e+00
  L-BFGS Iter:  4; fx = -108.578990567074143; g_norm = 1.387015e-09; step = 1.000e+00

  ==> MCSCF Macro Iter. 6 <==

             Energy CI (  Delta E  )         Energy Opt. (  Delta E  )  E_OPT - E_CI   Orbital RMS  Micro  DIIS
     -108.578990567074 (-3.0039e-10)   -108.578990567074 (-5.3731e-11)   -1.2790e-13    5.5362e-09    4/Y

  A miracle has come to pass: MCSCF iterations have converged!

  ==> MCSCF Iteration Summary <==

                      Energy CI                    Energy Orbital
           ------------------------------  ------------------------------
    Iter.        Total Energy       Delta        Total Energy       Delta  Orb. Grad.  Micro
    ----------------------------------------------------------------------------------------
       1    -108.516650677175  0.0000e+00   -108.561855919926  0.0000e+00  1.2897e-06     9
       2    -108.578112060961 -6.1461e-02   -108.578903730328 -1.7048e-02  1.2795e-06     8
       3    -108.578979496287 -8.6744e-04   -108.578988693101 -8.4963e-05  3.3392e-08     6
       4    -108.578990205403 -1.0709e-05   -108.578990492631 -1.7995e-06  6.8039e-08     5
       5    -108.578990566774 -3.6137e-07   -108.578990567020 -7.4390e-08  6.7502e-08     4
       6    -108.578990567074 -3.0039e-10   -108.578990567074 -5.3731e-11  5.5362e-09     4
    ----------------------------------------------------------------------------------------

       -----------------------------------------------------------------
                            Semi-Canonical Orbitals
         Chenyang Li, Jeffrey B. Schriber and Francesco A. Evangelista
       -----------------------------------------------------------------


  ==> Checking Fock Matrix Diagonal Blocks <==

    Off-Diag. Elements       Max           2-Norm
    ------------------------------------------------
    FROZEN_DOCC          0.0000000000   0.0000000000
    FROZEN_UOCC          0.0000000000   0.0000000000
    GAS1                 0.0302870719   0.0430951556
    GAS2                 0.0000000000   0.0000000000
    GAS3                 0.0000000000   0.0000000000
    GAS4                 0.0000000000   0.0000000000
    GAS5                 0.0000000000   0.0000000000
    GAS6                 0.0000000000   0.0000000000
    RESTRICTED_DOCC      0.0000000000   0.0000000000
    RESTRICTED_UOCC      0.2501284712   0.4166319688
    ------------------------------------------------
  Timing for semi-canonicalization:                           0.000 s.

  ==> Summary of Active Space Solver Input <==

    Irrep.  Multi.(2ms)      N
    --------------------------
       Ag      2  (  1)      1
    --------------------------
    N: number of roots
    ms: spin z component
    Total number of roots:   1
    --------------------------


  ==> String Lists <==

  Number of alpha electrons     = 5
  Number of beta electrons      = 4
  Number of alpha strings       = 56
  Number of beta strings        = 70
  Number of alpha strings (N-3) = 28
  Number of beta strings (N-3)  = 8
  Timing for strings        =      0.000 s
  Timing for NN strings     =      0.000 s
  Timing for VO strings     =      0.002 s
  Timing for OO strings     =      0.001 s
  Timing for VVOO strings   =      0.001 s
  Timing for VOVO strings   =      0.000 s
  Timing for 1-hole strings =      0.000 s
  Timing for 2-hole strings =      0.000 s
  Timing for 3-hole strings =      0.001 s
  Total timing              =      0.003 s

  ==> FCI Solver <==

    Number of determinants                         500
    Symmetry                                         0
    Multiplicity                                     2
    Number of roots                                  1
    Target root                                      0
    Trial vectors per root                          10

  Allocating memory for the Hamiltonian algorithm. Size: 2 x 12 x 12.   Memory: 0.000002 GB

  ==> FCI Initial Guess <==

  ---------------------------------------------
    Root            Energy     <S^2>   Spin
  ---------------------------------------------
      0     -108.481325529213  0.750  doublet
      1     -108.085885936665  3.750  quartet
      2     -108.035924834791  3.750  quartet
      3     -107.935112303929  0.750  doublet
      4     -107.930445823204  8.750  sextet
      5     -107.871473935590  0.750  doublet
      6     -107.827377218947  0.750  doublet
      7     -107.807181697302  3.750  quartet
      8     -107.758995599544  3.750  quartet
      9     -107.729651316191  0.750  doublet
     10     -107.696851435936  0.750  doublet
     11     -107.598049290370  0.750  doublet
     12     -107.586868537208  0.750  doublet
     13     -107.560038259888  0.750  doublet
     14     -107.405299171343  3.750  quartet
     15     -107.391920565758  0.750  doublet
     16     -107.388829372371  3.750  quartet
     17     -107.275450336512  0.750  doublet
     18     -107.269077967140  0.750  doublet
     19     -106.730210879746  0.750  doublet
  ---------------------------------------------
  Timing for initial guess  =      0.001 s

  Projecting out root 1
  Projecting out root 2
  Projecting out root 4
  Projecting out root 7
  Projecting out root 8
  Projecting out root 14
  Projecting out root 16

  ==> Diagonalizing Hamiltonian <==

  Energy   convergence: 1.00e-08
  Residual convergence: 1.00e-06
  -----------------------------------------------------
    Iter.      Avg. Energy       Delta_E     Res. Norm
  -----------------------------------------------------
      1     -108.481325529213  -1.085e+02  +4.488e-01
      2     -108.568890272460  -8.756e-02  +1.590e-01
      3     -108.576866636307  -7.976e-03  +7.701e-02
      4     -108.578676285676  -1.810e-03  +2.907e-02
      5     -108.578956387470  -2.801e-04  +1.066e-02
      6     -108.578987395024  -3.101e-05  +3.347e-03
      7     -108.578990246289  -2.851e-06  +9.934e-04
      8     -108.578990545906  -2.996e-07  +2.561e-04
      9     -108.578990565574  -1.967e-08  +6.651e-05
     10     -108.578990566867  -1.293e-09  +2.221e-05
     11     -108.578990567057  -1.900e-10  +7.104e-06
     12     -108.578990567072  -1.531e-11  +2.598e-06
     13     -108.578990567074  -1.634e-12  +1.176e-06
     14     -108.578990567074  -3.268e-13  +3.279e-07
  -----------------------------------------------------
  The Davidson-Liu algorithm converged in 15 iterations.

  ==> Root No. 0 <==

    2a 0 0 20 2 2     -0.93773598
    2a 2 0 20 2 0      0.12199418
    2a 0 2 20 0 2      0.12199418
    22 a 0 a0 2 b      0.11942692
    22 0 a a0 b 2     -0.11942692

    Total Energy:      -108.578990567074158

  ==> Energy Summary <==

    Multi.(2ms)  Irrep.  No.               Energy
    ---------------------------------------------
       2  (  1)    Ag     0     -108.578990567074
    ---------------------------------------------

  Time to prepare integrals:        0.049 seconds
  Time to run job          :        0.710 seconds
  Total                    :        0.710 seconds    CASSCF(9e,8o)/cc-pVDZ on N2+ @ 1.1 A..................................................PASSED

Scratch directory: /Users/york/scratch/psi4/
gradient() will perform gradient computation by finite difference of analytic energies.

         ----------------------------------------------------------
                                   FINDIF
                     R. A. King and Jonathon Misiewicz
         ---------------------------------------------------------

  Using finite-differences of energies to determine gradients.
    Generating geometries for use with 5-point formula.
    Displacement size will be 5.00e-03.
    Number of atoms is 2.
    Number of symmetric SALCs is 1.
    Translations projected? 1. Rotations projected? 1.
    Number of geometries (including reference) is 5.

  //>>>>>>>>>>>>>>>>>>>>>>>>>>>>>>>>>>>//
  //    Loading displacement 1 of 5    //
  //<<<<<<<<<<<<<<<<<<<<<<<<<<<<<<<<<<<//

Scratch directory: /Users/york/scratch/psi4/

  Forte
  ----------------------------------------------------------------------------
  A suite of quantum chemistry methods for strongly correlated electrons

    git branch: mcscf_rotation_printing - git commit: 2ad462be

  Developed by:
    Francesco A. Evangelista, Chenyang Li, Kevin P. Hannon,
    Jeffrey B. Schriber, Tianyuan Zhang, Chenxi Cai,
    Nan He, Nicholas Stair, Shuhe Wang, Renke Huang
  ----------------------------------------------------------------------------

  Size of Determinant class: 256 bits
  Preparing forte objects from a psi4 Wavefunction object
  Read options for space FROZEN_DOCC
  Read options for space RESTRICTED_DOCC
  Read options for space ACTIVE
  Read options for space FROZEN_DOCC
  Read options for space RESTRICTED_DOCC

  ==> MO Space Information <==

  -------------------------------------------------------------------------
                       Ag   B1g   B2g   B3g    Au   B1u   B2u   B3u   Sum
  -------------------------------------------------------------------------
    FROZEN_DOCC         0     0     0     0     0     0     0     0     0
    RESTRICTED_DOCC     1     0     0     0     0     1     0     0     2
    GAS1                2     0     1     1     0     2     1     1     8
    GAS2                0     0     0     0     0     0     0     0     0
    GAS3                0     0     0     0     0     0     0     0     0
    GAS4                0     0     0     0     0     0     0     0     0
    GAS5                0     0     0     0     0     0     0     0     0
    GAS6                0     0     0     0     0     0     0     0     0
    RESTRICTED_UOCC     4     1     2     2     1     4     2     2    18
    FROZEN_UOCC         0     0     0     0     0     0     0     0     0
    Total               7     1     3     3     1     7     3     3    28
  -------------------------------------------------------------------------

  Forte Testing Orbital Orthonormality ...   => Loading Basis Set <=

    Name: CC-PVDZ
    Role: ORBITAL
    Keyword: BASIS
    atoms 1-2 entry N          line   168 file /Users/york/src/psi4new/psi4/share/psi4/basis/cc-pvdz.gbs 


  Done checking orbital orthonormality (OK).   => Loading Basis Set <=

    Name: STO-3G
    Role: ORBITAL
    Keyword: MINAO_BASIS
    atoms 1-2 entry N          line    71 file /Users/york/src/psi4new/psi4/share/psi4/basis/sto-3g.gbs 


  Forte will use psi4 integrals

  ==> Primary Basis Set Summary <==

  Basis Set: CC-PVDZ
    Blend: CC-PVDZ
    Number of shells: 12
    Number of basis function: 28
    Number of Cartesian functions: 30
    Spherical Harmonics?: true
    Max angular momentum: 2


  JK created using conventional PK integrals
  Using in-core PK algorithm.
   Calculation information:
      Number of atoms:                   2
      Number of AO shells:              12
      Number of primitives:             44
      Number of atomic orbitals:        30
      Number of basis functions:        28

      Integral cutoff                 1.00e-12
      Number of threads:                 1

  Performing in-core PK
  Using 165242 doubles for integral storage.
  We computed 3081 shell quartets total.
  Whereas there are 3081 unique shell quartets.

  ==> DiskJK: Disk-Based J/K Matrices <==

    J tasked:                  Yes
    K tasked:                  Yes
    wK tasked:                  No
    Memory [MiB]:              400
    Schwarz Cutoff:          1E-12

    OpenMP threads:              1



  ==> Integral Transformation <==

  Number of molecular orbitals:                         28
  Number of correlated molecular orbitals:              28
  Number of frozen occupied orbitals:                    0
  Number of frozen unoccupied orbitals:                  0
  Two-electron integral type:                 Conventional


  Skip integral allocation and transformation for AO-driven CASSCF.

          -----------------------------------------------------------
                  Multi-Configurational Self Consistent Field
                Two-Step Approximate Second-Order AO Algorithm
            written by Chenyang Li, Kevin P. Hannon, and Shuhe Wang
          -----------------------------------------------------------


  ==> Calculation Information <==

    Integral type                               CONVENTIONAL
    CI solver type                                       FCI
    Final orbital type                             CANONICAL
    Include internal rotations                         FALSE
    Debug printing                                     FALSE
    Energy convergence                             1.000e-08
    Gradient convergence                           1.000e-08
    Max value for rotation                         5.000e-01
    Printing level                                         1
    Max number of macro iterations                       100
    Max number of micro iterations                        50
    Min number of micro iterations                        15
    DIIS start                                             2
    Min DIIS vectors                                       2
    Max DIIS vectors                                       8
    Frequency of DIIS extrapolation                        1


  ==> Independent Orbital Rotations <==

    ORBITAL SPACES                       Ag   B1g   B2g   B3g    Au   B1u   B2u   B3u
    ---------------------------------------------------------------------------------
             ACTIVE / RESTRICTED_DOCC     2     0     0     0     0     2     0     0
    RESTRICTED_UOCC /          ACTIVE     8     0     2     2     0     8     2     2
    RESTRICTED_UOCC / RESTRICTED_DOCC     4     0     0     0     0     4     0     0
    ---------------------------------------------------------------------------------

  ==> Summary of Active Space Solver Input <==

    Irrep.  Multi.(2ms)      N
    --------------------------
       Ag      2  (  1)      1
    --------------------------
    N: number of roots
    ms: spin z component
    Total number of roots:   1
    --------------------------


  ==> Energy Summary <==

    Multi.(2ms)  Irrep.  No.               Energy
    ---------------------------------------------
       2  (  1)    Ag     0     -108.578990567074
    ---------------------------------------------

  ==> Optimizing Orbitals for Current RDMs <==


  ==> MCSCF Macro Iter. 1 <==

             Energy CI (  Delta E  )         Energy Opt. (  Delta E  )  E_OPT - E_CI   Orbital RMS  Micro  DIIS
     -108.578990567074 (-1.0858e+02)   -108.578990567074 (-1.0858e+02)    0.0000e+00    7.7431e-09    0/Y

  ==> Summary of Active Space Solver Input <==

    Irrep.  Multi.(2ms)      N
    --------------------------
       Ag      2  (  1)      1
    --------------------------
    N: number of roots
    ms: spin z component
    Total number of roots:   1
    --------------------------


  ==> Energy Summary <==

    Multi.(2ms)  Irrep.  No.               Energy
    ---------------------------------------------
       2  (  1)    Ag     0     -108.578990567074
    ---------------------------------------------

  ==> Optimizing Orbitals for Current RDMs <==

  L-BFGS Iter:  1; fx = -108.578990567074200; g_norm = 1.400762e-08; step = 1.000e+00
  L-BFGS Iter:  2; fx = -108.578990567074158; g_norm = 2.627930e-09; step = 1.000e+00

  ==> MCSCF Macro Iter. 2 <==

             Energy CI (  Delta E  )         Energy Opt. (  Delta E  )  E_OPT - E_CI   Orbital RMS  Micro  DIIS
     -108.578990567074 ( 0.0000e+00)   -108.578990567074 ( 0.0000e+00)    0.0000e+00    7.6464e-09    2/Y   S

  ==> Summary of Active Space Solver Input <==

    Irrep.  Multi.(2ms)      N
    --------------------------
       Ag      2  (  1)      1
    --------------------------
    N: number of roots
    ms: spin z component
    Total number of roots:   1
    --------------------------


  ==> Energy Summary <==

    Multi.(2ms)  Irrep.  No.               Energy
    ---------------------------------------------
       2  (  1)    Ag     0     -108.578990567074
    ---------------------------------------------

  ==> Optimizing Orbitals for Current RDMs <==


  ==> MCSCF Macro Iter. 3 <==

             Energy CI (  Delta E  )         Energy Opt. (  Delta E  )  E_OPT - E_CI   Orbital RMS  Micro  DIIS
     -108.578990567074 (-1.4211e-13)   -108.578990567074 ( 0.0000e+00)    1.4211e-13    9.6403e-10    0/Y   S

  ==> Summary of Active Space Solver Input <==

    Irrep.  Multi.(2ms)      N
    --------------------------
       Ag      2  (  1)      1
    --------------------------
    N: number of roots
    ms: spin z component
    Total number of roots:   1
    --------------------------


  ==> Energy Summary <==

    Multi.(2ms)  Irrep.  No.               Energy
    ---------------------------------------------
       2  (  1)    Ag     0     -108.578990567074
    ---------------------------------------------

  ==> Optimizing Orbitals for Current RDMs <==


  ==> MCSCF Macro Iter. 4 <==

             Energy CI (  Delta E  )         Energy Opt. (  Delta E  )  E_OPT - E_CI   Orbital RMS  Micro  DIIS
     -108.578990567074 ( 0.0000e+00)   -108.578990567074 ( 0.0000e+00)    1.4211e-13    0.0000e+00    0/Y

  A miracle has come to pass: MCSCF iterations have converged!

  ==> MCSCF Iteration Summary <==

                      Energy CI                    Energy Orbital
           ------------------------------  ------------------------------
    Iter.        Total Energy       Delta        Total Energy       Delta  Orb. Grad.  Micro
    ----------------------------------------------------------------------------------------
       1    -108.578990567074  0.0000e+00   -108.578990567074  0.0000e+00  7.7431e-09     0
       2    -108.578990567074  0.0000e+00   -108.578990567074  0.0000e+00  7.6464e-09     2
       3    -108.578990567074 -1.4211e-13   -108.578990567074  0.0000e+00  9.6403e-10     0
       4    -108.578990567074  0.0000e+00   -108.578990567074  0.0000e+00  0.0000e+00     0
    ----------------------------------------------------------------------------------------

       -----------------------------------------------------------------
                            Semi-Canonical Orbitals
         Chenyang Li, Jeffrey B. Schriber and Francesco A. Evangelista
       -----------------------------------------------------------------


  ==> Checking Fock Matrix Diagonal Blocks <==

    Off-Diag. Elements       Max           2-Norm
    ------------------------------------------------
    FROZEN_DOCC          0.0000000000   0.0000000000
    FROZEN_UOCC          0.0000000000   0.0000000000
    GAS1                 0.0000000069   0.0000000098
    GAS2                 0.0000000000   0.0000000000
    GAS3                 0.0000000000   0.0000000000
    GAS4                 0.0000000000   0.0000000000
    GAS5                 0.0000000000   0.0000000000
    GAS6                 0.0000000000   0.0000000000
    RESTRICTED_DOCC      0.0000000000   0.0000000000
    RESTRICTED_UOCC      0.0000000236   0.0000000410
    ------------------------------------------------
  Orbitals are already semicanonicalized.

  ==> Summary of Active Space Solver Input <==

    Irrep.  Multi.(2ms)      N
    --------------------------
       Ag      2  (  1)      1
    --------------------------
    N: number of roots
    ms: spin z component
    Total number of roots:   1
    --------------------------


  ==> String Lists <==

  Number of alpha electrons     = 5
  Number of beta electrons      = 4
  Number of alpha strings       = 56
  Number of beta strings        = 70
  Number of alpha strings (N-3) = 28
  Number of beta strings (N-3)  = 8
  Timing for strings        =      0.000 s
  Timing for NN strings     =      0.000 s
  Timing for VO strings     =      0.002 s
  Timing for OO strings     =      0.001 s
  Timing for VVOO strings   =      0.001 s
  Timing for VOVO strings   =      0.000 s
  Timing for 1-hole strings =      0.000 s
  Timing for 2-hole strings =      0.000 s
  Timing for 3-hole strings =      0.001 s
  Total timing              =      0.003 s

  ==> FCI Solver <==

    Number of determinants                         500
    Symmetry                                         0
    Multiplicity                                     2
    Number of roots                                  1
    Target root                                      0
    Trial vectors per root                          10

  Allocating memory for the Hamiltonian algorithm. Size: 2 x 12 x 12.   Memory: 0.000002 GB

  ==> FCI Initial Guess <==

  ---------------------------------------------
    Root            Energy     <S^2>   Spin
  ---------------------------------------------
      0     -108.481325528607  0.750  doublet
      1     -108.085885920721  3.750  quartet
      2     -108.035924818395  3.750  quartet
      3     -107.935112291948  0.750  doublet
      4     -107.930445799327  8.750  sextet
      5     -107.871473919354  0.750  doublet
      6     -107.827377203028  0.750  doublet
      7     -107.807181672831  3.750  quartet
      8     -107.758995581814  3.750  quartet
      9     -107.729651292311  0.750  doublet
     10     -107.696851416581  0.750  doublet
     11     -107.598049264904  0.750  doublet
     12     -107.586868509232  0.750  doublet
     13     -107.560038250468  0.750  doublet
     14     -107.405299141625  3.750  quartet
     15     -107.391920539315  0.750  doublet
     16     -107.388829342569  3.750  quartet
     17     -107.275450310706  0.750  doublet
     18     -107.269077943834  0.750  doublet
     19     -106.730210845981  0.750  doublet
  ---------------------------------------------
  Timing for initial guess  =      0.001 s

  Projecting out root 1
  Projecting out root 2
  Projecting out root 4
  Projecting out root 7
  Projecting out root 8
  Projecting out root 14
  Projecting out root 16

  ==> Diagonalizing Hamiltonian <==

  Energy   convergence: 1.00e-08
  Residual convergence: 1.00e-06
  -----------------------------------------------------
    Iter.      Avg. Energy       Delta_E     Res. Norm
  -----------------------------------------------------
      1     -108.481325528607  -1.085e+02  +4.488e-01
      2     -108.568890272283  -8.756e-02  +1.590e-01
      3     -108.576866636222  -7.976e-03  +7.701e-02
      4     -108.578676285679  -1.810e-03  +2.907e-02
      5     -108.578956387471  -2.801e-04  +1.066e-02
      6     -108.578987395024  -3.101e-05  +3.347e-03
      7     -108.578990246290  -2.851e-06  +9.934e-04
      8     -108.578990545907  -2.996e-07  +2.561e-04
      9     -108.578990565574  -1.967e-08  +6.651e-05
     10     -108.578990566867  -1.293e-09  +2.221e-05
     11     -108.578990567057  -1.900e-10  +7.104e-06
     12     -108.578990567072  -1.533e-11  +2.598e-06
     13     -108.578990567074  -1.606e-12  +1.176e-06
     14     -108.578990567074  -3.837e-13  +3.279e-07
  -----------------------------------------------------
  The Davidson-Liu algorithm converged in 15 iterations.

  ==> Root No. 0 <==

    2a 0 0 20 2 2     -0.93773599
    2a 2 0 20 2 0      0.12199418
    2a 0 2 20 0 2      0.12199418
    22 0 a a0 b 2     -0.11942692
    22 a 0 a0 2 b      0.11942692

    Total Energy:      -108.578990567074300

  ==> Energy Summary <==

    Multi.(2ms)  Irrep.  No.               Energy
    ---------------------------------------------
       2  (  1)    Ag     0     -108.578990567074
    ---------------------------------------------

  Time to prepare integrals:        0.047 seconds
  Time to run job          :        0.156 seconds
  Total                    :        0.156 seconds
  //>>>>>>>>>>>>>>>>>>>>>>>>>>>>>>>>>>>//
  //    Loading displacement 2 of 5    //
  //<<<<<<<<<<<<<<<<<<<<<<<<<<<<<<<<<<<//

Scratch directory: /Users/york/scratch/psi4/

  Forte
  ----------------------------------------------------------------------------
  A suite of quantum chemistry methods for strongly correlated electrons

    git branch: mcscf_rotation_printing - git commit: 2ad462be

  Developed by:
    Francesco A. Evangelista, Chenyang Li, Kevin P. Hannon,
    Jeffrey B. Schriber, Tianyuan Zhang, Chenxi Cai,
    Nan He, Nicholas Stair, Shuhe Wang, Renke Huang
  ----------------------------------------------------------------------------

  Size of Determinant class: 256 bits
  Preparing forte objects from a psi4 Wavefunction object
  Read options for space FROZEN_DOCC
  Read options for space RESTRICTED_DOCC
  Read options for space ACTIVE
  Read options for space FROZEN_DOCC
  Read options for space RESTRICTED_DOCC

  ==> MO Space Information <==

  -------------------------------------------------------------------------
                       Ag   B1g   B2g   B3g    Au   B1u   B2u   B3u   Sum
  -------------------------------------------------------------------------
    FROZEN_DOCC         0     0     0     0     0     0     0     0     0
    RESTRICTED_DOCC     1     0     0     0     0     1     0     0     2
    GAS1                2     0     1     1     0     2     1     1     8
    GAS2                0     0     0     0     0     0     0     0     0
    GAS3                0     0     0     0     0     0     0     0     0
    GAS4                0     0     0     0     0     0     0     0     0
    GAS5                0     0     0     0     0     0     0     0     0
    GAS6                0     0     0     0     0     0     0     0     0
    RESTRICTED_UOCC     4     1     2     2     1     4     2     2    18
    FROZEN_UOCC         0     0     0     0     0     0     0     0     0
    Total               7     1     3     3     1     7     3     3    28
  -------------------------------------------------------------------------

  Forte Testing Orbital Orthonormality ...   => Loading Basis Set <=

    Name: CC-PVDZ
    Role: ORBITAL
    Keyword: BASIS
    atoms 1-2 entry N          line   168 file /Users/york/src/psi4new/psi4/share/psi4/basis/cc-pvdz.gbs 


  Forte Warning: Orbitals of ref_wfn NOT from current geometry!!!
  Max value of MO overlap: 0.010866569597247
  Perform new SCF at current geometry ...

*** tstart() called on Yorks-Mac.local
*** at Thu Dec 10 12:16:44 2020

   => Loading Basis Set <=

    Name: CC-PVDZ
    Role: ORBITAL
    Keyword: BASIS
    atoms 1-2 entry N          line   168 file /Users/york/src/psi4new/psi4/share/psi4/basis/cc-pvdz.gbs 


         ---------------------------------------------------------
                                   SCF
               by Justin Turney, Rob Parrish, Andy Simmonett
                          and Daniel G. A. Smith
                             ROHF Reference
                        1 Threads,    500 MiB Core
         ---------------------------------------------------------

  ==> Geometry <==

    Molecular point group: d2h
    Full point group: D_inf_h

    Geometry (in Angstrom), charge = 1, multiplicity = 2:

       Center              X                  Y                   Z               Mass       
    ------------   -----------------  -----------------  -----------------  -----------------
         N            0.000000000000     0.000000000000    -0.550999941154    14.003074004430
         N            0.000000000000     0.000000000000     0.550999941154    14.003074004430

  Running in d2h symmetry.

  Rotational constants: A = ************  B =      1.98262  C =      1.98262 [cm^-1]
  Rotational constants: A = ************  B =  59437.52470  C =  59437.52470 [MHz]
  Nuclear repulsion =   23.529660700602101

  Charge       = 1
  Multiplicity = 2
  Electrons    = 13
  Nalpha       = 7
  Nbeta        = 6

  ==> Algorithm <==

  SCF Algorithm Type is PK.
  DIIS enabled.
  MOM disabled.
  Fractional occupation disabled.
  Guess Type is SAD.
  Energy threshold   = 1.00e-08
  Density threshold  = 1.00e-06
  Integral threshold = 1.00e-12

  ==> Primary Basis <==

  Basis Set: CC-PVDZ
    Blend: CC-PVDZ
    Number of shells: 12
    Number of basis function: 28
    Number of Cartesian functions: 30
    Spherical Harmonics?: true
    Max angular momentum: 2

  ==> Integral Setup <==

  Using in-core PK algorithm.
   Calculation information:
      Number of atoms:                   2
      Number of AO shells:              12
      Number of primitives:             44
      Number of atomic orbitals:        30
      Number of basis functions:        28

      Integral cutoff                 1.00e-12
      Number of threads:                 1

  Performing in-core PK
  Using 165242 doubles for integral storage.
  We computed 3081 shell quartets total.
  Whereas there are 3081 unique shell quartets.

  ==> DiskJK: Disk-Based J/K Matrices <==

    J tasked:                  Yes
    K tasked:                  Yes
    wK tasked:                  No
    Memory [MiB]:              375
    Schwarz Cutoff:          1E-12

    OpenMP threads:              1

  Minimum eigenvalue in the overlap matrix is 1.1839818618E-02.
  Reciprocal condition number of the overlap matrix is 4.1943973354E-03.
    Using symmetric orthogonalization.

  ==> Pre-Iterations <==

  SCF Guess: Superposition of Atomic Densities via on-the-fly atomic UHF (no occupation information).

   -------------------------
    Irrep   Nso     Nmo    
   -------------------------
     Ag         7       7 
     B1g        1       1 
     B2g        3       3 
     B3g        3       3 
     Au         1       1 
     B1u        7       7 
     B2u        3       3 
     B3u        3       3 
   -------------------------
    Total      28      28
   -------------------------

  ==> Iterations <==

                        Total Energy        Delta E     RMS |[F,P]|

   @ROHF iter SAD:  -108.06758860731139   -1.08068e+02   0.00000e+00 
   @ROHF iter   1:  -108.32431994994960   -2.56731e-01   1.93107e-02 DIIS
   @ROHF iter   2:  -108.36832601481436   -4.40061e-02   4.22345e-03 DIIS
   @ROHF iter   3:  -108.37043451474216   -2.10850e-03   9.14649e-04 DIIS
   @ROHF iter   4:  -108.37057427730934   -1.39763e-04   1.67041e-04 DIIS
   @ROHF iter   5:  -108.37057933264686   -5.05534e-06   1.47696e-05 DIIS
   @ROHF iter   6:  -108.37057936154065   -2.88938e-08   1.18204e-06 DIIS
   @ROHF iter   7:  -108.37057936175731   -2.16659e-10   1.38530e-07 DIIS
  Energy and wave function converged.


  ==> Post-Iterations <==

    Orbital Energies [Eh]
    ---------------------

    Doubly Occupied:                                                      

       1Ag   -16.194204     1B1u  -16.191286     2Ag    -1.905538  
       2B1u   -1.156905     1B3u   -1.035633     1B2u   -1.035633  

    Singly Occupied:                                                      

       3Ag    -0.829321  

    Virtual:                                                              

       1B3g   -0.236241     1B2g   -0.236241     3B1u    0.253696  
       4Ag     0.474094     2B2u    0.502342     2B3u    0.502342  
       5Ag     0.608237     2B3g    0.669730     2B2g    0.669730  
       4B1u    0.718799     5B1u    1.260809     1B1g    1.344004  
       6Ag     1.344004     3B2u    1.447280     3B3u    1.447280  
       1Au     1.878916     6B1u    1.878916     7Ag     2.438143  
       3B2g    2.558528     3B3g    2.558528     7B1u    2.826860  

    Final Occupation by Irrep:
             Ag   B1g   B2g   B3g    Au   B1u   B2u   B3u 
    DOCC [     2,    0,    0,    0,    0,    2,    1,    1 ]
    SOCC [     1,    0,    0,    0,    0,    0,    0,    0 ]

  @ROHF Final Energy:  -108.37057936175731

   => Energetics <=

    Nuclear Repulsion Energy =             23.5296607006021006
    One-Electron Energy =                -187.6338780689263217
    Two-Electron Energy =                  55.7336380065669061
    Total Energy =                       -108.3705793617573079

Computation Completed


Properties will be evaluated at   0.000000,   0.000000,   0.000000 [a0]

Properties computed using the SCF density matrix

  Nuclear Dipole Moment: [e a0]
     X:     0.0000      Y:     0.0000      Z:     0.0000

  Electronic Dipole Moment: [e a0]
     X:     0.0000      Y:     0.0000      Z:     0.0000

  Dipole Moment: [e a0]
     X:     0.0000      Y:     0.0000      Z:     0.0000     Total:     0.0000

  Dipole Moment: [D]
     X:     0.0000      Y:     0.0000      Z:     0.0000     Total:     0.0000


*** tstop() called on Yorks-Mac.local at Thu Dec 10 12:16:44 2020
Module time:
	user time   =       0.18 seconds =       0.00 minutes
	system time =       0.01 seconds =       0.00 minutes
	total time  =          0 seconds =       0.00 minutes
Total time:
	user time   =       1.66 seconds =       0.03 minutes
	system time =       0.04 seconds =       0.00 minutes
	total time  =          1 seconds =       0.02 minutes


  ==> Orthogonalize Orbitals Between Different Geometries <==

    Preparing orbitals of subspaces ......... Done
    Orthogonalizing orbitals of subspaces ... Done
    Combining orbitals of subspaces ......... Done
    Semicanonicalizing orbitals ............. Done

   => Loading Basis Set <=

    Name: STO-3G
    Role: ORBITAL
    Keyword: MINAO_BASIS
    atoms 1-2 entry N          line    71 file /Users/york/src/psi4new/psi4/share/psi4/basis/sto-3g.gbs 


  Forte will use psi4 integrals

  ==> Primary Basis Set Summary <==

  Basis Set: CC-PVDZ
    Blend: CC-PVDZ
    Number of shells: 12
    Number of basis function: 28
    Number of Cartesian functions: 30
    Spherical Harmonics?: true
    Max angular momentum: 2


  JK created using conventional PK integrals
  Using in-core PK algorithm.
   Calculation information:
      Number of atoms:                   2
      Number of AO shells:              12
      Number of primitives:             44
      Number of atomic orbitals:        30
      Number of basis functions:        28

      Integral cutoff                 1.00e-12
      Number of threads:                 1

  Performing in-core PK
  Using 165242 doubles for integral storage.
  We computed 3081 shell quartets total.
  Whereas there are 3081 unique shell quartets.

  ==> DiskJK: Disk-Based J/K Matrices <==

    J tasked:                  Yes
    K tasked:                  Yes
    wK tasked:                  No
    Memory [MiB]:              400
    Schwarz Cutoff:          1E-12

    OpenMP threads:              1



  ==> Integral Transformation <==

  Number of molecular orbitals:                         28
  Number of correlated molecular orbitals:              28
  Number of frozen occupied orbitals:                    0
  Number of frozen unoccupied orbitals:                  0
  Two-electron integral type:                 Conventional


  Skip integral allocation and transformation for AO-driven CASSCF.

          -----------------------------------------------------------
                  Multi-Configurational Self Consistent Field
                Two-Step Approximate Second-Order AO Algorithm
            written by Chenyang Li, Kevin P. Hannon, and Shuhe Wang
          -----------------------------------------------------------


  ==> Calculation Information <==

    Integral type                               CONVENTIONAL
    CI solver type                                       FCI
    Final orbital type                             CANONICAL
    Include internal rotations                         FALSE
    Debug printing                                     FALSE
    Energy convergence                             1.000e-08
    Gradient convergence                           1.000e-08
    Max value for rotation                         5.000e-01
    Printing level                                         1
    Max number of macro iterations                       100
    Max number of micro iterations                        50
    Min number of micro iterations                        15
    DIIS start                                             2
    Min DIIS vectors                                       2
    Max DIIS vectors                                       8
    Frequency of DIIS extrapolation                        1


  ==> Independent Orbital Rotations <==

    ORBITAL SPACES                       Ag   B1g   B2g   B3g    Au   B1u   B2u   B3u
    ---------------------------------------------------------------------------------
             ACTIVE / RESTRICTED_DOCC     2     0     0     0     0     2     0     0
    RESTRICTED_UOCC /          ACTIVE     8     0     2     2     0     8     2     2
    RESTRICTED_UOCC / RESTRICTED_DOCC     4     0     0     0     0     4     0     0
    ---------------------------------------------------------------------------------

  ==> Summary of Active Space Solver Input <==

    Irrep.  Multi.(2ms)      N
    --------------------------
       Ag      2  (  1)      1
    --------------------------
    N: number of roots
    ms: spin z component
    Total number of roots:   1
    --------------------------


  ==> Energy Summary <==

    Multi.(2ms)  Irrep.  No.               Energy
    ---------------------------------------------
       2  (  1)    Ag     0     -108.579333168243
    ---------------------------------------------

  ==> Optimizing Orbitals for Current RDMs <==

  L-BFGS Iter:  1; fx = -108.579335224687071; g_norm = 9.147139e-04; step = 1.000e+00
  L-BFGS Iter:  2; fx = -108.579335288430542; g_norm = 1.620383e-04; step = 1.000e+00
  L-BFGS Iter:  3; fx = -108.579335293255951; g_norm = 2.809551e-05; step = 1.000e+00
  L-BFGS Iter:  4; fx = -108.579335293404583; g_norm = 6.253350e-06; step = 1.000e+00

  ==> MCSCF Macro Iter. 1 <==

             Energy CI (  Delta E  )         Energy Opt. (  Delta E  )  E_OPT - E_CI   Orbital RMS  Micro  DIIS
     -108.579333168243 (-1.0858e+02)   -108.579335293405 (-1.0858e+02)   -2.1252e-06    1.0422e-06    4/Y

  ==> Summary of Active Space Solver Input <==

    Irrep.  Multi.(2ms)      N
    --------------------------
       Ag      2  (  1)      1
    --------------------------
    N: number of roots
    ms: spin z component
    Total number of roots:   1
    --------------------------


  ==> Energy Summary <==

    Multi.(2ms)  Irrep.  No.               Energy
    ---------------------------------------------
       2  (  1)    Ag     0     -108.579335330569
    ---------------------------------------------

  ==> Optimizing Orbitals for Current RDMs <==

  L-BFGS Iter:  1; fx = -108.579335332892498; g_norm = 3.445789e-05; step = 1.000e+00
  L-BFGS Iter:  2; fx = -108.579335333045805; g_norm = 9.053850e-06; step = 1.000e+00
  L-BFGS Iter:  3; fx = -108.579335333053805; g_norm = 1.334019e-06; step = 1.000e+00
  L-BFGS Iter:  4; fx = -108.579335333054047; g_norm = 2.115557e-07; step = 1.000e+00

  ==> MCSCF Macro Iter. 2 <==

             Energy CI (  Delta E  )         Energy Opt. (  Delta E  )  E_OPT - E_CI   Orbital RMS  Micro  DIIS
     -108.579335330569 (-2.1623e-06)   -108.579335333054 (-3.9649e-08)   -2.4852e-09    1.0324e-06    4/Y   S

  ==> Summary of Active Space Solver Input <==

    Irrep.  Multi.(2ms)      N
    --------------------------
       Ag      2  (  1)      1
    --------------------------
    N: number of roots
    ms: spin z component
    Total number of roots:   1
    --------------------------


  ==> Energy Summary <==

    Multi.(2ms)  Irrep.  No.               Energy
    ---------------------------------------------
       2  (  1)    Ag     0     -108.579335333380
    ---------------------------------------------

  ==> Optimizing Orbitals for Current RDMs <==

  L-BFGS Iter:  1; fx = -108.579335333433704; g_norm = 5.519623e-06; step = 1.000e+00
  L-BFGS Iter:  2; fx = -108.579335333438223; g_norm = 1.387317e-06; step = 1.000e+00
  L-BFGS Iter:  3; fx = -108.579335333438394; g_norm = 2.019053e-07; step = 1.000e+00
  L-BFGS Iter:  4; fx = -108.579335333438394; g_norm = 2.849228e-08; step = 1.000e+00
  L-BFGS Iter:  5; fx = -108.579335333438436; g_norm = 8.249708e-09; step = 1.000e+00

  ==> MCSCF Macro Iter. 3 <==

             Energy CI (  Delta E  )         Energy Opt. (  Delta E  )  E_OPT - E_CI   Orbital RMS  Micro  DIIS
     -108.579335333380 (-2.8111e-09)   -108.579335333438 (-3.8439e-10)   -5.8492e-11    3.4575e-08    5/Y   S

  ==> Summary of Active Space Solver Input <==

    Irrep.  Multi.(2ms)      N
    --------------------------
       Ag      2  (  1)      1
    --------------------------
    N: number of roots
    ms: spin z component
    Total number of roots:   1
    --------------------------


  ==> Energy Summary <==

    Multi.(2ms)  Irrep.  No.               Energy
    ---------------------------------------------
       2  (  1)    Ag     0     -108.579335333450
    ---------------------------------------------

  ==> Optimizing Orbitals for Current RDMs <==

  L-BFGS Iter:  1; fx = -108.579335333452079; g_norm = 1.186933e-06; step = 1.000e+00
  L-BFGS Iter:  2; fx = -108.579335333452320; g_norm = 2.763900e-07; step = 1.000e+00
  L-BFGS Iter:  3; fx = -108.579335333452335; g_norm = 3.843571e-08; step = 1.000e+00
  L-BFGS Iter:  4; fx = -108.579335333452306; g_norm = 6.013653e-09; step = 1.000e+00

  ==> MCSCF Macro Iter. 4 <==

             Energy CI (  Delta E  )         Energy Opt. (  Delta E  )  E_OPT - E_CI   Orbital RMS  Micro  DIIS
     -108.579335333450 (-6.9960e-11)   -108.579335333452 (-1.3870e-11)   -2.4016e-12    8.0229e-10    4/Y

  A miracle has come to pass: MCSCF iterations have converged!

  ==> MCSCF Iteration Summary <==

                      Energy CI                    Energy Orbital
           ------------------------------  ------------------------------
    Iter.        Total Energy       Delta        Total Energy       Delta  Orb. Grad.  Micro
    ----------------------------------------------------------------------------------------
       1    -108.579333168243  0.0000e+00   -108.579335293405  0.0000e+00  1.0422e-06     4
       2    -108.579335330569 -2.1623e-06   -108.579335333054 -3.9649e-08  1.0324e-06     4
       3    -108.579335333380 -2.8111e-09   -108.579335333438 -3.8439e-10  3.4575e-08     5
       4    -108.579335333450 -6.9960e-11   -108.579335333452 -1.3870e-11  8.0229e-10     4
    ----------------------------------------------------------------------------------------

       -----------------------------------------------------------------
                            Semi-Canonical Orbitals
         Chenyang Li, Jeffrey B. Schriber and Francesco A. Evangelista
       -----------------------------------------------------------------


  ==> Checking Fock Matrix Diagonal Blocks <==

    Off-Diag. Elements       Max           2-Norm
    ------------------------------------------------
    FROZEN_DOCC          0.0000000000   0.0000000000
    FROZEN_UOCC          0.0000000000   0.0000000000
    GAS1                 0.0573807237   0.0831441540
    GAS2                 0.0000000000   0.0000000000
    GAS3                 0.0000000000   0.0000000000
    GAS4                 0.0000000000   0.0000000000
    GAS5                 0.0000000000   0.0000000000
    GAS6                 0.0000000000   0.0000000000
    RESTRICTED_DOCC      0.0000000000   0.0000000000
    RESTRICTED_UOCC      0.0163985626   0.0460832106
    ------------------------------------------------
  Timing for semi-canonicalization:                           0.000 s.

  ==> Summary of Active Space Solver Input <==

    Irrep.  Multi.(2ms)      N
    --------------------------
       Ag      2  (  1)      1
    --------------------------
    N: number of roots
    ms: spin z component
    Total number of roots:   1
    --------------------------


  ==> String Lists <==

  Number of alpha electrons     = 5
  Number of beta electrons      = 4
  Number of alpha strings       = 56
  Number of beta strings        = 70
  Number of alpha strings (N-3) = 28
  Number of beta strings (N-3)  = 8
  Timing for strings        =      0.000 s
  Timing for NN strings     =      0.000 s
  Timing for VO strings     =      0.001 s
  Timing for OO strings     =      0.001 s
  Timing for VVOO strings   =      0.001 s
  Timing for VOVO strings   =      0.000 s
  Timing for 1-hole strings =      0.000 s
  Timing for 2-hole strings =      0.000 s
  Timing for 3-hole strings =      0.001 s
  Total timing              =      0.003 s

  ==> FCI Solver <==

    Number of determinants                         500
    Symmetry                                         0
    Multiplicity                                     2
    Number of roots                                  1
    Target root                                      0
    Trial vectors per root                          10

  Allocating memory for the Hamiltonian algorithm. Size: 2 x 12 x 12.   Memory: 0.000002 GB

  ==> FCI Initial Guess <==

  ---------------------------------------------
    Root            Energy     <S^2>   Spin
  ---------------------------------------------
      0     -108.438592979746  0.750  doublet
      1     -108.044487406748  3.750  quartet
      2     -107.994542689169  3.750  quartet
      3     -107.893686299171  0.750  doublet
      4     -107.891549945430  8.750  sextet
      5     -107.830209490189  0.750  doublet
      6     -107.785811810966  0.750  doublet
      7     -107.768345254568  3.750  quartet
      8     -107.720202898069  3.750  quartet
      9     -107.690831482848  0.750  doublet
     10     -107.657917958805  0.750  doublet
     11     -107.559031542047  0.750  doublet
     12     -107.548278749666  0.750  doublet
     13     -107.519146791501  0.750  doublet
     14     -107.366002091700  3.750  quartet
     15     -107.350944459918  0.750  doublet
     16     -107.349559608961  3.750  quartet
     17     -107.236147658872  0.750  doublet
     18     -107.229244538413  0.750  doublet
     19     -106.689664517113  0.750  doublet
  ---------------------------------------------
  Timing for initial guess  =      0.001 s

  Projecting out root 1
  Projecting out root 2
  Projecting out root 4
  Projecting out root 7
  Projecting out root 8
  Projecting out root 14
  Projecting out root 16

  ==> Diagonalizing Hamiltonian <==

  Energy   convergence: 1.00e-08
  Residual convergence: 1.00e-06
  -----------------------------------------------------
    Iter.      Avg. Energy       Delta_E     Res. Norm
  -----------------------------------------------------
      1     -108.481371663535  -1.085e+02  +4.489e-01
      2     -108.569146981778  -8.778e-02  +1.595e-01
      3     -108.577189558412  -8.043e-03  +7.732e-02
      4     -108.579015481285  -1.826e-03  +2.928e-02
      5     -108.579300349979  -2.849e-04  +1.077e-02
      6     -108.579332073493  -3.172e-05  +3.387e-03
      7     -108.579335001812  -2.928e-06  +1.009e-03
      8     -108.579335311378  -3.096e-07  +2.611e-04
      9     -108.579335331878  -2.050e-08  +6.803e-05
     10     -108.579335333234  -1.356e-09  +2.277e-05
     11     -108.579335333434  -2.003e-10  +7.314e-06
     12     -108.579335333451  -1.636e-11  +2.676e-06
     13     -108.579335333452  -1.705e-12  +1.214e-06
     14     -108.579335333453  -3.553e-13  +3.401e-07
  -----------------------------------------------------
  The Davidson-Liu algorithm converged in 15 iterations.

  ==> Root No. 0 <==

    2a 0 0 20 2 2      0.93748328
    2a 2 0 20 2 0     -0.12241779
    2a 0 2 20 0 2     -0.12241779
    22 0 a a0 b 2      0.11942516
    22 a 0 a0 2 b     -0.11942516

    Total Energy:      -108.579335333452761

  ==> Energy Summary <==

    Multi.(2ms)  Irrep.  No.               Energy
    ---------------------------------------------
       2  (  1)    Ag     0     -108.579335333453
    ---------------------------------------------

  Time to prepare integrals:        0.044 seconds
  Time to run job          :        0.385 seconds
  Total                    :        0.385 seconds
  //>>>>>>>>>>>>>>>>>>>>>>>>>>>>>>>>>>>//
  //    Loading displacement 3 of 5    //
  //<<<<<<<<<<<<<<<<<<<<<<<<<<<<<<<<<<<//

Scratch directory: /Users/york/scratch/psi4/

  Forte
  ----------------------------------------------------------------------------
  A suite of quantum chemistry methods for strongly correlated electrons

    git branch: mcscf_rotation_printing - git commit: 2ad462be

  Developed by:
    Francesco A. Evangelista, Chenyang Li, Kevin P. Hannon,
    Jeffrey B. Schriber, Tianyuan Zhang, Chenxi Cai,
    Nan He, Nicholas Stair, Shuhe Wang, Renke Huang
  ----------------------------------------------------------------------------

  Size of Determinant class: 256 bits
  Preparing forte objects from a psi4 Wavefunction object
  Read options for space FROZEN_DOCC
  Read options for space RESTRICTED_DOCC
  Read options for space ACTIVE
  Read options for space FROZEN_DOCC
  Read options for space RESTRICTED_DOCC

  ==> MO Space Information <==

  -------------------------------------------------------------------------
                       Ag   B1g   B2g   B3g    Au   B1u   B2u   B3u   Sum
  -------------------------------------------------------------------------
    FROZEN_DOCC         0     0     0     0     0     0     0     0     0
    RESTRICTED_DOCC     1     0     0     0     0     1     0     0     2
    GAS1                2     0     1     1     0     2     1     1     8
    GAS2                0     0     0     0     0     0     0     0     0
    GAS3                0     0     0     0     0     0     0     0     0
    GAS4                0     0     0     0     0     0     0     0     0
    GAS5                0     0     0     0     0     0     0     0     0
    GAS6                0     0     0     0     0     0     0     0     0
    RESTRICTED_UOCC     4     1     2     2     1     4     2     2    18
    FROZEN_UOCC         0     0     0     0     0     0     0     0     0
    Total               7     1     3     3     1     7     3     3    28
  -------------------------------------------------------------------------

  Forte Testing Orbital Orthonormality ...   => Loading Basis Set <=

    Name: CC-PVDZ
    Role: ORBITAL
    Keyword: BASIS
    atoms 1-2 entry N          line   168 file /Users/york/src/psi4new/psi4/share/psi4/basis/cc-pvdz.gbs 


  Forte Warning: Orbitals of ref_wfn NOT from current geometry!!!
  Max value of MO overlap: 0.005402740308814
  Perform new SCF at current geometry ...

*** tstart() called on Yorks-Mac.local
*** at Thu Dec 10 12:16:45 2020

   => Loading Basis Set <=

    Name: CC-PVDZ
    Role: ORBITAL
    Keyword: BASIS
    atoms 1-2 entry N          line   168 file /Users/york/src/psi4new/psi4/share/psi4/basis/cc-pvdz.gbs 


         ---------------------------------------------------------
                                   SCF
               by Justin Turney, Rob Parrish, Andy Simmonett
                          and Daniel G. A. Smith
                             ROHF Reference
                        1 Threads,    500 MiB Core
         ---------------------------------------------------------

  ==> Geometry <==

    Molecular point group: d2h
    Full point group: D_inf_h

    Geometry (in Angstrom), charge = 1, multiplicity = 2:

       Center              X                  Y                   Z               Mass       
    ------------   -----------------  -----------------  -----------------  -----------------
         N            0.000000000000     0.000000000000    -0.550499970577    14.003074004430
         N            0.000000000000     0.000000000000     0.550499970577    14.003074004430

  Running in d2h symmetry.

  Rotational constants: A = ************  B =      1.98623  C =      1.98623 [cm^-1]
  Rotational constants: A = ************  B =  59545.53745  C =  59545.53745 [MHz]
  Nuclear repulsion =   23.551030616443498

  Charge       = 1
  Multiplicity = 2
  Electrons    = 13
  Nalpha       = 7
  Nbeta        = 6

  ==> Algorithm <==

  SCF Algorithm Type is PK.
  DIIS enabled.
  MOM disabled.
  Fractional occupation disabled.
  Guess Type is SAD.
  Energy threshold   = 1.00e-08
  Density threshold  = 1.00e-06
  Integral threshold = 1.00e-12

  ==> Primary Basis <==

  Basis Set: CC-PVDZ
    Blend: CC-PVDZ
    Number of shells: 12
    Number of basis function: 28
    Number of Cartesian functions: 30
    Spherical Harmonics?: true
    Max angular momentum: 2

  ==> Integral Setup <==

  Using in-core PK algorithm.
   Calculation information:
      Number of atoms:                   2
      Number of AO shells:              12
      Number of primitives:             44
      Number of atomic orbitals:        30
      Number of basis functions:        28

      Integral cutoff                 1.00e-12
      Number of threads:                 1

  Performing in-core PK
  Using 165242 doubles for integral storage.
  We computed 3081 shell quartets total.
  Whereas there are 3081 unique shell quartets.

  ==> DiskJK: Disk-Based J/K Matrices <==

    J tasked:                  Yes
    K tasked:                  Yes
    wK tasked:                  No
    Memory [MiB]:              375
    Schwarz Cutoff:          1E-12

    OpenMP threads:              1

  Minimum eigenvalue in the overlap matrix is 1.1803639132E-02.
  Reciprocal condition number of the overlap matrix is 4.1801444434E-03.
    Using symmetric orthogonalization.

  ==> Pre-Iterations <==

  SCF Guess: Superposition of Atomic Densities via on-the-fly atomic UHF (no occupation information).

   -------------------------
    Irrep   Nso     Nmo    
   -------------------------
     Ag         7       7 
     B1g        1       1 
     B2g        3       3 
     B3g        3       3 
     Au         1       1 
     B1u        7       7 
     B2u        3       3 
     B3u        3       3 
   -------------------------
    Total      28      28
   -------------------------

  ==> Iterations <==

                        Total Energy        Delta E     RMS |[F,P]|

   @ROHF iter SAD:  -108.07035212187195   -1.08070e+02   0.00000e+00 
   @ROHF iter   1:  -108.32450265993820   -2.54151e-01   1.92906e-02 DIIS
   @ROHF iter   2:  -108.36840443516512   -4.39018e-02   4.21828e-03 DIIS
   @ROHF iter   3:  -108.37050582928633   -2.10139e-03   9.12349e-04 DIIS
   @ROHF iter   4:  -108.37064476307084   -1.38934e-04   1.66729e-04 DIIS
   @ROHF iter   5:  -108.37064979599181   -5.03292e-06   1.47314e-05 DIIS
   @ROHF iter   6:  -108.37064982471615   -2.87243e-08   1.17503e-06 DIIS
   @ROHF iter   7:  -108.37064982493006   -2.13902e-10   1.37858e-07 DIIS
  Energy and wave function converged.


  ==> Post-Iterations <==

    Orbital Energies [Eh]
    ---------------------

    Doubly Occupied:                                                      

       1Ag   -16.193998     1B1u  -16.191062     2Ag    -1.906380  
       2B1u   -1.156614     1B3u   -1.036156     1B2u   -1.036156  

    Singly Occupied:                                                      

       3Ag    -0.829451  

    Virtual:                                                              

       1B2g   -0.235719     1B3g   -0.235719     3B1u    0.254117  
       4Ag     0.473726     2B3u    0.502053     2B2u    0.502053  
       5Ag     0.608287     2B3g    0.669870     2B2g    0.669870  
       4B1u    0.720213     5B1u    1.261692     1B1g    1.343614  
       6Ag     1.343614     3B3u    1.448215     3B2u    1.448215  
       1Au     1.879530     6B1u    1.879530     7Ag     2.439278  
       3B3g    2.559578     3B2g    2.559578     7B1u    2.828894  

    Final Occupation by Irrep:
             Ag   B1g   B2g   B3g    Au   B1u   B2u   B3u 
    DOCC [     2,    0,    0,    0,    0,    2,    1,    1 ]
    SOCC [     1,    0,    0,    0,    0,    0,    0,    0 ]

  @ROHF Final Energy:  -108.37064982493006

   => Energetics <=

    Nuclear Repulsion Energy =             23.5510306164434979
    One-Electron Energy =                -187.6742528157819265
    Two-Electron Energy =                  55.7525723744083592
    Total Energy =                       -108.3706498249300836

Computation Completed


Properties will be evaluated at   0.000000,   0.000000,   0.000000 [a0]

Properties computed using the SCF density matrix

  Nuclear Dipole Moment: [e a0]
     X:     0.0000      Y:     0.0000      Z:     0.0000

  Electronic Dipole Moment: [e a0]
     X:     0.0000      Y:     0.0000      Z:     0.0000

  Dipole Moment: [e a0]
     X:     0.0000      Y:     0.0000      Z:     0.0000     Total:     0.0000

  Dipole Moment: [D]
     X:     0.0000      Y:     0.0000      Z:     0.0000     Total:     0.0000


*** tstop() called on Yorks-Mac.local at Thu Dec 10 12:16:45 2020
Module time:
	user time   =       0.19 seconds =       0.00 minutes
	system time =       0.01 seconds =       0.00 minutes
[...]

  ==> DiskJK: Disk-Based J/K Matrices <==

    J tasked:                  Yes
    K tasked:                  Yes
    wK tasked:                  No
    Memory [MiB]:              400
    Schwarz Cutoff:          1E-12

    OpenMP threads:              1



  ==> Integral Transformation <==

  Number of molecular orbitals:                         28
  Number of correlated molecular orbitals:              28
  Number of frozen occupied orbitals:                    0
  Number of frozen unoccupied orbitals:                  0
  Two-electron integral type:                 Conventional


  Skip integral allocation and transformation for AO-driven CASSCF.

          -----------------------------------------------------------
                  Multi-Configurational Self Consistent Field
                Two-Step Approximate Second-Order AO Algorithm
            written by Chenyang Li, Kevin P. Hannon, and Shuhe Wang
          -----------------------------------------------------------


  ==> Calculation Information <==

    Integral type                               CONVENTIONAL
    CI solver type                                       FCI
    Final orbital type                             CANONICAL
    Include internal rotations                         FALSE
    Debug printing                                     FALSE
    Energy convergence                             1.000e-08
    Gradient convergence                           1.000e-08
    Max value for rotation                         5.000e-01
    Printing level                                         1
    Max number of macro iterations                       100
    Max number of micro iterations                        50
    Min number of micro iterations                        15
    DIIS start                                             2
    Min DIIS vectors                                       2
    Max DIIS vectors                                       8
    Frequency of DIIS extrapolation                        1


  ==> Independent Orbital Rotations <==

    ORBITAL SPACES                       Ag   B1g   B2g   B3g    Au   B1u   B2u   B3u
    ---------------------------------------------------------------------------------
             ACTIVE / RESTRICTED_DOCC     2     0     0     0     0     2     0     0
    RESTRICTED_UOCC /          ACTIVE     8     0     2     2     0     8     2     2
    RESTRICTED_UOCC / RESTRICTED_DOCC     4     0     0     0     0     4     0     0
    ---------------------------------------------------------------------------------

  ==> Summary of Active Space Solver Input <==

    Irrep.  Multi.(2ms)      N
    --------------------------
       Ag      2  (  1)      1
    --------------------------
    N: number of roots
    ms: spin z component
    Total number of roots:   1
    --------------------------


  ==> Energy Summary <==

    Multi.(2ms)  Irrep.  No.               Energy
    ---------------------------------------------
       2  (  1)    Ag     0     -108.581893757640
    ---------------------------------------------

  ==> Optimizing Orbitals for Current RDMs <==

  L-BFGS Iter:  1; fx = -108.581894230604036; g_norm = 4.304901e-04; step = 1.000e+00
  L-BFGS Iter:  2; fx = -108.581894245067303; g_norm = 7.615192e-05; step = 1.000e+00
  L-BFGS Iter:  3; fx = -108.581894246177129; g_norm = 1.386991e-05; step = 1.000e+00
  L-BFGS Iter:  4; fx = -108.581894246211903; g_norm = 2.963282e-06; step = 1.000e+00

  ==> MCSCF Macro Iter. 1 <==

             Energy CI (  Delta E  )         Energy Opt. (  Delta E  )  E_OPT - E_CI   Orbital RMS  Micro  DIIS
     -108.581893757640 (-1.0858e+02)   -108.581894246212 (-1.0858e+02)   -4.8857e-07    4.9388e-07    4/Y

  ==> Summary of Active Space Solver Input <==

    Irrep.  Multi.(2ms)      N
    --------------------------
       Ag      2  (  1)      1
    --------------------------
    N: number of roots
    ms: spin z component
    Total number of roots:   1
    --------------------------


  ==> Energy Summary <==

    Multi.(2ms)  Irrep.  No.               Energy
    ---------------------------------------------
       2  (  1)    Ag     0     -108.581894254745
    ---------------------------------------------

  ==> Optimizing Orbitals for Current RDMs <==

  L-BFGS Iter:  1; fx = -108.581894255305286; g_norm = 1.692205e-05; step = 1.000e+00
  L-BFGS Iter:  2; fx = -108.581894255342306; g_norm = 4.453484e-06; step = 1.000e+00
  L-BFGS Iter:  3; fx = -108.581894255344309; g_norm = 6.650378e-07; step = 1.000e+00
  L-BFGS Iter:  4; fx = -108.581894255344338; g_norm = 1.072007e-07; step = 1.000e+00
  L-BFGS Iter:  5; fx = -108.581894255344366; g_norm = 2.252069e-08; step = 1.000e+00

  ==> MCSCF Macro Iter. 2 <==

             Energy CI (  Delta E  )         Energy Opt. (  Delta E  )  E_OPT - E_CI   Orbital RMS  Micro  DIIS
     -108.581894254745 (-4.9711e-07)   -108.581894255344 (-9.1325e-09)   -5.9904e-10    4.9328e-07    5/Y   S

  ==> Summary of Active Space Solver Input <==

    Irrep.  Multi.(2ms)      N
    --------------------------
       Ag      2  (  1)      1
    --------------------------
    N: number of roots
    ms: spin z component
    Total number of roots:   1
    --------------------------


  ==> Energy Summary <==

    Multi.(2ms)  Irrep.  No.               Energy
    ---------------------------------------------
       2  (  1)    Ag     0     -108.581894255424
    ---------------------------------------------

  ==> Optimizing Orbitals for Current RDMs <==

  L-BFGS Iter:  1; fx = -108.581894255436907; g_norm = 2.737164e-06; step = 1.000e+00
  L-BFGS Iter:  2; fx = -108.581894255438016; g_norm = 6.786270e-07; step = 1.000e+00
  L-BFGS Iter:  3; fx = -108.581894255438030; g_norm = 9.949658e-08; step = 1.000e+00
  L-BFGS Iter:  4; fx = -108.581894255438030; g_norm = 1.452146e-08; step = 1.000e+00
  L-BFGS Iter:  5; fx = -108.581894255438044; g_norm = 4.175985e-09; step = 1.000e+00

  ==> MCSCF Macro Iter. 3 <==

             Energy CI (  Delta E  )         Energy Opt. (  Delta E  )  E_OPT - E_CI   Orbital RMS  Micro  DIIS
     -108.581894255424 (-6.7881e-10)   -108.581894255438 (-9.3678e-11)   -1.3912e-11    3.1105e-09    5/Y   S

  ==> Summary of Active Space Solver Input <==

    Irrep.  Multi.(2ms)      N
    --------------------------
       Ag      2  (  1)      1
    --------------------------
    N: number of roots
    ms: spin z component
    Total number of roots:   1
    --------------------------


  ==> Energy Summary <==

    Multi.(2ms)  Irrep.  No.               Energy
    ---------------------------------------------
       2  (  1)    Ag     0     -108.581894255441
    ---------------------------------------------

  ==> Optimizing Orbitals for Current RDMs <==

  L-BFGS Iter:  1; fx = -108.581894255441483; g_norm = 5.764541e-07; step = 1.000e+00
  L-BFGS Iter:  2; fx = -108.581894255441483; g_norm = 1.327294e-07; step = 1.000e+00
  L-BFGS Iter:  3; fx = -108.581894255441497; g_norm = 1.849866e-08; step = 1.000e+00
  L-BFGS Iter:  4; fx = -108.581894255441540; g_norm = 2.964789e-09; step = 1.000e+00

  ==> MCSCF Macro Iter. 4 <==

             Energy CI (  Delta E  )         Energy Opt. (  Delta E  )  E_OPT - E_CI   Orbital RMS  Micro  DIIS
     -108.581894255441 (-1.6840e-11)   -108.581894255442 (-3.4959e-12)   -5.6843e-13    4.0327e-10    4/Y

  A miracle has come to pass: MCSCF iterations have converged!

  ==> MCSCF Iteration Summary <==

                      Energy CI                    Energy Orbital
           ------------------------------  ------------------------------
    Iter.        Total Energy       Delta        Total Energy       Delta  Orb. Grad.  Micro
    ----------------------------------------------------------------------------------------
       1    -108.581893757640  0.0000e+00   -108.581894246212  0.0000e+00  4.9388e-07     4
       2    -108.581894254745 -4.9711e-07   -108.581894255344 -9.1325e-09  4.9328e-07     5
       3    -108.581894255424 -6.7881e-10   -108.581894255438 -9.3678e-11  3.1105e-09     5
       4    -108.581894255441 -1.6840e-11   -108.581894255442 -3.4959e-12  4.0327e-10     4
    ----------------------------------------------------------------------------------------

       -----------------------------------------------------------------
                            Semi-Canonical Orbitals
         Chenyang Li, Jeffrey B. Schriber and Francesco A. Evangelista
       -----------------------------------------------------------------


  ==> Checking Fock Matrix Diagonal Blocks <==

    Off-Diag. Elements       Max           2-Norm
    ------------------------------------------------
    FROZEN_DOCC          0.0000000000   0.0000000000
    FROZEN_UOCC          0.0000000000   0.0000000000
    GAS1                 0.0579362963   0.0834195733
    GAS2                 0.0000000000   0.0000000000
    GAS3                 0.0000000000   0.0000000000
    GAS4                 0.0000000000   0.0000000000
    GAS5                 0.0000000000   0.0000000000
    GAS6                 0.0000000000   0.0000000000
    RESTRICTED_DOCC      0.0000000000   0.0000000000
    RESTRICTED_UOCC      0.0167780623   0.0461356959
    ------------------------------------------------
  Timing for semi-canonicalization:                           0.000 s.

  ==> Summary of Active Space Solver Input <==

    Irrep.  Multi.(2ms)      N
    --------------------------
       Ag      2  (  1)      1
    --------------------------
    N: number of roots
    ms: spin z component
    Total number of roots:   1
    --------------------------


  ==> String Lists <==

  Number of alpha electrons     = 5
  Number of beta electrons      = 4
  Number of alpha strings       = 56
  Number of beta strings        = 70
  Number of alpha strings (N-3) = 28
  Number of beta strings (N-3)  = 8
  Timing for strings        =      0.000 s
  Timing for NN strings     =      0.000 s
  Timing for VO strings     =      0.002 s
  Timing for OO strings     =      0.001 s
  Timing for VVOO strings   =      0.001 s
  Timing for VOVO strings   =      0.000 s
  Timing for 1-hole strings =      0.000 s
  Timing for 2-hole strings =      0.000 s
  Timing for 3-hole strings =      0.001 s
  Total timing              =      0.003 s

  ==> FCI Solver <==

    Number of determinants                         500
    Symmetry                                         0
    Multiplicity                                     2
    Number of roots                                  1
    Target root                                      0
    Trial vectors per root                          10

  Allocating memory for the Hamiltonian algorithm. Size: 2 x 12 x 12.   Memory: 0.000002 GB

  ==> FCI Initial Guess <==

  ---------------------------------------------
    Root            Energy     <S^2>   Spin
  ---------------------------------------------
      0     -107.812065519736  0.750  doublet
      1     -107.437199381308  3.750  quartet
      2     -107.387474716517  3.750  quartet
      3     -107.320778855606  8.750  sextet
      4     -107.286202432774  0.750  doublet
      5     -107.225979566331  0.750  doublet
      6     -107.198349948652  3.750  quartet
      7     -107.175642438593  0.750  doublet
      8     -107.150869227106  3.750  quartet
      9     -107.121040741798  0.750  doublet
     10     -107.085705335317  0.750  doublet
     11     -106.989124696018  0.750  doublet
     12     -106.981994337503  0.750  doublet
     13     -106.917292710742  0.750  doublet
     14     -106.789147610901  3.750  quartet
     15     -106.773088165596  3.750  quartet
     16     -106.751327152409  0.750  doublet
     17     -106.659052841172  0.750  doublet
     18     -106.642641670829  0.750  doublet
     19     -106.093848824884  0.750  doublet
  ---------------------------------------------
  Timing for initial guess  =      0.001 s

  Projecting out root 1
  Projecting out root 2
  Projecting out root 3
  Projecting out root 6
  Projecting out root 8
  Projecting out root 14
  Projecting out root 15

  ==> Diagonalizing Hamiltonian <==

  Energy   convergence: 1.00e-08
  Residual convergence: 1.00e-06
  -----------------------------------------------------
    Iter.      Avg. Energy       Delta_E     Res. Norm
  -----------------------------------------------------
      1     -108.479400364112  -1.085e+02  +4.493e-01
      2     -108.570301168388  -9.090e-02  +1.655e-01
      3     -108.579396629101  -9.095e-03  +8.205e-02
      4     -108.581479210307  -2.083e-03  +3.256e-02
      5     -108.581844880573  -3.657e-04  +1.249e-02
      6     -108.581889375182  -4.449e-05  +4.041e-03
      7     -108.581893715526  -4.340e-06  +1.271e-03
      8     -108.581894214529  -4.990e-07  +3.469e-04
      9     -108.581894252240  -3.771e-08  +9.503e-05
     10     -108.581894254960  -2.719e-09  +3.292e-05
     11     -108.581894255397  -4.370e-10  +1.126e-05
     12     -108.581894255436  -3.976e-11  +4.157e-06
     13     -108.581894255441  -4.206e-12  +1.931e-06
     14     -108.581894255442  -9.095e-13  +5.813e-07
  -----------------------------------------------------
  The Davidson-Liu algorithm converged in 15 iterations.

  ==> Root No. 0 <==

    2a 0 0 20 2 2     -0.93357480
    2a 0 2 20 0 2      0.12895748
    2a 2 0 20 2 0      0.12895748
    22 a 0 a0 2 b      0.11920983
    22 0 a a0 b 2     -0.11920983

    Total Energy:      -108.581894255441611

  ==> Energy Summary <==

    Multi.(2ms)  Irrep.  No.               Energy
    ---------------------------------------------
       2  (  1)    Ag     0     -108.581894255442
    ---------------------------------------------

  Time to prepare integrals:        0.042 seconds
  Time to run job          :        0.398 seconds
  Total                    :        0.398 seconds
         ----------------------------------------------------------
                                   FINDIF
                     R. A. King and Jonathon Misiewicz
         ---------------------------------------------------------

  Computing gradient from energies.
    Using 5-point formula.
    Energy without displacement: -108.5819042867
    Check energies below for precision!
    Forces are for mass-weighted, symmetry-adapted cartesians (in au).

     Coord      Energy(-2)        Energy(-1)        Energy(+1)        Energy(+2)            Force
        0   -108.5818959937   -108.5819024131   -108.5819015792   -108.5818942554      0.0000822066


-------------------------------------------------------------
  ## New Matrix (Symmetry 0) ##
  Irrep: 1 Size: 2 x 3

                 1                   2                   3

    1     0.00000000000000     0.00000000000000     0.00021752207578
    2     0.00000000000000     0.00000000000000    -0.00021752207578




			-----------------------------------------
			 OPTKING 2.0: for geometry optimizations 
			  - R.A. King,  Bethel University        
			-----------------------------------------

	Previous internal coordinate definitions found.
	---Fragment 1 Geometry and Gradient---
	 N           0.0000000000        0.0000000000       -1.0715201838
	 N           0.0000000000        0.0000000000        1.0715201838
	             0.0000000000        0.0000000000        0.0002175221
	             0.0000000000        0.0000000000       -0.0002175221

	---Fragment 1 Intrafragment Coordinates---
	 - Coordinate -           - BOHR/RAD -       - ANG/DEG -
	 R(1,2)           =         2.143040	       1.134048

	Current energy   :      -108.5819042867

	Energy change for the previous step:
		Projected    :        -0.0000014095
		Actual       :        -0.0000012000

	Performing BFGS update.
	Previous computed or guess Hessian on step 1.
	Steps to be used in Hessian update: 3 2
	Taking RFO optimization step.
	Going to follow RFO solution 1.
	Using RFO vector 1.
	Norm of target step-size    0.00017
	Projected energy change by RFO approximation:        -0.0000000223

	Back-transformation to cartesian coordinates...
	Successfully converged to displaced geometry.

	--- Internal Coordinate Step in ANG or DEG, aJ/ANG or AJ/DEG ---
	 ---------------------------------------------------------------------------
	   Coordinate                Previous        Force       Change         New 
	   ----------                --------       ------       ------       ------
	    1 R(1,2)          =      1.134048     0.001792     0.000088     1.134136
	 ---------------------------------------------------------------------------
	Successfully symmetrized geometry.

  ==> Convergence Check <==

  Measures of convergence in internal coordinates in au.
  Criteria marked as inactive (o), active & met (*), and active & unmet ( ).
  ---------------------------------------------------------------------------------------------
   Step     Total Energy     Delta E     MAX Force     RMS Force      MAX Disp      RMS Disp   
  ---------------------------------------------------------------------------------------------
    Convergence Criteria    1.00e-06 *    3.00e-04 *             o    1.20e-03 *             o
  ---------------------------------------------------------------------------------------------
      4    -108.58190429   -1.20e-06      2.18e-04 *    2.18e-04 o    1.66e-04 *    1.66e-04 o  ~
  ---------------------------------------------------------------------------------------------


  **** Optimization is complete! (in 4 steps) ****

  ==> Optimization Summary <==

  Measures of convergence in internal coordinates in au.
  --------------------------------------------------------------------------------------------------------------- ~
   Step         Total Energy             Delta E       MAX Force       RMS Force        MAX Disp        RMS Disp  ~
  --------------------------------------------------------------------------------------------------------------- ~
      1    -108.578990567074   -108.578990567074      0.09433858      0.09433858      0.05323192      0.05323192  ~
      2    -108.581821489505     -0.002830922431      0.01479729      0.01479729      0.00990191      0.00990191  ~
      3    -108.581903086617     -0.000081597111      0.00177090      0.00177090      0.00120780      0.00120780  ~
      4    -108.581904286659     -0.000001200043      0.00021752      0.00021752      0.00016575      0.00016575  ~
  --------------------------------------------------------------------------------------------------------------- ~

	Writing optimization data to binary file.
	Final energy is   -108.5819042866591
	Final (previous) structure:
	Cartesian Geometry (in Angstrom)
	    N     0.0000000000   0.0000000000  -0.5670240598
	    N     0.0000000000   0.0000000000   0.5670240598
	Saving final (previous) structure.
			--------------------------
			 OPTKING Finished Execution 
			--------------------------

    Final optimized geometry and variables:
    Molecular point group: d2h
    Full point group: D_inf_h

    Geometry (in Angstrom), charge = 1, multiplicity = 2:

    N       
    N             1    1.134048

	Removing binary optimization data file.
	Cleaning optimization helper files.
    CASSCF(9e,8o)/cc-pVDZ on N2+ @ Re.....................................................PASSED
    Molecular point group: d2h
    Full point group: D_inf_h

    Geometry (in Angstrom), charge = 1, multiplicity = 2:

       Center              X                  Y                   Z               Mass       
    ------------   -----------------  -----------------  -----------------  -----------------
         N            0.000000000000     0.000000000000    -0.567024062056    14.003074004430
         N            0.000000000000     0.000000000000     0.567024062056    14.003074004430

    CASSCF(9e,8o)/cc-pVDZ optimized bond length...........................................PASSED

    Psi4 stopped on: Thursday, 10 December 2020 12:16PM
    Psi4 wall time for execution: 0:00:14.12

*** Psi4 exiting successfully. Buy a developer a beer!
