
    -----------------------------------------------------------------------
          Psi4: An Open-Source Ab Initio Electronic Structure Package
                               Psi4 undefined 

                         Git: Rev {HEAD} f016cba 


    D. G. A. Smith, L. A. Burns, A. C. Simmonett, R. M. Parrish,
    M. C. Schieber, R. Galvelis, P. Kraus, H. Kruse, R. Di Remigio,
    A. Alenaizan, A. M. James, S. Lehtola, J. P. Misiewicz, M. Scheurer,
    R. A. Shaw, J. B. Schriber, Y. Xie, Z. L. Glick, D. A. Sirianni,
    J. S. O'Brien, J. M. Waldrop, A. Kumar, E. G. Hohenstein,
    B. P. Pritchard, B. R. Brooks, H. F. Schaefer III, A. Yu. Sokolov,
    K. Patkowski, A. E. DePrince III, U. Bozkaya, R. A. King,
    F. A. Evangelista, J. M. Turney, T. D. Crawford, C. D. Sherrill,
    J. Chem. Phys. 152(18) 184108 (2020). https://doi.org/10.1063/5.0006002

                            Additional Code Authors
    E. T. Seidl, C. L. Janssen, E. F. Valeev, M. L. Leininger,
    J. F. Gonthier, R. M. Richard, H. R. McAlexander, M. Saitow, X. Wang,
    P. Verma, M. H. Lechner, and A. Jiang

             Previous Authors, Complete List of Code Contributors,
                       and Citations for Specific Modules
    https://github.com/psi4/psi4/blob/master/codemeta.json
    https://github.com/psi4/psi4/graphs/contributors
    http://psicode.org/psi4manual/master/introduction.html#citing-psifour

    -----------------------------------------------------------------------


    Psi4 started on: Sunday, 27 February 2022 07:05PM

    Process ID: 95253
    Host:       Yorks-Mac.local
    PSIDATADIR: /Users/york/src/psi4new/psi4/share/psi4
    Memory:     500.0 MiB
    Threads:    2
    
  ==> Input File <==

--------------------------------------------------------------------------
#! Generated using commit GITCOMMIT

import forte

memory 500 mb

Ecas_psi4 = -149.707631190543310
Ept2_ur   = -149.963420450775175
Ept2_pr   = -149.965037165884098
Ept2_r    = -149.965430919850434

molecule {
0 3
O
O 1 1.251
}

set globals{
  basis                  cc-pvdz
  reference              rohf
  scf_type               pk
  e_convergence          12
  d_convergence          8
  mcscf_e_convergence    12
  mcscf_r_convergence    8
  mcscf_diis_start       10
  mcscf_max_rot          0.2
  reference_sym          1
  restricted_docc        [2,0,0,0,0,2,0,0]
  active                 [1,0,1,1,0,1,1,1]
}
#Ecas, wfn = energy('casscf', return_wfn=True)
#compare_values(Ecas_psi4, Ecas, 9, "CASSCF(6,6)/cc-pVDZ (PSI4) energy")

set scf_type direct
set forte{
  job_type               casscf
  casscf_ci_solver       fci
  restricted_docc        [2,0,0,0,0,2,0,0]
  active                 [1,0,1,1,0,1,1,1]
  root_sym               1
  e_convergence          12
  r_convergence          8
  casscf_g_convergence   1e-8
  casscf_e_convergence   1e-12
  ms                     1.0
}
Escf, wfn = energy('scf', return_wfn=True)
Ecas, wfn = energy('forte', ref_wfn=wfn, return_wfn=True)
compare_values(Ecas_psi4, Ecas, 9, "CASSCF(6,6)/cc-pVDZ (FORTE) energy")

set forte{
  job_type               newdriver
  active_space_solver    cas
  correlation_solver     sa-mrdsrg
  corr_level             pt2
  frozen_docc            [1,0,0,0,0,1,0,0]
  restricted_docc        [1,0,0,0,0,1,0,0]
  active                 [1,0,1,1,0,1,1,1]
  root_sym               1
  dsrg_s                 1.0
  relax_ref              twice
  e_convergence          12
  r_convergence          8
  dsrg_3rdm_algorithm    direct
}
energy('forte', ref_wfn=wfn)
names = ["UNRELAXED ENERGY", "PARTIALLY RELAXED ENERGY", "RELAXED ENERGY"]
refs = [Ept2_ur, Ept2_pr, Ept2_r]
for name, Eref in zip(names, refs):
    compare_values(Eref, variable(name), 9, "DSRG-MRPT2 " + name.lower())
--------------------------------------------------------------------------

  Memory set to 476.837 MiB by Python driver.

Scratch directory: /Users/york/scratch/psi4/

*** tstart() called on Yorks-Mac.local
*** at Sun Feb 27 19:05:47 2022

   => Loading Basis Set <=

    Name: CC-PVDZ
    Role: ORBITAL
    Keyword: BASIS
    atoms 1-2 entry O          line   198 file /Users/york/src/psi4new/psi4/share/psi4/basis/cc-pvdz.gbs 


         ---------------------------------------------------------
                                   SCF
               by Justin Turney, Rob Parrish, Andy Simmonett
                          and Daniel G. A. Smith
                             ROHF Reference
                        2 Threads,    476 MiB Core
         ---------------------------------------------------------

  ==> Geometry <==

    Molecular point group: d2h
    Full point group: D_inf_h

    Geometry (in Angstrom), charge = 0, multiplicity = 3:

       Center              X                  Y                   Z               Mass       
    ------------   -----------------  -----------------  -----------------  -----------------
         O            0.000000000000     0.000000000000    -0.625500000000    15.994914619570
         O            0.000000000000     0.000000000000     0.625500000000    15.994914619570

  Running in d2h symmetry.

  Rotational constants: A = ************  B =      1.34688  C =      1.34688 [cm^-1]
  Rotational constants: A = ************  B =  40378.54350  C =  40378.54350 [MHz]
  Nuclear repulsion =   27.072215413972827

  Charge       = 0
  Multiplicity = 3
  Electrons    = 16
  Nalpha       = 9
  Nbeta        = 7

  ==> Algorithm <==

  SCF Algorithm Type is DIRECT.
  DIIS enabled.
  MOM disabled.
  Fractional occupation disabled.
  Guess Type is SAD.
  Energy threshold   = 1.00e-12
  Density threshold  = 1.00e-08
  Integral threshold = 1.00e-12

  ==> Primary Basis <==

  Basis Set: CC-PVDZ
    Blend: CC-PVDZ
    Number of shells: 12
    Number of basis functions: 28
    Number of Cartesian functions: 30
    Spherical Harmonics?: true
    Max angular momentum: 2

   => Loading Basis Set <=

    Name: (CC-PVDZ AUX)
    Role: JKFIT
    Keyword: DF_BASIS_SCF
    atoms 1-2 entry O          line   221 file /Users/york/src/psi4new/psi4/share/psi4/basis/cc-pvdz-jkfit.gbs 

  Starting with a DF guess...

  ==> Integral Setup <==

  DFHelper Memory: AOs need 0.001 GiB; user supplied 0.349 GiB. Using in-core AOs.

  ==> MemDFJK: Density-Fitted J/K Matrices <==

    J tasked:                   Yes
    K tasked:                   Yes
    wK tasked:                   No
    OpenMP threads:               2
    Memory [MiB]:               357
    Algorithm:                 Core
    Schwarz Cutoff:           1E-12
    Mask sparsity (%):       0.0000
    Fitting Condition:        1E-10

   => Auxiliary Basis Set <=

  Basis Set: (CC-PVDZ AUX)
    Blend: CC-PVDZ-JKFIT
    Number of shells: 48
    Number of basis functions: 140
    Number of Cartesian functions: 162
    Spherical Harmonics?: true
    Max angular momentum: 3

  Minimum eigenvalue in the overlap matrix is 3.4249829088E-02.
  Reciprocal condition number of the overlap matrix is 1.3555095415E-02.
    Using symmetric orthogonalization.

  ==> Pre-Iterations <==

  SCF Guess: Superposition of Atomic Densities via on-the-fly atomic UHF (no occupation information).

   -------------------------
    Irrep   Nso     Nmo    
   -------------------------
     Ag         7       7 
     B1g        1       1 
     B2g        3       3 
     B3g        3       3 
     Au         1       1 
     B1u        7       7 
     B2u        3       3 
     B3u        3       3 
   -------------------------
    Total      28      28
   -------------------------

  ==> Iterations <==

                           Total Energy        Delta E     RMS |[F,P]|

   @DF-ROHF iter SAD:  -148.72240130745499   -1.48722e+02   0.00000e+00 
   @DF-ROHF iter   1:  -149.57520016904610   -8.52799e-01   1.59321e-02 DIIS
   @DF-ROHF iter   2:  -149.59509284740005   -1.98927e-02   4.47057e-03 DIIS
   @DF-ROHF iter   3:  -149.59666744646546   -1.57460e-03   6.59290e-04 DIIS
   @DF-ROHF iter   4:  -149.59672286344113   -5.54170e-05   1.53141e-04 DIIS
   @DF-ROHF iter   5:  -149.59672691093041   -4.04749e-06   1.87131e-05 DIIS
   @DF-ROHF iter   6:  -149.59672697382351   -6.28931e-08   1.62776e-06 DIIS
   @DF-ROHF iter   7:  -149.59672697425637   -4.32863e-10   1.73238e-07 DIIS
   @DF-ROHF iter   8:  -149.59672697426157   -5.20117e-12   9.75769e-09 DIIS
   @DF-ROHF iter   9:  -149.59672697426154    2.84217e-14   4.34807e-10 DIIS

  DF guess converged.

  ==> DirectJK: Integral-Direct J/K Matrices <==

    J tasked:                  Yes
    K tasked:                  Yes
    wK tasked:                  No
    Integrals threads:           2
    Screening Type:           CSAM
    Screening Cutoff:        1E-12
    Incremental Fock:           No

   @ROHF iter  10:  -149.59705784496029   -1.49597e+02   5.92945e-05 DIIS
   @ROHF iter  11:  -149.59705813744645   -2.92486e-07   1.09648e-05 DIIS
   @ROHF iter  12:  -149.59705814804849   -1.06020e-08   2.83913e-06 DIIS
   @ROHF iter  13:  -149.59705814886215   -8.13657e-10   5.55151e-07 DIIS
   @ROHF iter  14:  -149.59705814889895   -3.68061e-11   1.28177e-07 DIIS
   @ROHF iter  15:  -149.59705814890137   -2.41585e-12   1.08756e-08 DIIS
   @ROHF iter  16:  -149.59705814890143   -5.68434e-14   8.40018e-10 DIIS
  Energy and wave function converged.


  ==> Post-Iterations <==

    Orbital Energies [Eh]
    ---------------------

    Doubly Occupied:                                                      

       1Ag   -20.735902     1B1u  -20.735104     2Ag    -1.616638  
       2B1u   -1.112814     3Ag    -0.716975     1B2u   -0.684776  
       1B3u   -0.684776  

    Singly Occupied:                                                      

       1B3g   -0.225076     1B2g   -0.225076  

    Virtual:                                                              

       3B1u    0.409758     4B1u    1.067983     2B3u    1.111184  
       2B2u    1.111184     4Ag     1.174692     2B3g    1.215083  
       2B2g    1.215083     5Ag     1.341753     5B1u    1.945030  
       3B2u    2.411038     3B3u    2.411038     1B1g    2.707852  
       6Ag     2.707852     1Au     2.985893     6B1u    2.985893  
       7Ag     3.059014     3B3g    3.600802     3B2g    3.600802  
       7B1u    4.186933  

    Final Occupation by Irrep:
             Ag   B1g   B2g   B3g    Au   B1u   B2u   B3u 
    DOCC [     3,    0,    0,    0,    0,    2,    1,    1 ]
    SOCC [     0,    0,    1,    1,    0,    0,    0,    0 ]

  @ROHF Final Energy:  -149.59705814890143

   => Energetics <=

    Nuclear Repulsion Energy =             27.0722154139728275
    One-Electron Energy =                -259.6755862671871000
    Two-Electron Energy =                  83.0063127043128617
    Total Energy =                       -149.5970581489013966

Computation Completed


Properties will be evaluated at   0.000000,   0.000000,   0.000000 [a0]

Properties computed using the SCF density matrix

  Nuclear Dipole Moment: [e a0]
     X:     0.0000      Y:     0.0000      Z:     0.0000

  Electronic Dipole Moment: [e a0]
     X:     0.0000      Y:     0.0000      Z:     0.0000

  Dipole Moment: [e a0]
     X:     0.0000      Y:     0.0000      Z:     0.0000     Total:     0.0000

  Dipole Moment: [D]
     X:     0.0000      Y:     0.0000      Z:     0.0000     Total:     0.0000


*** tstop() called on Yorks-Mac.local at Sun Feb 27 19:05:48 2022
Module time:
	user time   =       1.76 seconds =       0.03 minutes
	system time =       0.07 seconds =       0.00 minutes
	total time  =          1 seconds =       0.02 minutes
Total time:
	user time   =       1.76 seconds =       0.03 minutes
	system time =       0.07 seconds =       0.00 minutes
	total time  =          1 seconds =       0.02 minutes

Scratch directory: /Users/york/scratch/psi4/

  Forte
  ----------------------------------------------------------------------------
  A suite of quantum chemistry methods for strongly correlated electrons

    git branch: opt_sf_rdms - git commit: b9259cd2

  Developed by:
    Francesco A. Evangelista, Chenyang Li, Kevin P. Hannon,
    Jeffrey B. Schriber, Tianyuan Zhang, Chenxi Cai,
    Nan He, Nicholas Stair, Shuhe Wang, Renke Huang
  ----------------------------------------------------------------------------

  Size of Determinant class: 128 bits

  Preparing forte objects from a Psi4 Wavefunction object
  Read options for space RESTRICTED_DOCC
  Read options for space ACTIVE
  Read options for space RESTRICTED_DOCC

  ==> MO Space Information <==

  -------------------------------------------------------------------------
                       Ag   B1g   B2g   B3g    Au   B1u   B2u   B3u   Sum
  -------------------------------------------------------------------------
    FROZEN_DOCC         0     0     0     0     0     0     0     0     0
    RESTRICTED_DOCC     2     0     0     0     0     2     0     0     4
    GAS1                1     0     1     1     0     1     1     1     6
    GAS2                0     0     0     0     0     0     0     0     0
    GAS3                0     0     0     0     0     0     0     0     0
    GAS4                0     0     0     0     0     0     0     0     0
    GAS5                0     0     0     0     0     0     0     0     0
    GAS6                0     0     0     0     0     0     0     0     0
    RESTRICTED_UOCC     4     1     2     2     1     4     2     2    18
    FROZEN_UOCC         0     0     0     0     0     0     0     0     0
    Total               7     1     3     3     1     7     3     3    28
  -------------------------------------------------------------------------   => Loading Basis Set <=

    Name: CC-PVDZ
    Role: ORBITAL
    Keyword: BASIS
    atoms 1-2 entry O          line   198 file /Users/york/src/psi4new/psi4/share/psi4/basis/cc-pvdz.gbs 


  Checking orbital orthonormality against current geometry ... Done (OK)

   => Loading Basis Set <=

    Name: STO-3G
    Role: ORBITAL
    Keyword: MINAO_BASIS
    atoms 1-2 entry O          line    81 file /Users/york/src/psi4new/psi4/share/psi4/basis/sto-3g.gbs 


  Forte will use psi4 integrals

  ==> Primary Basis Set Summary <==

  Basis Set: CC-PVDZ
    Blend: CC-PVDZ
    Number of shells: 12
    Number of basis functions: 28
    Number of Cartesian functions: 30
    Spherical Harmonics?: true
    Max angular momentum: 2


  JK created using conventional PK integrals
  Using in-core PK algorithm.
   Calculation information:
      Number of atoms:                   2
      Number of AO shells:              12
      Number of primitives:             44
      Number of atomic orbitals:        30
      Number of basis functions:        28

      Integral cutoff                 1.00e-12
      Number of threads:                 2

  Performing in-core PK
  Using 165242 doubles for integral storage.
  We computed 3774 shell quartets total.
  Whereas there are 3081 unique shell quartets.
    22.49 percent of shell quartets recomputed by reordering.

  ==> DiskJK: Disk-Based J/K Matrices <==

    J tasked:                  Yes
    K tasked:                  Yes
    wK tasked:                  No
    Memory [MiB]:              381
    Schwarz Cutoff:          1E-12

    OpenMP threads:              2



  ==> Integral Transformation <==

  Number of molecular orbitals:                         28
  Number of correlated molecular orbitals:              28
  Number of frozen occupied orbitals:                    0
  Number of frozen unoccupied orbitals:                  0
  Two-electron integral type:                 Conventional


  Computing Conventional Integrals	Presorting SO-basis two-electron integrals.
	Sorting File: SO Ints (nn|nn) nbuckets = 1
	Constructing frozen core operators
	Starting first half-transformation.
	Sorting half-transformed integrals.
	First half integral transformation complete.
	Starting second half-transformation.
	Two-electron integral transformation complete.

  Integral transformation done. 0.01905800 s
  Reading the two-electron integrals from disk
  Size of two-electron integrals:   0.013739 GB
  Timing for conventional integral transformation:            0.195 s.
  Timing for freezing core and virtual orbitals:              0.000 s.
  Timing for computing conventional integrals:                0.195 s.

                -----------------------------------------------
                  Complete Active Space Self Consistent Field
                                 Kevin Hannon
                -----------------------------------------------


  ==> CASSCF Iteration <==

  iter    ||g||           Delta_E            E_CASSCF       CONV_TYPE

  Transform Integrals takes 0.03213600 s.

  Performing a CAS with FCI

  ==> Summary of Active Space Solver Input <==

    Irrep.  Multi.(2ms)      N
    --------------------------
      B1g      3  (  2)      1
    --------------------------
    N: number of roots
    ms: spin z component
    Total number of roots:   1
    --------------------------


  ==> String Lists <==

  Number of alpha electrons     = 5
  Number of beta electrons      = 3
  Number of alpha strings       = 6
  Number of beta strings        = 20
  Number of alpha strings (N-3) = 15
  Number of beta strings (N-3)  = 1
  Timing for strings        =      0.000 s
  Timing for NN strings     =      0.000 s
  Timing for VO strings     =      0.001 s
  Timing for OO strings     =      0.000 s
  Timing for VVOO strings   =      0.000 s
  Timing for VOVO strings   =      0.000 s
  Timing for 1-hole strings =      0.000 s
  Timing for 2-hole strings =      0.000 s
  Timing for 3-hole strings =      0.001 s
  Total timing              =      0.001 s

  ==> FCI Solver <==

    Number of determinants                          16
    Symmetry                                         1
    Multiplicity                                     3
    Number of roots                                  1
    Target root                                      0
    Trial vectors per root                          10

  Allocating memory for the Hamiltonian algorithm. Size: 2 x 4 x 4.   Memory: 0.000000 GB

  ==> FCI Initial Guess <==

  ---------------------------------------------
    Root            Energy     <S^2>   Spin
  ---------------------------------------------
      0     -149.672675036906  2.000  triplet
      1     -149.096744766481  2.000  triplet
      2     -148.972751899348  6.000  quintet
      3     -148.918832513386  2.000  triplet
      4     -148.855073576707  2.000  triplet
      5     -148.681431612542  2.000  triplet
      6     -148.652250108568  6.000  quintet
      7     -148.565204661510  2.000  triplet
      8     -148.534850131986  2.000  triplet
      9     -148.512007199106  2.000  triplet
     10     -148.484370135661  2.000  triplet
     11     -148.443862607074  2.000  triplet
     12     -148.175081691699  2.000  triplet
     13     -148.163644726465  2.000  triplet
     14     -148.090428889975  2.000  triplet
     15     -147.453019062477  2.000  triplet
  ---------------------------------------------
  Timing for initial guess  =      0.004 s

  Projecting out root 2
  Projecting out root 6

  ==> Diagonalizing Hamiltonian <==

  Energy   convergence: 1.00e-12
  Residual convergence: 1.00e-08
  -----------------------------------------------------
    Iter.      Avg. Energy       Delta_E     Res. Norm
  -----------------------------------------------------
      1     -149.672675036906  -1.497e+02  +1.509e-13
      2     -149.672675036906  +0.000e+00  +1.509e-13
  -----------------------------------------------------
  The Davidson-Liu algorithm converged in 3 iterations.

  ==> Root No. 0 <==

    2 a a 0 2 2     -0.96777026
    2 2 2 0 a a     -0.19851523

    Total Energy:    -149.672675036906, <S^2>: 2.000000

  ==> Energy Summary <==

    Multi.(2ms)  Irrep.  No.               Energy      <S^2>
    --------------------------------------------------------
       3  (  2)   B1g     0     -149.672675036906   2.000000
    --------------------------------------------------------

  ==> Computing RDMs for Root No. 0 <==

    Timing for 1-RDM: 0.000 s
    Timing for 2-RDM: 0.002 s

  ==> NATURAL ORBITALS <==

        1Ag     1.972605      1B2u    1.949245      1B3u    1.949245  
        1B3g    1.050007      1B2g    1.050007      1B1u    0.028891  


 CAS took 0.020216 seconds.

 FormFockIntermediates took 0.00752300 s.

 FormOrbitalGradient took 0.00060700 s.

 FormDiagHessian took 0.00007700 s.

 Update function takes 0.00824800 s
    1 0.009647132309  -149.672675036906  -149.672675036906    0.1 s       ~

  Transform Integrals takes 0.03204200 s.

  Performing a CAS with FCI

  ==> Summary of Active Space Solver Input <==

    Irrep.  Multi.(2ms)      N
    --------------------------
      B1g      3  (  2)      1
    --------------------------
    N: number of roots
    ms: spin z component
    Total number of roots:   1
    --------------------------


  ==> String Lists <==

  Number of alpha electrons     = 5
  Number of beta electrons      = 3
  Number of alpha strings       = 6
  Number of beta strings        = 20
  Number of alpha strings (N-3) = 15
  Number of beta strings (N-3)  = 1
  Timing for strings        =      0.000 s
  Timing for NN strings     =      0.000 s
  Timing for VO strings     =      0.001 s
  Timing for OO strings     =      0.000 s
  Timing for VVOO strings   =      0.000 s
  Timing for VOVO strings   =      0.000 s
  Timing for 1-hole strings =      0.000 s
  Timing for 2-hole strings =      0.000 s
  Timing for 3-hole strings =      0.001 s
  Total timing              =      0.001 s

  ==> FCI Solver <==

    Number of determinants                          16
    Symmetry                                         1
    Multiplicity                                     3
    Number of roots                                  1
    Target root                                      0
    Trial vectors per root                          10

  Allocating memory for the Hamiltonian algorithm. Size: 2 x 4 x 4.   Memory: 0.000000 GB

  ==> FCI Initial Guess <==

  ---------------------------------------------
    Root            Energy     <S^2>   Spin
  ---------------------------------------------
      0     -149.692452000998  2.000  triplet
      1     -149.136886274638  2.000  triplet
      2     -149.001660877514  6.000  quintet
      3     -148.948123142450  2.000  triplet
      4     -148.887187033453  2.000  triplet
      5     -148.679334806227  6.000  quintet
      6     -148.609317000371  2.000  triplet
      7     -148.599084741199  2.000  triplet
      8     -148.566798500347  2.000  triplet
      9     -148.540465774906  2.000  triplet
     10     -148.517553603078  2.000  triplet
     11     -148.437211685849  2.000  triplet
     12     -148.194276758709  2.000  triplet
     13     -148.194209023234  2.000  triplet
     14     -148.046900605538  2.000  triplet
     15     -147.336330127490  2.000  triplet
  ---------------------------------------------
  Timing for initial guess  =      0.005 s

  Projecting out root 2
  Projecting out root 5

  ==> Diagonalizing Hamiltonian <==

  Energy   convergence: 1.00e-12
  Residual convergence: 1.00e-08
  -----------------------------------------------------
    Iter.      Avg. Energy       Delta_E     Res. Norm
  -----------------------------------------------------
      1     -149.692452000998  -1.497e+02  +1.105e-13
      2     -149.692452000998  +0.000e+00  +1.105e-13
  -----------------------------------------------------
  The Davidson-Liu algorithm converged in 3 iterations.

  ==> Root No. 0 <==

    2 a a 0 2 2      0.96594984
    2 2 2 0 a a      0.17634005

    Total Energy:    -149.692452000998, <S^2>: 2.000000

  ==> Energy Summary <==

    Multi.(2ms)  Irrep.  No.               Energy      <S^2>
    --------------------------------------------------------
       3  (  2)   B1g     0     -149.692452000998   2.000000
    --------------------------------------------------------

  ==> Computing RDMs for Root No. 0 <==

    Timing for 1-RDM: 0.000 s
    Timing for 2-RDM: 0.002 s

  ==> NATURAL ORBITALS <==

        1Ag     1.957041      1B3u    1.952626      1B2u    1.952626  
        1B2g    1.046422      1B3g    1.046422      1B1u    0.044863  


 CAS took 0.022881 seconds.

 FormFockIntermediates took 0.00787700 s.

 FormOrbitalGradient took 0.00056100 s.

 FormDiagHessian took 0.00008000 s.

 Update function takes 0.00855500 s
    2 0.007833715750    -0.019776964092  -149.692452000998    0.1 s       ~

  Transform Integrals takes 0.03298700 s.

  Performing a CAS with FCI

  ==> Summary of Active Space Solver Input <==

    Irrep.  Multi.(2ms)      N
    --------------------------
      B1g      3  (  2)      1
    --------------------------
    N: number of roots
    ms: spin z component
    Total number of roots:   1
    --------------------------


  ==> String Lists <==

  Number of alpha electrons     = 5
  Number of beta electrons      = 3
  Number of alpha strings       = 6
  Number of beta strings        = 20
  Number of alpha strings (N-3) = 15
  Number of beta strings (N-3)  = 1
  Timing for strings        =      0.000 s
  Timing for NN strings     =      0.000 s
  Timing for VO strings     =      0.001 s
  Timing for OO strings     =      0.000 s
  Timing for VVOO strings   =      0.000 s
  Timing for VOVO strings   =      0.000 s
  Timing for 1-hole strings =      0.000 s
  Timing for 2-hole strings =      0.000 s
  Timing for 3-hole strings =      0.001 s
  Total timing              =      0.001 s

  ==> FCI Solver <==

    Number of determinants                          16
    Symmetry                                         1
    Multiplicity                                     3
    Number of roots                                  1
    Target root                                      0
    Trial vectors per root                          10

  Allocating memory for the Hamiltonian algorithm. Size: 2 x 4 x 4.   Memory: 0.000000 GB

  ==> FCI Initial Guess <==

  ---------------------------------------------
    Root            Energy     <S^2>   Spin
  ---------------------------------------------
      0     -149.705451352780  2.000  triplet
      1     -149.149942323325  2.000  triplet
      2     -148.942353034946  6.000  quintet
      3     -148.888900183722  2.000  triplet
      4     -148.830233007143  2.000  triplet
      5     -148.618033685226  6.000  quintet
      6     -148.508620861695  2.000  triplet
      7     -148.491146000987  2.000  triplet
      8     -148.480769803065  2.000  triplet
      9     -148.457000110000  2.000  triplet
     10     -148.414077983549  2.000  triplet
     11     -148.307575356279  2.000  triplet
     12     -148.081613982410  2.000  triplet
     13     -148.080540159671  2.000  triplet
     14     -147.838915790191  2.000  triplet
     15     -147.070803656516  2.000  triplet
  ---------------------------------------------
  Timing for initial guess  =      0.004 s

  Projecting out root 2
  Projecting out root 5

  ==> Diagonalizing Hamiltonian <==

  Energy   convergence: 1.00e-12
  Residual convergence: 1.00e-08
  -----------------------------------------------------
    Iter.      Avg. Energy       Delta_E     Res. Norm
  -----------------------------------------------------
      1     -149.705451352779  -1.497e+02  +1.980e-13
      2     -149.705451352779  +0.000e+00  +1.980e-13
  -----------------------------------------------------
  The Davidson-Liu algorithm converged in 3 iterations.

  ==> Root No. 0 <==

    2 a a 0 2 2     -0.96564827
    2 2 2 0 a a     -0.16705242

    Total Energy:    -149.705451352779, <S^2>: 2.000000

  ==> Energy Summary <==

    Multi.(2ms)  Irrep.  No.               Energy      <S^2>
    --------------------------------------------------------
       3  (  2)   B1g     0     -149.705451352779   2.000000
    --------------------------------------------------------

  ==> Computing RDMs for Root No. 0 <==

    Timing for 1-RDM: 0.000 s
    Timing for 2-RDM: 0.002 s

  ==> NATURAL ORBITALS <==

        1B3u    1.954984      1B2u    1.954984      1Ag     1.950675  
        1B2g    1.044154      1B3g    1.044154      1B1u    0.051050  


 CAS took 0.020648 seconds.

 FormFockIntermediates took 0.00687800 s.

 FormOrbitalGradient took 0.00050800 s.

 FormDiagHessian took 0.00007300 s.

 Update function takes 0.00749000 s
    3 0.003546730554    -0.012999351781  -149.705451352779    0.1 s       ~

  Transform Integrals takes 0.03261000 s.

  Performing a CAS with FCI

  ==> Summary of Active Space Solver Input <==

    Irrep.  Multi.(2ms)      N
    --------------------------
      B1g      3  (  2)      1
    --------------------------
    N: number of roots
    ms: spin z component
    Total number of roots:   1
    --------------------------


  ==> String Lists <==

  Number of alpha electrons     = 5
  Number of beta electrons      = 3
  Number of alpha strings       = 6
  Number of beta strings        = 20
  Number of alpha strings (N-3) = 15
  Number of beta strings (N-3)  = 1
  Timing for strings        =      0.000 s
  Timing for NN strings     =      0.000 s
  Timing for VO strings     =      0.001 s
  Timing for OO strings     =      0.000 s
  Timing for VVOO strings   =      0.000 s
  Timing for VOVO strings   =      0.000 s
  Timing for 1-hole strings =      0.000 s
  Timing for 2-hole strings =      0.000 s
  Timing for 3-hole strings =      0.001 s
  Total timing              =      0.001 s

  ==> FCI Solver <==

    Number of determinants                          16
    Symmetry                                         1
    Multiplicity                                     3
    Number of roots                                  1
    Target root                                      0
    Trial vectors per root                          10

  Allocating memory for the Hamiltonian algorithm. Size: 2 x 4 x 4.   Memory: 0.000000 GB

  ==> FCI Initial Guess <==

  ---------------------------------------------
    Root            Energy     <S^2>   Spin
  ---------------------------------------------
      0     -149.707307581043  2.000  triplet
      1     -149.148165824251  2.000  triplet
      2     -148.899111810460  6.000  quintet
      3     -148.845691476453  2.000  triplet
      4     -148.787349299276  2.000  triplet
      5     -148.574429616606  6.000  quintet
      6     -148.465363996221  2.000  triplet
      7     -148.437180281096  2.000  triplet
      8     -148.418777450128  2.000  triplet
      9     -148.385279060253  2.000  triplet
     10     -148.344866461969  2.000  triplet
     11     -148.230238421160  2.000  triplet
     12     -148.007861205712  2.000  triplet
     13     -148.007316942035  2.000  triplet
     14     -147.724872235259  2.000  triplet
     15     -146.945467988296  2.000  triplet
  ---------------------------------------------
  Timing for initial guess  =      0.004 s

  Projecting out root 2
  Projecting out root 5

  ==> Diagonalizing Hamiltonian <==

  Energy   convergence: 1.00e-12
  Residual convergence: 1.00e-08
  -----------------------------------------------------
    Iter.      Avg. Energy       Delta_E     Res. Norm
  -----------------------------------------------------
      1     -149.707307581043  -1.497e+02  +2.218e-13
      2     -149.707307581043  +0.000e+00  +2.218e-13
  -----------------------------------------------------
  The Davidson-Liu algorithm converged in 3 iterations.

  ==> Root No. 0 <==

    2 a a 0 2 2     -0.96611987
    2 2 2 0 a a     -0.16685825

    Total Energy:    -149.707307581043, <S^2>: 2.000000

  ==> Energy Summary <==

    Multi.(2ms)  Irrep.  No.               Energy      <S^2>
    --------------------------------------------------------
       3  (  2)   B1g     0     -149.707307581043   2.000000
    --------------------------------------------------------

  ==> Computing RDMs for Root No. 0 <==

    Timing for 1-RDM: 0.000 s
    Timing for 2-RDM: 0.002 s

  ==> NATURAL ORBITALS <==

        1B2u    1.955727      1B3u    1.955727      1Ag     1.951207  
        1B2g    1.043500      1B3g    1.043500      1B1u    0.050340  


 CAS took 0.020253 seconds.

 FormFockIntermediates took 0.00677100 s.

 FormOrbitalGradient took 0.00049000 s.

 FormDiagHessian took 0.00007400 s.

 Update function takes 0.00736600 s
    4 0.001465251913    -0.001856228264  -149.707307581043    0.1 s       ~

  Transform Integrals takes 0.03217500 s.

  Performing a CAS with FCI

  ==> Summary of Active Space Solver Input <==

    Irrep.  Multi.(2ms)      N
    --------------------------
      B1g      3  (  2)      1
    --------------------------
    N: number of roots
    ms: spin z component
    Total number of roots:   1
    --------------------------


  ==> String Lists <==

  Number of alpha electrons     = 5
  Number of beta electrons      = 3
  Number of alpha strings       = 6
  Number of beta strings        = 20
  Number of alpha strings (N-3) = 15
  Number of beta strings (N-3)  = 1
  Timing for strings        =      0.000 s
  Timing for NN strings     =      0.000 s
  Timing for VO strings     =      0.001 s
  Timing for OO strings     =      0.000 s
  Timing for VVOO strings   =      0.000 s
  Timing for VOVO strings   =      0.000 s
  Timing for 1-hole strings =      0.000 s
  Timing for 2-hole strings =      0.000 s
  Timing for 3-hole strings =      0.001 s
  Total timing              =      0.001 s

  ==> FCI Solver <==

    Number of determinants                          16
    Symmetry                                         1
    Multiplicity                                     3
    Number of roots                                  1
    Target root                                      0
    Trial vectors per root                          10

  Allocating memory for the Hamiltonian algorithm. Size: 2 x 4 x 4.   Memory: 0.000000 GB

  ==> FCI Initial Guess <==

  ---------------------------------------------
    Root            Energy     <S^2>   Spin
  ---------------------------------------------
      0     -149.707548838753  2.000  triplet
      1     -149.146982645107  2.000  triplet
      2     -148.885260214215  6.000  quintet
      3     -148.831702244819  2.000  triplet
      4     -148.773298774360  2.000  triplet
      5     -148.560654643761  6.000  quintet
      6     -148.451383014486  2.000  triplet
      7     -148.423325653111  2.000  triplet
      8     -148.397726793707  2.000  triplet
      9     -148.364175214768  2.000  triplet
     10     -148.324675711052  2.000  triplet
     11     -148.206269582272  2.000  triplet
     12     -147.986578708568  2.000  triplet
     13     -147.986233570396  2.000  triplet
     14     -147.690173381866  2.000  triplet
     15     -146.909360050417  2.000  triplet
  ---------------------------------------------
  Timing for initial guess  =      0.004 s

  Projecting out root 2
  Projecting out root 5

  ==> Diagonalizing Hamiltonian <==

  Energy   convergence: 1.00e-12
  Residual convergence: 1.00e-08
  -----------------------------------------------------
    Iter.      Avg. Energy       Delta_E     Res. Norm
  -----------------------------------------------------
      1     -149.707548838753  -1.497e+02  +8.619e-14
      2     -149.707548838753  +0.000e+00  +8.619e-14
  -----------------------------------------------------
  The Davidson-Liu algorithm converged in 3 iterations.

  ==> Root No. 0 <==

    2 a a 0 2 2     -0.96629817
    2 2 2 0 a a     -0.16720227

    Total Energy:    -149.707548838753, <S^2>: 2.000000

  ==> Energy Summary <==

    Multi.(2ms)  Irrep.  No.               Energy      <S^2>
    --------------------------------------------------------
       3  (  2)   B1g     0     -149.707548838753   2.000000
    --------------------------------------------------------

  ==> Computing RDMs for Root No. 0 <==

    Timing for 1-RDM: 0.000 s
    Timing for 2-RDM: 0.002 s

  ==> NATURAL ORBITALS <==

        1B2u    1.955897      1B3u    1.955897      1Ag     1.951644  
        1B3g    1.043351      1B2g    1.043351      1B1u    0.049861  


 CAS took 0.019421 seconds.

 FormFockIntermediates took 0.00672000 s.

 FormOrbitalGradient took 0.00047500 s.

 FormDiagHessian took 0.00007400 s.

 Update function takes 0.00729800 s
    5 0.000807433127    -0.000241257710  -149.707548838753    0.1 s  DIIS ~

  Transform Integrals takes 0.03267900 s.

  Performing a CAS with FCI

  ==> Summary of Active Space Solver Input <==

    Irrep.  Multi.(2ms)      N
    --------------------------
      B1g      3  (  2)      1
    --------------------------
    N: number of roots
    ms: spin z component
    Total number of roots:   1
    --------------------------


  ==> String Lists <==

  Number of alpha electrons     = 5
  Number of beta electrons      = 3
  Number of alpha strings       = 6
  Number of beta strings        = 20
  Number of alpha strings (N-3) = 15
  Number of beta strings (N-3)  = 1
  Timing for strings        =      0.000 s
  Timing for NN strings     =      0.000 s
  Timing for VO strings     =      0.001 s
  Timing for OO strings     =      0.000 s
  Timing for VVOO strings   =      0.000 s
  Timing for VOVO strings   =      0.000 s
  Timing for 1-hole strings =      0.000 s
  Timing for 2-hole strings =      0.000 s
  Timing for 3-hole strings =      0.001 s
  Total timing              =      0.001 s

  ==> FCI Solver <==

    Number of determinants                          16
    Symmetry                                         1
    Multiplicity                                     3
    Number of roots                                  1
    Target root                                      0
    Trial vectors per root                          10

  Allocating memory for the Hamiltonian algorithm. Size: 2 x 4 x 4.   Memory: 0.000000 GB

  ==> FCI Initial Guess <==

  ---------------------------------------------
    Root            Energy     <S^2>   Spin
  ---------------------------------------------
      0     -149.707607204938  2.000  triplet
      1     -149.146306563851  2.000  triplet
      2     -148.879125780346  6.000  quintet
      3     -148.825421783072  2.000  triplet
      4     -148.766925496274  2.000  triplet
      5     -148.554545778195  6.000  quintet
      6     -148.445051087269  2.000  triplet
      7     -148.417111586251  2.000  triplet
      8     -148.390785197480  2.000  triplet
      9     -148.355393353816  2.000  triplet
     10     -148.317860146510  2.000  triplet
     11     -148.196128152612  2.000  triplet
     12     -147.979482957435  2.000  triplet
     13     -147.979229840857  2.000  triplet
     14     -147.675565355880  2.000  triplet
     15     -146.894462600914  2.000  triplet
  ---------------------------------------------
  Timing for initial guess  =      0.004 s

  Projecting out root 2
  Projecting out root 5

  ==> Diagonalizing Hamiltonian <==

  Energy   convergence: 1.00e-12
  Residual convergence: 1.00e-08
  -----------------------------------------------------
    Iter.      Avg. Energy       Delta_E     Res. Norm
  -----------------------------------------------------
      1     -149.707607204938  -1.497e+02  +1.272e-13
      2     -149.707607204938  +0.000e+00  +1.272e-13
  -----------------------------------------------------
  The Davidson-Liu algorithm converged in 3 iterations.

  ==> Root No. 0 <==

    2 a a 0 2 2      0.96637667
    2 2 2 0 a a      0.16747429

    Total Energy:    -149.707607204938, <S^2>: 2.000000

  ==> Energy Summary <==

    Multi.(2ms)  Irrep.  No.               Energy      <S^2>
    --------------------------------------------------------
       3  (  2)   B1g     0     -149.707607204938   2.000000
    --------------------------------------------------------

  ==> Computing RDMs for Root No. 0 <==

    Timing for 1-RDM: 0.000 s
    Timing for 2-RDM: 0.002 s

  ==> NATURAL ORBITALS <==

        1B3u    1.955943      1B2u    1.955943      1Ag     1.951900  
        1B3g    1.043309      1B2g    1.043309      1B1u    0.049597  


 CAS took 0.020408 seconds.

 FormFockIntermediates took 0.00703600 s.

 FormOrbitalGradient took 0.00054500 s.

 FormDiagHessian took 0.00007500 s.

 Update function takes 0.00771000 s
    6 0.000449278315    -0.000058366185  -149.707607204938    0.1 s  DIIS ~

  Transform Integrals takes 0.03149300 s.

  Performing a CAS with FCI

  ==> Summary of Active Space Solver Input <==

    Irrep.  Multi.(2ms)      N
    --------------------------
      B1g      3  (  2)      1
    --------------------------
    N: number of roots
    ms: spin z component
    Total number of roots:   1
    --------------------------


  ==> String Lists <==

  Number of alpha electrons     = 5
  Number of beta electrons      = 3
  Number of alpha strings       = 6
  Number of beta strings        = 20
  Number of alpha strings (N-3) = 15
  Number of beta strings (N-3)  = 1
  Timing for strings        =      0.000 s
  Timing for NN strings     =      0.000 s
  Timing for VO strings     =      0.001 s
  Timing for OO strings     =      0.000 s
  Timing for VVOO strings   =      0.000 s
  Timing for VOVO strings   =      0.000 s
  Timing for 1-hole strings =      0.000 s
  Timing for 2-hole strings =      0.000 s
  Timing for 3-hole strings =      0.001 s
  Total timing              =      0.001 s

  ==> FCI Solver <==

    Number of determinants                          16
    Symmetry                                         1
    Multiplicity                                     3
    Number of roots                                  1
    Target root                                      0
    Trial vectors per root                          10

  Allocating memory for the Hamiltonian algorithm. Size: 2 x 4 x 4.   Memory: 0.000000 GB

  ==> FCI Initial Guess <==

  ---------------------------------------------
    Root            Energy     <S^2>   Spin
  ---------------------------------------------
      0     -149.707624098036  2.000  triplet
      1     -149.145926541327  2.000  triplet
      2     -148.876064851255  6.000  quintet
      3     -148.822260541265  2.000  triplet
      4     -148.763697848953  2.000  triplet
      5     -148.551492702325  6.000  quintet
      6     -148.441847415948  2.000  triplet
      7     -148.413983142887  2.000  triplet
      8     -148.388121913618  2.000  triplet
      9     -148.351155880341  2.000  triplet
     10     -148.315177116770  2.000  triplet
     11     -148.191195243738  2.000  triplet
     12     -147.976719795191  2.000  triplet
     13     -147.976516112879  2.000  triplet
     14     -147.668467851482  2.000  triplet
     15     -146.887293657632  2.000  triplet
  ---------------------------------------------
  Timing for initial guess  =      0.005 s

  Projecting out root 2
  Projecting out root 5

  ==> Diagonalizing Hamiltonian <==

  Energy   convergence: 1.00e-12
  Residual convergence: 1.00e-08
  -----------------------------------------------------
    Iter.      Avg. Energy       Delta_E     Res. Norm
  -----------------------------------------------------
      1     -149.707624098036  -1.497e+02  +9.590e-14
      2     -149.707624098036  +0.000e+00  +9.590e-14
  -----------------------------------------------------
  The Davidson-Liu algorithm converged in 3 iterations.

  ==> Root No. 0 <==

    2 a a 0 2 2      0.96641521
    2 2 2 0 a a      0.16763993

    Total Energy:    -149.707624098036, <S^2>: 2.000000

  ==> Energy Summary <==

    Multi.(2ms)  Irrep.  No.               Energy      <S^2>
    --------------------------------------------------------
       3  (  2)   B1g     0     -149.707624098036   2.000000
    --------------------------------------------------------

  ==> Computing RDMs for Root No. 0 <==

    Timing for 1-RDM: 0.000 s
    Timing for 2-RDM: 0.002 s

  ==> NATURAL ORBITALS <==

        1B2u    1.955958      1B3u    1.955958      1Ag     1.952042  
        1B2g    1.043295      1B3g    1.043295      1B1u    0.049453  


 CAS took 0.023417 seconds.

 FormFockIntermediates took 0.00731200 s.

 FormOrbitalGradient took 0.00053100 s.

 FormDiagHessian took 0.00007600 s.

 Update function takes 0.00795600 s
    7 0.000239541389    -0.000016893098  -149.707624098036    0.1 s  DIIS ~

  Transform Integrals takes 0.03252500 s.

  Performing a CAS with FCI

  ==> Summary of Active Space Solver Input <==

    Irrep.  Multi.(2ms)      N
    --------------------------
      B1g      3  (  2)      1
    --------------------------
    N: number of roots
    ms: spin z component
    Total number of roots:   1
    --------------------------


  ==> String Lists <==

  Number of alpha electrons     = 5
  Number of beta electrons      = 3
  Number of alpha strings       = 6
  Number of beta strings        = 20
  Number of alpha strings (N-3) = 15
  Number of beta strings (N-3)  = 1
  Timing for strings        =      0.000 s
  Timing for NN strings     =      0.000 s
  Timing for VO strings     =      0.001 s
  Timing for OO strings     =      0.000 s
  Timing for VVOO strings   =      0.000 s
  Timing for VOVO strings   =      0.000 s
  Timing for 1-hole strings =      0.000 s
  Timing for 2-hole strings =      0.000 s
  Timing for 3-hole strings =      0.001 s
  Total timing              =      0.001 s

  ==> FCI Solver <==

    Number of determinants                          16
    Symmetry                                         1
    Multiplicity                                     3
    Number of roots                                  1
    Target root                                      0
    Trial vectors per root                          10

  Allocating memory for the Hamiltonian algorithm. Size: 2 x 4 x 4.   Memory: 0.000000 GB

  ==> FCI Initial Guess <==

  ---------------------------------------------
    Root            Energy     <S^2>   Spin
  ---------------------------------------------
      0     -149.707629096696  2.000  triplet
      1     -149.145715549308  2.000  triplet
      2     -148.874454576080  6.000  quintet
      3     -148.820589744343  2.000  triplet
      4     -148.761986641777  2.000  triplet
      5     -148.549884560780  6.000  quintet
      6     -148.440150044409  2.000  triplet
      7     -148.412328797265  2.000  triplet
      8     -148.386962193757  2.000  triplet
      9     -148.348959095992  2.000  triplet
     10     -148.313983426398  2.000  triplet
     11     -148.188631815196  2.000  triplet
     12     -147.975499234815  2.000  triplet
     13     -147.975323207135  2.000  triplet
     14     -147.664779026463  2.000  triplet
     15     -146.883580647981  2.000  triplet
  ---------------------------------------------
  Timing for initial guess  =      0.005 s

  Projecting out root 2
  Projecting out root 5

  ==> Diagonalizing Hamiltonian <==

  Energy   convergence: 1.00e-12
  Residual convergence: 1.00e-08
  -----------------------------------------------------
    Iter.      Avg. Energy       Delta_E     Res. Norm
  -----------------------------------------------------
      1     -149.707629096697  -1.497e+02  +2.143e-13
      2     -149.707629096697  +0.000e+00  +2.143e-13
  -----------------------------------------------------
  The Davidson-Liu algorithm converged in 3 iterations.

  ==> Root No. 0 <==

    2 a a 0 2 2     -0.96643512
    2 2 2 0 a a     -0.16773382

    Total Energy:    -149.707629096697, <S^2>: 2.000000

  ==> Energy Summary <==

    Multi.(2ms)  Irrep.  No.               Energy      <S^2>
    --------------------------------------------------------
       3  (  2)   B1g     0     -149.707629096697   2.000000
    --------------------------------------------------------

  ==> Computing RDMs for Root No. 0 <==

    Timing for 1-RDM: 0.000 s
    Timing for 2-RDM: 0.002 s

  ==> NATURAL ORBITALS <==

        1B2u    1.955964      1B3u    1.955964      1Ag     1.952120  
        1B2g    1.043289      1B3g    1.043289      1B1u    0.049375  


 CAS took 0.024143 seconds.

 FormFockIntermediates took 0.00802600 s.

 FormOrbitalGradient took 0.00061600 s.

 FormDiagHessian took 0.00008700 s.

 Update function takes 0.00877900 s
    8 0.000126204302    -0.000004998661  -149.707629096697    0.1 s  DIIS ~

  Transform Integrals takes 0.03415900 s.

  Performing a CAS with FCI

  ==> Summary of Active Space Solver Input <==

    Irrep.  Multi.(2ms)      N
    --------------------------
      B1g      3  (  2)      1
    --------------------------
    N: number of roots
    ms: spin z component
    Total number of roots:   1
    --------------------------


  ==> String Lists <==

  Number of alpha electrons     = 5
  Number of beta electrons      = 3
  Number of alpha strings       = 6
  Number of beta strings        = 20
  Number of alpha strings (N-3) = 15
  Number of beta strings (N-3)  = 1
  Timing for strings        =      0.000 s
  Timing for NN strings     =      0.000 s
  Timing for VO strings     =      0.001 s
  Timing for OO strings     =      0.000 s
  Timing for VVOO strings   =      0.000 s
  Timing for VOVO strings   =      0.000 s
  Timing for 1-hole strings =      0.000 s
  Timing for 2-hole strings =      0.000 s
  Timing for 3-hole strings =      0.001 s
  Total timing              =      0.001 s

  ==> FCI Solver <==

    Number of determinants                          16
    Symmetry                                         1
    Multiplicity                                     3
    Number of roots                                  1
    Target root                                      0
    Trial vectors per root                          10

  Allocating memory for the Hamiltonian algorithm. Size: 2 x 4 x 4.   Memory: 0.000000 GB

  ==> FCI Initial Guess <==

  ---------------------------------------------
    Root            Energy     <S^2>   Spin
  ---------------------------------------------
      0     -149.707630573061  2.000  triplet
      1     -149.145600003610  2.000  triplet
      2     -148.873591591003  6.000  quintet
      3     -148.819692297041  2.000  triplet
      4     -148.761066142367  2.000  triplet
      5     -148.549022349118  6.000  quintet
      6     -148.439237662217  2.000  triplet
      7     -148.411440148363  2.000  triplet
      8     -148.386409688889  2.000  triplet
      9     -148.347788857676  2.000  triplet
     10     -148.313406347785  2.000  triplet
     11     -148.187265823075  2.000  triplet
     12     -147.974911843119  2.000  triplet
     13     -147.974751229796  2.000  triplet
     14     -147.662812381152  2.000  triplet
     15     -146.881603811179  2.000  triplet
  ---------------------------------------------
  Timing for initial guess  =      0.005 s

  Projecting out root 2
  Projecting out root 5

  ==> Diagonalizing Hamiltonian <==

  Energy   convergence: 1.00e-12
  Residual convergence: 1.00e-08
  -----------------------------------------------------
    Iter.      Avg. Energy       Delta_E     Res. Norm
  -----------------------------------------------------
      1     -149.707630573062  -1.497e+02  +1.505e-13
      2     -149.707630573062  +0.000e+00  +1.505e-13
  -----------------------------------------------------
  The Davidson-Liu algorithm converged in 3 iterations.

  ==> Root No. 0 <==

    2 a a 0 2 2     -0.96644566
    2 2 2 0 a a     -0.16778565

    Total Energy:    -149.707630573062, <S^2>: 2.000000

  ==> Energy Summary <==

    Multi.(2ms)  Irrep.  No.               Energy      <S^2>
    --------------------------------------------------------
       3  (  2)   B1g     0     -149.707630573062   2.000000
    --------------------------------------------------------

  ==> Computing RDMs for Root No. 0 <==

    Timing for 1-RDM: 0.000 s
    Timing for 2-RDM: 0.003 s

  ==> NATURAL ORBITALS <==

        1B3u    1.955966      1B2u    1.955966      1Ag     1.952162  
        1B2g    1.043286      1B3g    1.043286      1B1u    0.049333  


 CAS took 0.025390 seconds.

 FormFockIntermediates took 0.00888900 s.

 FormOrbitalGradient took 0.00065100 s.

 FormDiagHessian took 0.00009200 s.

 Update function takes 0.00967100 s
    9 0.000066975017    -0.000001476365  -149.707630573062    0.1 s  DIIS ~

  Transform Integrals takes 0.03505400 s.

  Performing a CAS with FCI

  ==> Summary of Active Space Solver Input <==

    Irrep.  Multi.(2ms)      N
    --------------------------
      B1g      3  (  2)      1
    --------------------------
    N: number of roots
    ms: spin z component
    Total number of roots:   1
    --------------------------


  ==> String Lists <==

  Number of alpha electrons     = 5
  Number of beta electrons      = 3
  Number of alpha strings       = 6
  Number of beta strings        = 20
  Number of alpha strings (N-3) = 15
  Number of beta strings (N-3)  = 1
  Timing for strings        =      0.000 s
  Timing for NN strings     =      0.000 s
  Timing for VO strings     =      0.001 s
  Timing for OO strings     =      0.000 s
  Timing for VVOO strings   =      0.000 s
  Timing for VOVO strings   =      0.000 s
  Timing for 1-hole strings =      0.000 s
  Timing for 2-hole strings =      0.000 s
  Timing for 3-hole strings =      0.001 s
  Total timing              =      0.001 s

  ==> FCI Solver <==

    Number of determinants                          16
    Symmetry                                         1
    Multiplicity                                     3
    Number of roots                                  1
    Target root                                      0
    Trial vectors per root                          10

  Allocating memory for the Hamiltonian algorithm. Size: 2 x 4 x 4.   Memory: 0.000000 GB

  ==> FCI Initial Guess <==

  ---------------------------------------------
    Root            Energy     <S^2>   Spin
  ---------------------------------------------
      0     -149.707631008409  2.000  triplet
      1     -149.145537043839  2.000  triplet
      2     -148.873125882262  6.000  quintet
      3     -148.819207454518  2.000  triplet
      4     -148.760568493536  2.000  triplet
      5     -148.548556847049  6.000  quintet
      6     -148.438744501506  2.000  triplet
      7     -148.410959921010  2.000  triplet
      8     -148.386130256878  2.000  triplet
      9     -148.347159025764  2.000  triplet
     10     -148.313111969572  2.000  triplet
     11     -148.186530529478  2.000  triplet
     12     -147.974612816542  2.000  triplet
     13     -147.974460712059  2.000  triplet
     14     -147.661753494977  2.000  triplet
     15     -146.880539920693  2.000  triplet
  ---------------------------------------------
  Timing for initial guess  =      0.004 s

  Projecting out root 2
  Projecting out root 5

  ==> Diagonalizing Hamiltonian <==

  Energy   convergence: 1.00e-12
  Residual convergence: 1.00e-08
  -----------------------------------------------------
    Iter.      Avg. Energy       Delta_E     Res. Norm
  -----------------------------------------------------
      1     -149.707631008410  -1.497e+02  +1.084e-13
      2     -149.707631008410  +0.000e+00  +1.084e-13
  -----------------------------------------------------
  The Davidson-Liu algorithm converged in 3 iterations.

  ==> Root No. 0 <==

    2 a a 0 2 2      0.96645130
    2 2 2 0 a a      0.16781406

    Total Energy:    -149.707631008410, <S^2>: 2.000000

  ==> Energy Summary <==

    Multi.(2ms)  Irrep.  No.               Energy      <S^2>
    --------------------------------------------------------
       3  (  2)   B1g     0     -149.707631008410   2.000000
    --------------------------------------------------------

  ==> Computing RDMs for Root No. 0 <==

    Timing for 1-RDM: 0.000 s
    Timing for 2-RDM: 0.002 s

  ==> NATURAL ORBITALS <==

        1B2u    1.955968      1B3u    1.955968      1Ag     1.952185  
        1B2g    1.043285      1B3g    1.043285      1B1u    0.049311  


 CAS took 0.019071 seconds.

 FormFockIntermediates took 0.00722300 s.

 FormOrbitalGradient took 0.00048400 s.

 FormDiagHessian took 0.00007300 s.

 Update function takes 0.00781200 s
   10 0.000035905086    -0.000000435348  -149.707631008410    0.1 s  DIIS ~

  Transform Integrals takes 0.03155300 s.

  Performing a CAS with FCI

  ==> Summary of Active Space Solver Input <==

    Irrep.  Multi.(2ms)      N
    --------------------------
      B1g      3  (  2)      1
    --------------------------
    N: number of roots
    ms: spin z component
    Total number of roots:   1
    --------------------------


  ==> String Lists <==

  Number of alpha electrons     = 5
  Number of beta electrons      = 3
  Number of alpha strings       = 6
  Number of beta strings        = 20
  Number of alpha strings (N-3) = 15
  Number of beta strings (N-3)  = 1
  Timing for strings        =      0.000 s
  Timing for NN strings     =      0.000 s
  Timing for VO strings     =      0.001 s
  Timing for OO strings     =      0.000 s
  Timing for VVOO strings   =      0.000 s
  Timing for VOVO strings   =      0.000 s
  Timing for 1-hole strings =      0.000 s
  Timing for 2-hole strings =      0.000 s
  Timing for 3-hole strings =      0.001 s
  Total timing              =      0.001 s

  ==> FCI Solver <==

    Number of determinants                          16
    Symmetry                                         1
    Multiplicity                                     3
    Number of roots                                  1
    Target root                                      0
    Trial vectors per root                          10

  Allocating memory for the Hamiltonian algorithm. Size: 2 x 4 x 4.   Memory: 0.000000 GB

  ==> FCI Initial Guess <==

  ---------------------------------------------
    Root            Energy     <S^2>   Spin
  ---------------------------------------------
      0     -149.707631136781  2.000  triplet
      1     -149.145502794498  2.000  triplet
      2     -148.872873773565  6.000  quintet
      3     -148.818944845291  2.000  triplet
      4     -148.760298852701  2.000  triplet
      5     -148.548304754674  6.000  quintet
      6     -148.438477281213  2.000  triplet
      7     -148.410699729994  2.000  triplet
      8     -148.385983956341  2.000  triplet
      9     -148.346818583622  2.000  triplet
     10     -148.312957135597  2.000  triplet
     11     -148.186132963431  2.000  triplet
     12     -147.974455659818  2.000  triplet
     13     -147.974308216534  2.000  triplet
     14     -147.661180929716  2.000  triplet
     15     -146.879964771070  2.000  triplet
  ---------------------------------------------
  Timing for initial guess  =      0.004 s

  Projecting out root 2
  Projecting out root 5

  ==> Diagonalizing Hamiltonian <==

  Energy   convergence: 1.00e-12
  Residual convergence: 1.00e-08
  -----------------------------------------------------
    Iter.      Avg. Energy       Delta_E     Res. Norm
  -----------------------------------------------------
      1     -149.707631136781  -1.497e+02  +2.299e-13
      2     -149.707631136781  +0.000e+00  +2.299e-13
  -----------------------------------------------------
  The Davidson-Liu algorithm converged in 3 iterations.

  ==> Root No. 0 <==

    2 a a 0 2 2      0.96645433
    2 2 2 0 a a      0.16782959

    Total Energy:    -149.707631136781, <S^2>: 2.000000

  ==> Energy Summary <==

    Multi.(2ms)  Irrep.  No.               Energy      <S^2>
    --------------------------------------------------------
       3  (  2)   B1g     0     -149.707631136781   2.000000
    --------------------------------------------------------

  ==> Computing RDMs for Root No. 0 <==

    Timing for 1-RDM: 0.000 s
    Timing for 2-RDM: 0.002 s

  ==> NATURAL ORBITALS <==

        1B2u    1.955968      1B3u    1.955968      1Ag     1.952197  
        1B2g    1.043284      1B3g    1.043284      1B1u    0.049298  


 CAS took 0.023703 seconds.

 FormFockIntermediates took 0.00726300 s.

 FormOrbitalGradient took 0.00051600 s.

 FormDiagHessian took 0.00007400 s.

 Update function takes 0.00789400 s
   11 0.000019395557    -0.000000128372  -149.707631136781    0.1 s  DIIS ~

  Transform Integrals takes 0.03098200 s.

  Performing a CAS with FCI

  ==> Summary of Active Space Solver Input <==

    Irrep.  Multi.(2ms)      N
    --------------------------
      B1g      3  (  2)      1
    --------------------------
    N: number of roots
    ms: spin z component
    Total number of roots:   1
    --------------------------


  ==> String Lists <==

  Number of alpha electrons     = 5
  Number of beta electrons      = 3
  Number of alpha strings       = 6
  Number of beta strings        = 20
  Number of alpha strings (N-3) = 15
  Number of beta strings (N-3)  = 1
  Timing for strings        =      0.000 s
  Timing for NN strings     =      0.000 s
  Timing for VO strings     =      0.001 s
  Timing for OO strings     =      0.000 s
  Timing for VVOO strings   =      0.000 s
  Timing for VOVO strings   =      0.000 s
  Timing for 1-hole strings =      0.000 s
  Timing for 2-hole strings =      0.000 s
  Timing for 3-hole strings =      0.001 s
  Total timing              =      0.001 s

  ==> FCI Solver <==

    Number of determinants                          16
    Symmetry                                         1
    Multiplicity                                     3
    Number of roots                                  1
    Target root                                      0
    Trial vectors per root                          10

  Allocating memory for the Hamiltonian algorithm. Size: 2 x 4 x 4.   Memory: 0.000000 GB

  ==> FCI Initial Guess <==

  ---------------------------------------------
    Root            Energy     <S^2>   Spin
  ---------------------------------------------
      0     -149.707631174663  2.000  triplet
      1     -149.145484160381  2.000  triplet
      2     -148.872737050237  6.000  quintet
      3     -148.818802386849  2.000  triplet
      4     -148.760152551586  2.000  triplet
      5     -148.548167992644  6.000  quintet
      6     -148.438332267383  2.000  triplet
      7     -148.410558536338  2.000  triplet
      8     -148.385905910790  2.000  triplet
      9     -148.346634137309  2.000  triplet
     10     -148.312874344175  2.000  triplet
     11     -148.185917486777  2.000  triplet
     12     -147.974371637004  2.000  triplet
     13     -147.974226736591  2.000  triplet
     14     -147.660870621592  2.000  triplet
     15     -146.879653090315  2.000  triplet
  ---------------------------------------------
  Timing for initial guess  =      0.004 s

  Projecting out root 2
  Projecting out root 5

  ==> Diagonalizing Hamiltonian <==

  Energy   convergence: 1.00e-12
  Residual convergence: 1.00e-08
  -----------------------------------------------------
    Iter.      Avg. Energy       Delta_E     Res. Norm
  -----------------------------------------------------
      1     -149.707631174663  -1.497e+02  +1.045e-13
      2     -149.707631174663  +0.000e+00  +1.045e-13
  -----------------------------------------------------
  The Davidson-Liu algorithm converged in 3 iterations.

  ==> Root No. 0 <==

    2 a a 0 2 2      0.96645597
    2 2 2 0 a a      0.16783806

    Total Energy:    -149.707631174663, <S^2>: 2.000000

  ==> Energy Summary <==

    Multi.(2ms)  Irrep.  No.               Energy      <S^2>
    --------------------------------------------------------
       3  (  2)   B1g     0     -149.707631174663   2.000000
    --------------------------------------------------------

  ==> Computing RDMs for Root No. 0 <==

    Timing for 1-RDM: 0.000 s
    Timing for 2-RDM: 0.002 s

  ==> NATURAL ORBITALS <==

        1B3u    1.955969      1B2u    1.955969      1Ag     1.952204  
        1B3g    1.043283      1B2g    1.043283      1B1u    0.049292  


 CAS took 0.019132 seconds.

 FormFockIntermediates took 0.00677300 s.

 FormOrbitalGradient took 0.00048100 s.

 FormDiagHessian took 0.00007400 s.

 Update function takes 0.00735700 s
   12 0.000010520748    -0.000000037882  -149.707631174663    0.1 s  DIIS ~

  Transform Integrals takes 0.03161500 s.

  Performing a CAS with FCI

  ==> Summary of Active Space Solver Input <==

    Irrep.  Multi.(2ms)      N
    --------------------------
      B1g      3  (  2)      1
    --------------------------
    N: number of roots
    ms: spin z component
    Total number of roots:   1
    --------------------------


  ==> String Lists <==

  Number of alpha electrons     = 5
  Number of beta electrons      = 3
  Number of alpha strings       = 6
  Number of beta strings        = 20
  Number of alpha strings (N-3) = 15
  Number of beta strings (N-3)  = 1
  Timing for strings        =      0.000 s
  Timing for NN strings     =      0.000 s
  Timing for VO strings     =      0.001 s
  Timing for OO strings     =      0.000 s
  Timing for VVOO strings   =      0.000 s
  Timing for VOVO strings   =      0.000 s
  Timing for 1-hole strings =      0.000 s
  Timing for 2-hole strings =      0.000 s
  Timing for 3-hole strings =      0.001 s
  Total timing              =      0.001 s

  ==> FCI Solver <==

    Number of determinants                          16
    Symmetry                                         1
    Multiplicity                                     3
    Number of roots                                  1
    Target root                                      0
    Trial vectors per root                          10

  Allocating memory for the Hamiltonian algorithm. Size: 2 x 4 x 4.   Memory: 0.000000 GB

  ==> FCI Initial Guess <==

  ---------------------------------------------
    Root            Energy     <S^2>   Spin
  ---------------------------------------------
      0     -149.707631185851  2.000  triplet
      1     -149.145474020420  2.000  triplet
      2     -148.872662821075  6.000  quintet
      3     -148.818725031861  2.000  triplet
      4     -148.760073101084  2.000  triplet
      5     -148.548093723729  6.000  quintet
      6     -148.438253502497  2.000  triplet
      7     -148.410481848646  2.000  triplet
      8     -148.385863884600  2.000  triplet
      9     -148.346534066465  2.000  triplet
     10     -148.312829708709  2.000  triplet
     11     -148.185800541744  2.000  triplet
     12     -147.974326335352  2.000  triplet
     13     -147.974182819362  2.000  triplet
     14     -147.660702221898  2.000  triplet
     15     -146.879483954264  2.000  triplet
  ---------------------------------------------
  Timing for initial guess  =      0.004 s

  Projecting out root 2
  Projecting out root 5

  ==> Diagonalizing Hamiltonian <==

  Energy   convergence: 1.00e-12
  Residual convergence: 1.00e-08
  -----------------------------------------------------
    Iter.      Avg. Energy       Delta_E     Res. Norm
  -----------------------------------------------------
      1     -149.707631185851  -1.497e+02  +3.087e-13
      2     -149.707631185851  +0.000e+00  +3.087e-13
  -----------------------------------------------------
  The Davidson-Liu algorithm converged in 3 iterations.

  ==> Root No. 0 <==

    2 a a 0 2 2      0.96645686
    2 2 2 0 a a      0.16784268

    Total Energy:    -149.707631185851, <S^2>: 2.000000

  ==> Energy Summary <==

    Multi.(2ms)  Irrep.  No.               Energy      <S^2>
    --------------------------------------------------------
       3  (  2)   B1g     0     -149.707631185851   2.000000
    --------------------------------------------------------

  ==> Computing RDMs for Root No. 0 <==

    Timing for 1-RDM: 0.000 s
    Timing for 2-RDM: 0.002 s

  ==> NATURAL ORBITALS <==

        1B3u    1.955969      1B2u    1.955969      1Ag     1.952208  
        1B2g    1.043283      1B3g    1.043283      1B1u    0.049288  


 CAS took 0.019851 seconds.

 FormFockIntermediates took 0.00759300 s.

 FormOrbitalGradient took 0.00048100 s.

 FormDiagHessian took 0.00007300 s.

 Update function takes 0.00817700 s
   13 0.000005717480    -0.000000011187  -149.707631185851    0.1 s  DIIS ~

  Transform Integrals takes 0.03153400 s.

  Performing a CAS with FCI

  ==> Summary of Active Space Solver Input <==

    Irrep.  Multi.(2ms)      N
    --------------------------
      B1g      3  (  2)      1
    --------------------------
    N: number of roots
    ms: spin z component
    Total number of roots:   1
    --------------------------


  ==> String Lists <==

  Number of alpha electrons     = 5
  Number of beta electrons      = 3
  Number of alpha strings       = 6
  Number of beta strings        = 20
  Number of alpha strings (N-3) = 15
  Number of beta strings (N-3)  = 1
  Timing for strings        =      0.000 s
  Timing for NN strings     =      0.000 s
  Timing for VO strings     =      0.001 s
  Timing for OO strings     =      0.000 s
  Timing for VVOO strings   =      0.000 s
  Timing for VOVO strings   =      0.000 s
  Timing for 1-hole strings =      0.000 s
  Timing for 2-hole strings =      0.000 s
  Timing for 3-hole strings =      0.001 s
  Total timing              =      0.001 s

  ==> FCI Solver <==

    Number of determinants                          16
    Symmetry                                         1
    Multiplicity                                     3
    Number of roots                                  1
    Target root                                      0
    Trial vectors per root                          10

  Allocating memory for the Hamiltonian algorithm. Size: 2 x 4 x 4.   Memory: 0.000000 GB

  ==> FCI Initial Guess <==

  ---------------------------------------------
    Root            Energy     <S^2>   Spin
  ---------------------------------------------
      0     -149.707631189156  2.000  triplet
      1     -149.145468502466  2.000  triplet
      2     -148.872622494052  6.000  quintet
      3     -148.818683002752  2.000  triplet
      4     -148.760029930415  2.000  triplet
      5     -148.548053368182  6.000  quintet
      6     -148.438210698732  2.000  triplet
      7     -148.410440174684  2.000  triplet
      8     -148.385841148415  2.000  triplet
      9     -148.346479724678  2.000  triplet
     10     -148.312805545440  2.000  triplet
     11     -148.185737021390  2.000  triplet
     12     -147.974301809456  2.000  triplet
     13     -147.974159046554  2.000  triplet
     14     -147.660610759403  2.000  triplet
     15     -146.879392094058  2.000  triplet
  ---------------------------------------------
  Timing for initial guess  =      0.004 s

  Projecting out root 2
  Projecting out root 5

  ==> Diagonalizing Hamiltonian <==

  Energy   convergence: 1.00e-12
  Residual convergence: 1.00e-08
  -----------------------------------------------------
    Iter.      Avg. Energy       Delta_E     Res. Norm
  -----------------------------------------------------
      1     -149.707631189156  -1.497e+02  +2.429e-13
      2     -149.707631189156  +0.000e+00  +2.429e-13
  -----------------------------------------------------
  The Davidson-Liu algorithm converged in 3 iterations.

  ==> Root No. 0 <==

    2 a a 0 2 2     -0.96645734
    2 2 2 0 a a     -0.16784520

    Total Energy:    -149.707631189156, <S^2>: 2.000000

  ==> Energy Summary <==

    Multi.(2ms)  Irrep.  No.               Energy      <S^2>
    --------------------------------------------------------
       3  (  2)   B1g     0     -149.707631189156   2.000000
    --------------------------------------------------------

  ==> Computing RDMs for Root No. 0 <==

    Timing for 1-RDM: 0.000 s
    Timing for 2-RDM: 0.002 s

  ==> NATURAL ORBITALS <==

        1B2u    1.955969      1B3u    1.955969      1Ag     1.952210  
        1B3g    1.043283      1B2g    1.043283      1B1u    0.049286  


 CAS took 0.019067 seconds.

 FormFockIntermediates took 0.00672100 s.

 FormOrbitalGradient took 0.00047300 s.

 FormDiagHessian took 0.00007400 s.

 Update function takes 0.00729600 s
   14 0.000003109196    -0.000000003305  -149.707631189156    0.1 s  DIIS ~

  Transform Integrals takes 0.03131200 s.

  Performing a CAS with FCI

  ==> Summary of Active Space Solver Input <==

    Irrep.  Multi.(2ms)      N
    --------------------------
      B1g      3  (  2)      1
    --------------------------
    N: number of roots
    ms: spin z component
    Total number of roots:   1
    --------------------------


  ==> String Lists <==

  Number of alpha electrons     = 5
  Number of beta electrons      = 3
  Number of alpha strings       = 6
  Number of beta strings        = 20
  Number of alpha strings (N-3) = 15
  Number of beta strings (N-3)  = 1
  Timing for strings        =      0.000 s
  Timing for NN strings     =      0.000 s
  Timing for VO strings     =      0.001 s
  Timing for OO strings     =      0.000 s
  Timing for VVOO strings   =      0.000 s
  Timing for VOVO strings   =      0.000 s
  Timing for 1-hole strings =      0.000 s
  Timing for 2-hole strings =      0.000 s
  Timing for 3-hole strings =      0.001 s
  Total timing              =      0.001 s

  ==> FCI Solver <==

    Number of determinants                          16
    Symmetry                                         1
    Multiplicity                                     3
    Number of roots                                  1
    Target root                                      0
    Trial vectors per root                          10

  Allocating memory for the Hamiltonian algorithm. Size: 2 x 4 x 4.   Memory: 0.000000 GB

  ==> FCI Initial Guess <==

  ---------------------------------------------
    Root            Energy     <S^2>   Spin
  ---------------------------------------------
      0     -149.707631190133  2.000  triplet
      1     -149.145465500146  2.000  triplet
      2     -148.872600576869  6.000  quintet
      3     -148.818660159230  2.000  triplet
      4     -148.760006465414  2.000  triplet
      5     -148.548031433222  6.000  quintet
      6     -148.438187431208  2.000  triplet
      7     -148.410417521722  2.000  triplet
      8     -148.385828819542  2.000  triplet
      9     -148.346450199084  2.000  triplet
     10     -148.312792438064  2.000  triplet
     11     -148.185702503468  2.000  triplet
     12     -147.974288504661  2.000  triplet
     13     -147.974146151285  2.000  triplet
     14     -147.660561059634  2.000  triplet
     15     -146.879342178824  2.000  triplet
  ---------------------------------------------
  Timing for initial guess  =      0.004 s

  Projecting out root 2
  Projecting out root 5

  ==> Diagonalizing Hamiltonian <==

  Energy   convergence: 1.00e-12
  Residual convergence: 1.00e-08
  -----------------------------------------------------
    Iter.      Avg. Energy       Delta_E     Res. Norm
  -----------------------------------------------------
      1     -149.707631190133  -1.497e+02  +7.091e-14
      2     -149.707631190133  +0.000e+00  +7.091e-14
  -----------------------------------------------------
  The Davidson-Liu algorithm converged in 3 iterations.

  ==> Root No. 0 <==

    2 a a 0 2 2      0.96645760
    2 2 2 0 a a      0.16784657

    Total Energy:    -149.707631190133, <S^2>: 2.000000

  ==> Energy Summary <==

    Multi.(2ms)  Irrep.  No.               Energy      <S^2>
    --------------------------------------------------------
       3  (  2)   B1g     0     -149.707631190133   2.000000
    --------------------------------------------------------

  ==> Computing RDMs for Root No. 0 <==

    Timing for 1-RDM: 0.000 s
    Timing for 2-RDM: 0.002 s

  ==> NATURAL ORBITALS <==

        1B3u    1.955969      1B2u    1.955969      1Ag     1.952211  
        1B3g    1.043283      1B2g    1.043283      1B1u    0.049285  


 CAS took 0.019355 seconds.

 FormFockIntermediates took 0.00680000 s.

 FormOrbitalGradient took 0.00047800 s.

 FormDiagHessian took 0.00007400 s.

 Update function takes 0.00738100 s
   15 0.000001691043    -0.000000000977  -149.707631190133    0.1 s  DIIS ~

  Transform Integrals takes 0.03091900 s.

  Performing a CAS with FCI

  ==> Summary of Active Space Solver Input <==

    Irrep.  Multi.(2ms)      N
    --------------------------
      B1g      3  (  2)      1
    --------------------------
    N: number of roots
    ms: spin z component
    Total number of roots:   1
    --------------------------


  ==> String Lists <==

  Number of alpha electrons     = 5
  Number of beta electrons      = 3
  Number of alpha strings       = 6
  Number of beta strings        = 20
  Number of alpha strings (N-3) = 15
  Number of beta strings (N-3)  = 1
  Timing for strings        =      0.000 s
  Timing for NN strings     =      0.000 s
  Timing for VO strings     =      0.001 s
  Timing for OO strings     =      0.000 s
  Timing for VVOO strings   =      0.000 s
  Timing for VOVO strings   =      0.000 s
  Timing for 1-hole strings =      0.000 s
  Timing for 2-hole strings =      0.000 s
  Timing for 3-hole strings =      0.001 s
  Total timing              =      0.001 s

  ==> FCI Solver <==

    Number of determinants                          16
    Symmetry                                         1
    Multiplicity                                     3
    Number of roots                                  1
    Target root                                      0
    Trial vectors per root                          10

  Allocating memory for the Hamiltonian algorithm. Size: 2 x 4 x 4.   Memory: 0.000000 GB

  ==> FCI Initial Guess <==

  ---------------------------------------------
    Root            Energy     <S^2>   Spin
  ---------------------------------------------
      0     -149.707631190422  2.000  triplet
      1     -149.145463866879  2.000  triplet
      2     -148.872588662628  6.000  quintet
      3     -148.818647741007  2.000  triplet
      4     -148.759993708999  2.000  triplet
      5     -148.548019508603  6.000  quintet
      6     -148.438174781520  2.000  triplet
      7     -148.410405206311  2.000  triplet
      8     -148.385822125977  2.000  triplet
      9     -148.346434151640  2.000  triplet
     10     -148.312785320397  2.000  triplet
     11     -148.185683740949  2.000  triplet
     12     -147.974281279579  2.000  triplet
     13     -147.974139148878  2.000  triplet
     14     -147.660534045680  2.000  triplet
     15     -146.879315047915  2.000  triplet
  ---------------------------------------------
  Timing for initial guess  =      0.004 s

  Projecting out root 2
  Projecting out root 5

  ==> Diagonalizing Hamiltonian <==

  Energy   convergence: 1.00e-12
  Residual convergence: 1.00e-08
  -----------------------------------------------------
    Iter.      Avg. Energy       Delta_E     Res. Norm
  -----------------------------------------------------
      1     -149.707631190422  -1.497e+02  +1.463e-13
      2     -149.707631190422  +0.000e+00  +1.463e-13
  -----------------------------------------------------
  The Davidson-Liu algorithm converged in 3 iterations.

  ==> Root No. 0 <==

    2 a a 0 2 2      0.96645774
    2 2 2 0 a a      0.16784732

    Total Energy:    -149.707631190422, <S^2>: 2.000000

  ==> Energy Summary <==

    Multi.(2ms)  Irrep.  No.               Energy      <S^2>
    --------------------------------------------------------
       3  (  2)   B1g     0     -149.707631190422   2.000000
    --------------------------------------------------------

  ==> Computing RDMs for Root No. 0 <==

    Timing for 1-RDM: 0.000 s
    Timing for 2-RDM: 0.002 s

  ==> NATURAL ORBITALS <==

        1B3u    1.955969      1B2u    1.955969      1Ag     1.952211  
        1B3g    1.043283      1B2g    1.043283      1B1u    0.049284  


 CAS took 0.018889 seconds.

 FormFockIntermediates took 0.00692600 s.

 FormOrbitalGradient took 0.00060600 s.

 FormDiagHessian took 0.00007600 s.

 Update function takes 0.00765900 s
   16 0.000000919698    -0.000000000289  -149.707631190422    0.1 s  DIIS ~

[...]

  ==> Possible Intruders <==

    T1 amplitudes larger than 0.1000:
     Amplitudes      Value                   Denominator
    ----------------------------------------------------------------
    [   0    1]   0.168518414 ( -1.465258 -  -0.827979 =  -0.637280)
    ----------------------------------------------------------------
    T2 amplitudes larger than 0.1000:
     Amplitudes      Value                   Denominator
    ----------------------------------------------------------------------------------------------------
    [  15    7   15    8]  -0.102715406 (  0.567708 +  -0.221341 -   0.567708 -   1.221413 =  -1.442754)
    [  15   10   15   11]  -0.102715406 (  0.567708 +  -0.221341 -   0.567708 -   1.221413 =  -1.442754)
    ----------------------------------------------------------------------------------------------------
    Renormalizing 2-body integrals .............. Done. Timing      0.017 s
    Renormalizing 1-body integrals .............. Done. Timing      0.004 s
    Computing <0|[Fr, T1]|0> .................... Done. Timing      0.001 s
    Computing <0|[Fr, T2]|0> .................... Done. Timing      0.001 s
    Computing <0|[Vr, T1]|0> .................... Done. Timing      0.001 s
    Computing <0|[Vr, T2]|0> .................... Done. Timing      0.058 s

  ==> DSRG-MRPT2 Energy Summary <==

    E0 (reference)                 =   -149.707631190543111
    < Phi_0 | [Fr, T1] | Phi_0 >   =     -0.017779121275793
    < Phi_0 | [Fr, T2] | Phi_0 >   =      0.014424429449406
    < Phi_0 | [Vr, T1] | Phi_0 >   =      0.015516714645918
    < Phi_0 | [Vr, T2] | Phi_0 >   =     -0.267951283092970
      - [Vr, T2] L1 contribution   =     -0.387196304620217
      - [Vr, T2] L2 contribution   =      0.100901603494167
      - [Vr, T2] L3 contribution   =      0.018343418033079
    DSRG-MRPT2 correlation energy  =     -0.255789260273439
    DSRG-MRPT2 total energy        =   -149.963420450816557
    Computing MRPT2 Hbar AAAA ................... Done. Timing      0.088 s

  ==> De-Normal-Order DSRG Transformed Hamiltonian <==

    Computing the scalar term ................... Done. Timing      0.001 s
    Computing the 1-body term ................... Done. Timing      0.000 s

  ==> Rotate DSRG Transformed Hamiltonian back to Original Basis <==

    Rotating 1-body term to original basis ...... Done. Timing      0.000 s
    Rotating 2-body term to original basis ...... Done. Timing      0.005 s

              ---------------------------------------------------
                Complete Active Space Configuration Interaction
                                  Chenyang Li
              ---------------------------------------------------


  ==> Input Summary <==

    No. a electrons in active      =     5
    No. b electrons in active      =     3
    multiplicity                   =     3
    spin ms (2 * Sz)               =     2

  ==> Orbital Spaces <==

    TOTAL MO                      [    7     1     3     3     1     7     3     3 ]
    FROZEN CORE                   [    1     0     0     0     0     1     0     0 ]
    FROZEN VIRTUAL                [    0     0     0     0     0     0     0     0 ]
    CORRELATED MO                 [    6     1     3     3     1     6     3     3 ]
    CORE                          [    1     0     0     0     0     1     0     0 ]
    ACTIVE                        [    1     0     1     1     0     1     1     1 ]
    VIRTUAL                       [    4     1     2     2     1     4     2     2 ]
  Forming alpha and beta strings      ...  Done. Timing        0.000089 s
  Forming determinants                ...  Done. Timing        0.000024 s

  ==> Determinants Summary <==

    number of alpha active electrons         =     5
    number of beta active electrons          =     3
    root symmetry (zero based)               =     1
    number of determinants                   =    16

  Diagonalizing Hamiltonian           ...

  ==> Computing 1 Coupling Lists <==

                  1.420e-04 seconds
                  8.400e-05 seconds

  ==> Computing 2 Coupling Lists <==

                 2.880e-04 seconds
                 1.000e-04 seconds
                 4.460e-04 seconds

  Davidson-Liu solver algorithm using SigmaVectorSparseList sigma algorithm

  Performing diagonalization of the H matrix
  Found 14 roots with 2S+1 = 3 *
  Found 2 roots with 2S+1 = 5  Done. Timing        0.002017 s

  * * * * * * * * * * * * * * * * *
  *  CI Vectors & Configurations  *
  * * * * * * * * * * * * * * * * *

  ==> Root No. 0 <==

    2 a a 0 2 2          0.9718270273
    2 2 2 0 a a          0.1691336354
    0 a a 2 2 2         -0.0787820295
    b 2 a a 2 a         -0.0729778474
    b a 2 a a 2          0.0729778474
    a a 2 b a 2         -0.0602309175
    a 2 a b 2 a          0.0602309175

    Total Energy:   -149.965037165922837



  ==> Permanent Dipole Moments (B1g) <==

  Only print nonzero (> 1.0e-5) elements.


  ==> Energy Summary <==

    Multi.(2ms)  Irrep.  No.               Energy      <S^2>
    --------------------------------------------------------
       3  (  2)   B1g     0     -149.965037165923   2.000000
    --------------------------------------------------------
 Computing  1RDMs (0 Triplet B1g - 0 Triplet B1g) ... Done. Timing        0.000226 s
 Computing  2RDMs (0 Triplet B1g - 0 Triplet B1g) ... Done. Timing        0.000718 s
  Orbital rotations on spin-free RDMs ...
    Transformed 1 RDMs.
    Transformed 2 RDMs.

  ==> Semicanonicalize Orbitals <==

    MIX INACTIVE ORBITALS   ...... FALSE
    MIX GAS ACTIVE ORBITALS ...... FALSE
    FROZEN_DOCC     ...  CANONICAL
    FROZEN_UOCC     ...  CANONICAL
    GAS1            ...  CANONICAL
    RESTRICTED_DOCC ...  CANONICAL
    RESTRICTED_UOCC ...  CANONICAL

    Off-Diag. Elements       Max           2-Norm
    ------------------------------------------------
    FROZEN_DOCC          0.0000000000   0.0000000000
    GAS1                 0.0000000000   0.0000000000
    RESTRICTED_DOCC      0.0000000000   0.0000000000
    RESTRICTED_UOCC      0.0002601478   0.0005386249
    ------------------------------------------------
  Integrals are about to be updated.
  Computing Conventional Integrals	Presorting SO-basis two-electron integrals.
	Sorting File: SO Ints (nn|nn) nbuckets = 1
	Constructing frozen core operators
	Starting first half-transformation.
	Sorting half-transformed integrals.
	First half integral transformation complete.
	Starting second half-transformation.
	Two-electron integral transformation complete.

  Integral transformation done. 0.01662600 s
  Reading the two-electron integrals from disk
  Size of two-electron integrals:   0.013739 GB
  Timing for conventional integral transformation:            0.187 s.
  Frozen-core energy        -130.055374472617302 a.u.
  Timing for frozen one-body operator:                        0.001 s.
  Resorting integrals after freezing core.
  Timing for freezing core and virtual orbitals:              0.029 s.
  Integrals update took     0.216 s.
  Orbital rotations on spin-free RDMs ...
    Transformed 1 RDMs.
    Transformed 2 RDMs.
  Timing for orbital canonicalization:                        0.227 s.

    -----------------------------------------------------------------------
      Spin-Adapted Multireference Driven Similarity Renormalization Group
                            written by Chenyang Li
                                 2 OMP threads
    -----------------------------------------------------------------------

  Disclaimer:
    The spin-adapted DSRG code is largely adopted from the spin-integrated code developed by
    Chenyang Li, Kevin P. Hannon, Tianyuan Zhang, and Francesco A. Evangelista.

  ==> Multireference Driven Similarity Renormalization Group <==

    Computing Fock matrix and cleaning JK ....... Done. Timing      0.005 s
    Reading DSRG options ........................ Done. Timing      0.000 s
    Setting ambit MO space ...................... Done. Timing      0.000 s
    Initializing density cumulants .............. Done. Timing      0.001 s
    Filling Fock matrix from ForteIntegrals ..... Done. Timing      0.000 s

  ==> Density Cumulant Summary <==

             2-cumulant   3-cumulant
    --------------------------------
    max        0.489857     0.000000
    2-norm     1.177387     0.000000
    --------------------------------

  ==> Checking Semicanonical Orbitals <==

    Block                Max            Mean
    ----------------------------------------
    CORE        0.0000000000    0.0000000000
    VIRTUAL     0.0000000000    0.0000000000
    GAS1        0.0000000000    0.0000000000
    ----------------------------------------
    Orbitals are semi-canonicalized.

                  --------------------------------------------
                    MR-DSRG Second-Order Perturbation Theory
                  --------------------------------------------


  ==> Computation Information <==

    Integral type                               CONVENTIONAL
    Source operator                                 STANDARD
    Core-Virtual source type                          NORMAL
    Reference relaxation                               TWICE
    3RDM algorithm                                    DIRECT
    Internal amplitudes                                 NONE
    State type                                  SINGLE STATE
    Flow parameter                                 1.000e+00
    Taylor expansion threshold                     1.000e-03
    Intruder amplitudes threshold                  1.000e-01
    Number of amplitudes for printing                     15


  ==> DSRG-MRPT2 Memory Information <==

    Memory assigned by the user                    500.00 MB
    Memory available for MR-DSRG                   441.42 MB
    Generalized Fock matrix                          5.62 KB
    1- and 2-density cumulants                      10.94 KB
    2-electron (4-index) integrals                 294.91 KB
    T2 cluster amplitudes                          294.91 KB
    T1 cluster amplitudes                            1.54 KB
    1- and 2-body Hbar                              10.66 KB
    Local 1- and 2-body intermediates               10.66 KB
    Local integrals for forming Hbar                96.77 KB
    Max memory for local intermediates              96.77 KB
    Memory currently available                     440.80 MB

    Initializing integrals ...................... Done. Timing      0.006 s
    Allocating amplitudes ....................... Done. Timing      0.001 s

  ==> Total Timings (s) for Computing Commutators <==

             [H1, T1]    [H1, T2]    [H2, T1]    [H2, T2]
    -----------------------------------------------------
    -> C0       0.001       0.001       0.001       0.058
    -> C1       0.000       0.000       0.000       0.000
    -> C2                   0.000       0.000       0.000
    -----------------------------------------------------

    Computing T2 amplitudes ..................... Done. Timing      0.020 s
    Computing T1 amplitudes ..................... Done. Timing      0.003 s

  ==> First-Order Excitation Amplitudes Summary <==

    Active Indices:    1    7   10   15   20   23
    Largest T1 amplitudes (absolute values):
        i    a                i    a                i    a
    -----------------------------------------------------------------
    [   0    1] 0.1682322 [  15   16] 0.0928602 [  15   17] 0.0582923
    [  15   19] 0.0514478 [  10   11] 0.0481307 [   7    8] 0.0481307
    [   1    2] 0.0085739 [  20   21] 0.0083076 [  23   24] 0.0083076
    [  14   15] 0.0062140 [   1    5] 0.0052936 [   1    3] 0.0022934
    [  20   22] 0.0018423 [  23   25] 0.0018423 [  10   12] 0.0009882
    -----------------------------------------------------------------
    2-Norm of T1 vector:                            0.218849985848014
    Number of nonzero elements:                                    22
    -----------------------------------------------------------------
    Largest T2 amplitudes (absolute values):
        i    j    a    b                i    j    a    b                i    j    a    b
    -----------------------------------------------------------------------------------------------
    [  15    7   15    8] 0.1027306 [  15   10   15   11] 0.1027306 [  15   23   15   24] 0.0878583
    [  15   20   15   21] 0.0878583 [  15    1   15    2] 0.0830605 [   1   10    1   11] 0.0817948
    [   1    7    1    8] 0.0817948 [  10   10   10   11] 0.0796940 [   7    7    7    8] 0.0796940
    [  23    7   23    8] 0.0729105 [  20   10   20   11] 0.0729105 [  10    7   10    8] 0.0721012
    [   7   10    7   11] 0.0721012 [  15   15    1    5] 0.0720154 [   0    0    1    1] 0.0703068
    -----------------------------------------------------------------------------------------------
    2-Norm of T2 vector:                                                          0.882886305854222
    Number of nonzero elements:                                                                4440
    -----------------------------------------------------------------------------------------------

  ==> Possible Intruders <==

    T1 amplitudes larger than 0.1000:
     Amplitudes      Value                   Denominator
    ----------------------------------------------------------------
    [   0    1]   0.168232241 ( -1.466288 -  -0.832134 =  -0.634154)
    ----------------------------------------------------------------
    T2 amplitudes larger than 0.1000:
     Amplitudes      Value                   Denominator
    ----------------------------------------------------------------------------------------------------
    [  15    7   15    8]  -0.102730640 (  0.570807 +  -0.221239 -   0.570807 -   1.220982 =  -1.442221)
    [  15   10   15   11]  -0.102730640 (  0.570807 +  -0.221239 -   0.570807 -   1.220982 =  -1.442221)
    ----------------------------------------------------------------------------------------------------
    Renormalizing 2-body integrals .............. Done. Timing      0.017 s
    Renormalizing 1-body integrals .............. Done. Timing      0.004 s
    Computing <0|[Fr, T1]|0> .................... Done. Timing      0.001 s
    Computing <0|[Fr, T2]|0> .................... Done. Timing      0.001 s
    Computing <0|[Vr, T1]|0> .................... Done. Timing      0.001 s
    Computing <0|[Vr, T2]|0> .................... Done. Timing      0.058 s

  ==> DSRG-MRPT2 Energy Summary <==

    E0 (reference)                 =   -149.705558467289023
    < Phi_0 | [Fr, T1] | Phi_0 >   =     -0.015424864402299
    < Phi_0 | [Fr, T2] | Phi_0 >   =      0.013410929147727
    < Phi_0 | [Vr, T1] | Phi_0 >   =      0.014334250658887
    < Phi_0 | [Vr, T2] | Phi_0 >   =     -0.272192768033665
      - [Vr, T2] L1 contribution   =     -0.382891398456447
      - [Vr, T2] L2 contribution   =      0.092928066128708
      - [Vr, T2] L3 contribution   =      0.017770564294074
    DSRG-MRPT2 correlation energy  =     -0.259872452629349
    DSRG-MRPT2 total energy        =   -149.965430919918361
    Computing MRPT2 Hbar AAAA ................... Done. Timing      0.077 s

  ==> De-Normal-Order DSRG Transformed Hamiltonian <==

    Computing the scalar term ................... Done. Timing      0.001 s
    Computing the 1-body term ................... Done. Timing      0.000 s

  ==> Rotate DSRG Transformed Hamiltonian back to Original Basis <==

    Rotating 1-body term to original basis ...... Done. Timing      0.000 s
    Rotating 2-body term to original basis ...... Done. Timing      0.005 s

              ---------------------------------------------------
                Complete Active Space Configuration Interaction
                                  Chenyang Li
              ---------------------------------------------------


  ==> Input Summary <==

    No. a electrons in active      =     5
    No. b electrons in active      =     3
    multiplicity                   =     3
    spin ms (2 * Sz)               =     2

  ==> Orbital Spaces <==

    TOTAL MO                      [    7     1     3     3     1     7     3     3 ]
    FROZEN CORE                   [    1     0     0     0     0     1     0     0 ]
    FROZEN VIRTUAL                [    0     0     0     0     0     0     0     0 ]
    CORRELATED MO                 [    6     1     3     3     1     6     3     3 ]
    CORE                          [    1     0     0     0     0     1     0     0 ]
    ACTIVE                        [    1     0     1     1     0     1     1     1 ]
    VIRTUAL                       [    4     1     2     2     1     4     2     2 ]
  Forming alpha and beta strings      ...  Done. Timing        0.000079 s
  Forming determinants                ...  Done. Timing        0.000022 s

  ==> Determinants Summary <==

    number of alpha active electrons         =     5
    number of beta active electrons          =     3
    root symmetry (zero based)               =     1
    number of determinants                   =    16

  Diagonalizing Hamiltonian           ...

  ==> Computing 1 Coupling Lists <==

                  1.200e-04 seconds
                  7.000e-05 seconds

  ==> Computing 2 Coupling Lists <==

                 2.930e-04 seconds
                 8.800e-05 seconds
                 3.770e-04 seconds

  Davidson-Liu solver algorithm using SigmaVectorSparseList sigma algorithm

  Performing diagonalization of the H matrix
  Found 14 roots with 2S+1 = 3 *
  Found 2 roots with 2S+1 = 5  Done. Timing        0.001830 s

  * * * * * * * * * * * * * * * * *
  *  CI Vectors & Configurations  *
  * * * * * * * * * * * * * * * * *

  ==> Root No. 0 <==

    2 a a 0 2 2         -0.9716242087
    2 2 2 0 a a         -0.1700220388
    0 a a 2 2 2          0.0790051674
    b a 2 a a 2         -0.0730472403
    b 2 a a 2 a          0.0730472403
    a a 2 b a 2          0.0603231436
    a 2 a b 2 a         -0.0603231436

    Total Energy:   -149.965431642595973



  ==> Permanent Dipole Moments (B1g) <==

  Only print nonzero (> 1.0e-5) elements.


  ==> Energy Summary <==

    Multi.(2ms)  Irrep.  No.               Energy      <S^2>
    --------------------------------------------------------
       3  (  2)   B1g     0     -149.965431642596   2.000000
    --------------------------------------------------------

  => SA-MRDSRG Reference Relaxation Energy Summary <=

                         Fixed Ref. (a.u.)              Relaxed Ref. (a.u.)
           -------------------------------  -------------------------------
    Iter.          Total Energy      Delta          Total Energy      Delta
    -----------------------------------------------------------------------
        1     -149.963420450817 -1.500e+02     -149.965037165923 -1.500e+02
        2     -149.965430919918 -2.010e-03     -149.965431642596 -3.945e-04
    -----------------------------------------------------------------------

  ==> Total Timings (s) for Computing Commutators <==

             [H1, T1]    [H1, T2]    [H2, T1]    [H2, T2]
    -----------------------------------------------------
    -> C0       0.001       0.001       0.001       0.058
    -> C1       0.000       0.000       0.000       0.000
    -> C2                   0.000       0.000       0.000
    -----------------------------------------------------


  Time to prepare integrals:        0.496 seconds
  Time to run job          :        0.710 seconds
  Total                    :        1.206 seconds
    DSRG-MRPT2 unrelaxed energy...........................................................PASSED
    DSRG-MRPT2 partially relaxed energy...................................................PASSED
    DSRG-MRPT2 relaxed energy.............................................................PASSED

    Psi4 stopped on: Sunday, 27 February 2022 07:05PM
    Psi4 wall time for execution: 0:00:04.35

*** Psi4 exiting successfully. Buy a developer a beer!
