
    -----------------------------------------------------------------------
          Psi4: An Open-Source Ab Initio Electronic Structure Package
                               Psi4 undefined 

                         Git: Rev {master} 96046ad 


    R. M. Parrish, L. A. Burns, D. G. A. Smith, A. C. Simmonett,
    A. E. DePrince III, E. G. Hohenstein, U. Bozkaya, A. Yu. Sokolov,
    R. Di Remigio, R. M. Richard, J. F. Gonthier, A. M. James,
    H. R. McAlexander, A. Kumar, M. Saitow, X. Wang, B. P. Pritchard,
    P. Verma, H. F. Schaefer III, K. Patkowski, R. A. King, E. F. Valeev,
    F. A. Evangelista, J. M. Turney, T. D. Crawford, and C. D. Sherrill,
    J. Chem. Theory Comput. 13(7) pp 3185--3197 (2017).
    (doi: 10.1021/acs.jctc.7b00174)


                         Additional Contributions by
    P. Kraus, H. Kruse, M. H. Lechner, M. C. Schieber, and R. A. Shaw

    -----------------------------------------------------------------------


    Psi4 started on: Monday, 11 February 2019 05:25PM

    Process ID: 6511
    Host:       DESKTOP-S9SKLLR
    PSIDATADIR: /home/henan/source/psi4_install_debug/share/psi4
    Memory:     500.0 MiB
    Threads:    1
    
  ==> Input File <==

--------------------------------------------------------------------------
#! Orbital rotation invarience test

import forte

refscf = -7.862246310410
reffci = -7.766034953526

molecule {
0 1
Li
H 1 R

R = 3.0
units bohr 
symmetry c1
}

set {
  basis sto-3g
  reference rhf
  scf_type pk
  e_convergence 12
}

set forte {
  subspace ["Li"]
  avas True
  AVAS_DIAGONALIZE True
  active_space_solver fci
  print 1
  active [6]
  restricted_docc [0]
  root_sym 0
  multiplicity 3
  ms 0.0
}


energy('scf')
compare_values(refscf, variable("CURRENT ENERGY"),11, "SCF energy") #TEST

energy('forte')
compare_values(reffci, variable("CURRENT ENERGY"),11, "FCI energy") #TEST
--------------------------------------------------------------------------

*** tstart() called on DESKTOP-S9SKLLR
*** at Mon Feb 11 17:25:10 2019

   => Loading Basis Set <=

    Name: STO-3G
    Role: ORBITAL
    Keyword: BASIS
    atoms 1 entry LI         line    31 file /home/henan/source/psi4_install_debug/share/psi4/basis/sto-3g.gbs 
    atoms 2 entry H          line    19 file /home/henan/source/psi4_install_debug/share/psi4/basis/sto-3g.gbs 


         ---------------------------------------------------------
                                   SCF
            by Justin Turney, Rob Parrish, Andy Simmonett
                             and Daniel Smith
                              RHF Reference
                        1 Threads,    500 MiB Core
         ---------------------------------------------------------

  ==> Geometry <==

    Molecular point group: c1
    Full point group: C_inf_v

    Geometry (in Bohr), charge = 0, multiplicity = 1:

       Center              X                  Y                   Z               Mass       
    ------------   -----------------  -----------------  -----------------  -----------------
         LI           0.000000000000     0.000000000000    -0.376812030371     7.016003436600
         H            0.000000000000     0.000000000000     2.623187969629     1.007825032230

  Running in c1 symmetry.

  Rotational constants: A = ************  B =      7.59029  C =      7.59029 [cm^-1]
  Rotational constants: A = ************  B = 227551.19787  C = 227551.19787 [MHz]
  Nuclear repulsion =    1.000000000000000

  Charge       = 0
  Multiplicity = 1
  Electrons    = 4
  Nalpha       = 2
  Nbeta        = 2

  ==> Algorithm <==

  SCF Algorithm Type is PK.
  DIIS enabled.
  MOM disabled.
  Fractional occupation disabled.
  Guess Type is SAD.
  Energy threshold   = 1.00e-12
  Density threshold  = 1.00e-06
  Integral threshold = 0.00e+00

  ==> Primary Basis <==

  Basis Set: STO-3G
    Blend: STO-3G
    Number of shells: 4
    Number of basis function: 6
    Number of Cartesian functions: 6
    Spherical Harmonics?: true
    Max angular momentum: 1

  ==> Pre-Iterations <==

   -------------------------------------------------------
    Irrep   Nso     Nmo     Nalpha   Nbeta   Ndocc  Nsocc
   -------------------------------------------------------
     A          6       6       0       0       0       0
   -------------------------------------------------------
    Total       6       6       2       2       2       0
   -------------------------------------------------------

  ==> Integral Setup <==

  Using in-core PK algorithm.
   Calculation information:
      Number of atoms:                   2
      Number of AO shells:               4
      Number of primitives:             12
      Number of atomic orbitals:         6
      Number of basis functions:         6

      Integral cutoff                 1.00e-12
      Number of threads:                 1

  Performing in-core PK
  Using 462 doubles for integral storage.
  We computed 55 shell quartets total.
  Whereas there are 55 unique shell quartets.

  ==> DiskJK: Disk-Based J/K Matrices <==

    J tasked:                  Yes
    K tasked:                  Yes
    wK tasked:                  No
    Memory [MiB]:              375
    Schwarz Cutoff:          1E-12

    OpenMP threads:              1

  Minimum eigenvalue in the overlap matrix is 3.4333995519E-01.
  Using Symmetric Orthogonalization.

  SCF Guess: Superposition of Atomic Densities via on-the-fly atomic UHF.

  ==> Iterations <==

                        Total Energy        Delta E     RMS |[F,P]|

   @RHF iter   0:    -7.56997128599611   -7.56997e+00   2.68788e-02 
   @RHF iter   1:    -7.85309237258734   -2.83121e-01   1.22964e-02 
   @RHF iter   2:    -7.86113969188755   -8.04732e-03   2.76166e-03 DIIS
   @RHF iter   3:    -7.86204748587298   -9.07794e-04   1.01750e-03 DIIS
   @RHF iter   4:    -7.86224601577357   -1.98530e-04   4.95440e-05 DIIS
   @RHF iter   5:    -7.86224630648548   -2.90712e-07   6.60223e-06 DIIS
   @RHF iter   6:    -7.86224631040251   -3.91703e-09   2.15670e-07 DIIS
   @RHF iter   7:    -7.86224631041033   -7.81597e-12   5.93146e-09 DIIS
   @RHF iter   8:    -7.86224631041032    1.77636e-15   3.40113e-10 DIIS
  Energy converged.


  ==> Post-Iterations <==

    Orbital Energies [Eh]
    ---------------------

    Doubly Occupied:                                                      

       1A     -2.348477     2A     -0.286330  

    Virtual:                                                              

       3A      0.078326     4A      0.163933     5A      0.163933  
       6A      0.551172  

    Final Occupation by Irrep:
              A 
    DOCC [     2 ]

  @RHF Final Energy:    -7.86224631041032

   => Energetics <=

    Nuclear Repulsion Energy =              1.0000000000000000
    One-Electron Energy =                 -12.4548780544299813
    Two-Electron Energy =                   3.5926317440196569
    Total Energy =                         -7.8622463104103240

Computation Completed


Properties will be evaluated at   0.000000,   0.000000,   0.000000 [a0]

Properties computed using the SCF density matrix

  Nuclear Dipole Moment: [e a0]
     X:     0.0000      Y:     0.0000      Z:     1.4928

  Electronic Dipole Moment: [e a0]
     X:     0.0000      Y:    -0.0000      Z:    -3.4031

  Dipole Moment: [e a0]
     X:     0.0000      Y:    -0.0000      Z:    -1.9104     Total:     1.9104

  Dipole Moment: [D]
     X:     0.0000      Y:    -0.0000      Z:    -4.8557     Total:     4.8557


*** tstop() called on DESKTOP-S9SKLLR at Mon Feb 11 17:25:10 2019
Module time:
	user time   =       0.42 seconds =       0.01 minutes
	system time =       0.08 seconds =       0.00 minutes
	total time  =          0 seconds =       0.00 minutes
Total time:
	user time   =       0.42 seconds =       0.01 minutes
	system time =       0.08 seconds =       0.00 minutes
	total time  =          0 seconds =       0.00 minutes
	SCF energy........................................................PASSED

*** tstart() called on DESKTOP-S9SKLLR
*** at Mon Feb 11 17:25:10 2019

   => Loading Basis Set <=

    Name: STO-3G
    Role: ORBITAL
    Keyword: BASIS
    atoms 1 entry LI         line    31 file /home/henan/source/psi4_install_debug/share/psi4/basis/sto-3g.gbs 
    atoms 2 entry H          line    19 file /home/henan/source/psi4_install_debug/share/psi4/basis/sto-3g.gbs 


         ---------------------------------------------------------
                                   SCF
            by Justin Turney, Rob Parrish, Andy Simmonett
                             and Daniel Smith
                              RHF Reference
                        1 Threads,    500 MiB Core
         ---------------------------------------------------------

  ==> Geometry <==

    Molecular point group: c1
    Full point group: C_inf_v

    Geometry (in Bohr), charge = 0, multiplicity = 1:

       Center              X                  Y                   Z               Mass       
    ------------   -----------------  -----------------  -----------------  -----------------
         LI           0.000000000000     0.000000000000    -0.376812030371     7.016003436600
         H            0.000000000000     0.000000000000     2.623187969629     1.007825032230

  Running in c1 symmetry.

  Rotational constants: A = ************  B =      7.59029  C =      7.59029 [cm^-1]
  Rotational constants: A = ************  B = 227551.19787  C = 227551.19787 [MHz]
  Nuclear repulsion =    1.000000000000000

  Charge       = 0
  Multiplicity = 1
  Electrons    = 4
  Nalpha       = 2
  Nbeta        = 2

  ==> Algorithm <==

  SCF Algorithm Type is PK.
  DIIS enabled.
  MOM disabled.
  Fractional occupation disabled.
  Guess Type is SAD.
  Energy threshold   = 1.00e-12
  Density threshold  = 1.00e-08
  Integral threshold = 0.00e+00

  ==> Primary Basis <==

  Basis Set: STO-3G
    Blend: STO-3G
    Number of shells: 4
    Number of basis function: 6
    Number of Cartesian functions: 6
    Spherical Harmonics?: true
    Max angular momentum: 1

  ==> Pre-Iterations <==

   -------------------------------------------------------
    Irrep   Nso     Nmo     Nalpha   Nbeta   Ndocc  Nsocc
   -------------------------------------------------------
     A          6       6       0       0       0       0
   -------------------------------------------------------
    Total       6       6       2       2       2       0
   -------------------------------------------------------

  ==> Integral Setup <==

  Using in-core PK algorithm.
   Calculation information:
      Number of atoms:                   2
      Number of AO shells:               4
      Number of primitives:             12
      Number of atomic orbitals:         6
      Number of basis functions:         6

      Integral cutoff                 1.00e-12
      Number of threads:                 1

  Performing in-core PK
  Using 462 doubles for integral storage.
  We computed 55 shell quartets total.
  Whereas there are 55 unique shell quartets.

  ==> DiskJK: Disk-Based J/K Matrices <==

    J tasked:                  Yes
    K tasked:                  Yes
    wK tasked:                  No
    Memory [MiB]:              375
    Schwarz Cutoff:          1E-12

    OpenMP threads:              1

  Minimum eigenvalue in the overlap matrix is 3.4333995519E-01.
  Using Symmetric Orthogonalization.

  SCF Guess: Superposition of Atomic Densities via on-the-fly atomic UHF.

  ==> Iterations <==

                        Total Energy        Delta E     RMS |[F,P]|

   @RHF iter   0:    -7.56997128599611   -7.56997e+00   2.68788e-02 
   @RHF iter   1:    -7.85309237258734   -2.83121e-01   1.22964e-02 
   @RHF iter   2:    -7.86113969188755   -8.04732e-03   2.76166e-03 DIIS
   @RHF iter   3:    -7.86204748587298   -9.07794e-04   1.01750e-03 DIIS
   @RHF iter   4:    -7.86224601577357   -1.98530e-04   4.95440e-05 DIIS
   @RHF iter   5:    -7.86224630648548   -2.90712e-07   6.60223e-06 DIIS
   @RHF iter   6:    -7.86224631040251   -3.91703e-09   2.15670e-07 DIIS
   @RHF iter   7:    -7.86224631041033   -7.81597e-12   5.93146e-09 DIIS
   @RHF iter   8:    -7.86224631041032    1.77636e-15   3.40113e-10 DIIS
  Energy converged.


  ==> Post-Iterations <==

    Orbital Energies [Eh]
    ---------------------

    Doubly Occupied:                                                      

       1A     -2.348477     2A     -0.286330  

    Virtual:                                                              

       3A      0.078326     4A      0.163933     5A      0.163933  
       6A      0.551172  

    Final Occupation by Irrep:
              A 
    DOCC [     2 ]

  @RHF Final Energy:    -7.86224631041032

   => Energetics <=

    Nuclear Repulsion Energy =              1.0000000000000000
    One-Electron Energy =                 -12.4548780544299813
    Two-Electron Energy =                   3.5926317440196569
    Total Energy =                         -7.8622463104103240

Computation Completed


Properties will be evaluated at   0.000000,   0.000000,   0.000000 [a0]

Properties computed using the SCF density matrix

  Nuclear Dipole Moment: [e a0]
     X:     0.0000      Y:     0.0000      Z:     1.4928

  Electronic Dipole Moment: [e a0]
     X:     0.0000      Y:    -0.0000      Z:    -3.4031

  Dipole Moment: [e a0]
     X:     0.0000      Y:    -0.0000      Z:    -1.9104     Total:     1.9104

  Dipole Moment: [D]
     X:     0.0000      Y:    -0.0000      Z:    -4.8557     Total:     4.8557


*** tstop() called on DESKTOP-S9SKLLR at Mon Feb 11 17:25:11 2019
Module time:
	user time   =       0.39 seconds =       0.01 minutes
	system time =       0.06 seconds =       0.00 minutes
	total time  =          1 seconds =       0.02 minutes
Total time:
	user time   =       0.84 seconds =       0.01 minutes
	system time =       0.14 seconds =       0.00 minutes
	total time  =          1 seconds =       0.02 minutes
   => Loading Basis Set <=

    Name: STO-3G
    Role: ORBITAL
    Keyword: MINAO_BASIS
    atoms 1 entry LI         line    31 file /home/henan/source/psi4_install_debug/share/psi4/basis/sto-3g.gbs 
    atoms 2 entry H          line    19 file /home/henan/source/psi4_install_debug/share/psi4/basis/sto-3g.gbs 


  Forte
  ----------------------------------------------------------------------------
  A suite of quantum chemistry methods for strongly correlated electrons

    git branch: master - git commit: c805b93

  Developed by:
    Francesco A. Evangelista, Chenyang Li, Kevin P. Hannon,
    Jeffrey B. Schriber, Tianyuan Zhang, Chenxi Cai,
    Nan He, Nicholas Stair, Shuhe Wang, Renke Huang
  ----------------------------------------------------------------------------

  Size of Determinant class: 16

  ==> MO Space Information <==

  Read options for space RESTRICTED_DOCC
  Read options for space ACTIVE
  -------------------------------
                        A   Sum
  -------------------------------
    FROZEN_DOCC         0     0
    RESTRICTED_DOCC     0     0
    ACTIVE              6     6
    RESTRICTED_UOCC     0     0
    FROZEN_UOCC         0     0
    Total               6     6
  -------------------------------

  List of subspaces: LI

  Subspace contains AOs:
       1       2       3       4       5

  Minimal basis:
    ==================================
       AO    Atom    Label  AO type   
    ----------------------------------
        1     1LI 1     1S
        2     1LI 1     2S
        3     1LI 1     2PZ
        4     1LI 1     2PX
        5     1LI 1     2PY
        6     2H  1     1S
    ==================================

  Orbital overlap with ao subspace:
    ========================
    Irrep   MO   <phi|P|phi>
    ------------------------
      0      1    0.999988
      0      2    0.827097
      0      3    0.988848
      0      4    1.000000
      0      5    1.000000
      0      6    0.184067
    ========================

  Generating AVAS orbitals

  Number of occupied MOs:      2
  Number of virtual MOs:       4
  ## SXXS_ll_so (Symmetry 0) ##
  Irrep: 1 Size: 6 x 6

                 1                   2                   3                   4                   5

    1     0.99998760471351     0.00146395999587    -0.00037179278183     0.00000000000000    -0.00000000000000
    2     0.00146395999587     0.82709727025325     0.04391102698116     0.00000000000000     0.00000000000000
    3    -0.00037179278183     0.04391102698116     0.98884819057881    -0.00000000000000     0.00000000000000
    4     0.00000000000000     0.00000000000000    -0.00000000000000     1.00000000000000    -0.00000000000000
    5    -0.00000000000000     0.00000000000000     0.00000000000000    -0.00000000000000     1.00000000000000
    6    -0.00318020818520     0.37560225548239    -0.09538936024220     0.00000000000000    -0.00000000000000

                 6

    1    -0.00318020818520
    2     0.37560225548239
    3    -0.09538936024220
    4     0.00000000000000
    5    -0.00000000000000
    6     0.18406693445443



  ## S virtual block (Symmetry 0) ##
  Irrep: 1 Size: 4 x 4

                 1                   2                   3                   4

    1     0.00000000000000     0.00000000000000     0.00000000000000     0.00000000000000
    2     0.00000000000000     0.00000000000000     0.00000000000000     0.00000000000000
    3     0.00000000000000     0.00000000000000     0.00000000000000     0.00000000000000
    4     0.00000000000000     0.00000000000000     0.00000000000000     0.00000000000000




  Sum of eigenvalues: 5.000000

  Number of inactive occupied MOs:      0
  Number of active occupied MOs:        2
  Number of active virtual MOs:         3
  Number of inactive virtual MOs:       1

  restricted_docc = [0]
  active          = [5]

  Atomic Valence MOs:
    ============================
    Occupation  MO   <phi|P|phi>
    ----------------------------
      2          1    1.000000
      2          2    0.827085
      0          3    1.000000
      0          4    1.000000
      0          5    1.000000
    ============================


  ==> Integral Transformation <==

  Number of molecular orbitals:                     6
  Number of correlated molecular orbitals:          6
  Number of frozen occupied orbitals:               0
  Number of frozen unoccupied orbitals:             0
  Two-electron integral type:              Conventional


  Overall Conventional Integrals timings

	Presorting SO-basis two-electron integrals.
	Sorting File: SO Ints (nn|nn) nbuckets = 1
	Transforming the one-electron integrals and constructing Fock matrices
	Starting first half-transformation.
	Sorting half-transformed integrals.
	First half integral transformation complete.
	Starting second half-transformation.
	Two-electron integral transformation complete.

  Integral transformation done. 0.02480330 s
  Reading the two-electron integrals from disk
  Size of two-electron integrals:   0.000029 GB
  Timing for freezing core and virtual orbitals:              0.000 s.
  Conventional integrals take 0.06781730 s

  ==> Summary of Active Space Solver Input <==

    Irrep.  Multi.  Nstates
    -------------------------
       A       3        1
    -------------------------
    Total number of states: 1
    -------------------------


  ==> String Lists <==

  Number of alpha electrons     = 2
  Number of beta electrons      = 2
  Number of alpha strings       = 15
  Number of beta strings        = 15
  Timing for strings        =      0.000 s
  Timing for NN strings     =      0.000 s
  Timing for VO strings     =      0.000 s
  Timing for OO strings     =      0.000 s
  Timing for VVOO strings   =      0.001 s
  Timing for VOVO strings   =      0.000 s
  Timing for 1-hole strings =      0.000 s
  Timing for 2-hole strings =      0.000 s
  Timing for 3-hole strings =      0.000 s
  Total timing              =      0.002 s

  ==> FCI Solver <==

    Number of determinants                         225
    Symmetry                                         0
    Multiplicity                                     3
    Number of roots                                  1
    Target root                                      0
    Trial vectors per root                          10

  Allocating memory for the Hamiltonian algorithm. Size: 2 x 15 x 15.   Memory: 0.000003 GB
  Initial guess space is incomplete.
  Adding 1 determinant(s).

  ==> FCI Initial Guess <==

  ---------------------------------------------
    Root            Energy     <S^2>   Spin
  ---------------------------------------------
      0       -7.865358937593  0.000  singlet
      1       -7.765373269310  2.000  triplet
      2       -7.734871096971  0.000  singlet
      3       -7.715749280835  2.000  triplet
      4       -7.695975649809  0.000  singlet
      5       -7.683707949286  2.000  triplet
      6       -7.642001039327  0.000  singlet
      7       -7.480077000583  2.000  triplet
      8       -7.295729011763  2.000  triplet
      9       -7.262579814652  0.000  singlet
     10       -7.249403831785  2.000  triplet
     11       -7.247371509178  2.000  triplet
     12       -7.213633230150  0.000  singlet
     13       -7.213633230150  0.000  singlet
     14       -7.183531004095  0.000  singlet
     15       -7.168492113711  0.000  singlet
     16       -7.165796908556  0.000  singlet
     17       -7.131871372988  2.000  triplet
     18       -7.095047862322  0.000  singlet
     19       -7.083449038630  2.000  triplet
     20       -7.046479670330  0.000  singlet
  ---------------------------------------------
  Timing for initial guess  =      0.094 s

  Projecting out root 0
  Projecting out root 2
  Projecting out root 4
  Projecting out root 6
  Projecting out root 9
  Projecting out root 12
  Projecting out root 13
  Projecting out root 14
  Projecting out root 15
  Projecting out root 16
  Projecting out root 18
  Projecting out root 20
  ==> Diagonalizing Hamiltonian <==

  ----------------------------------------
    Iter.      Avg. Energy       Delta_E
  ----------------------------------------
      1       -7.765373269310  -7.765e+00
      2       -7.766032051512  -6.588e-04
      3       -7.766034935808  -2.884e-06
      4       -7.766034951320  -1.551e-08
      5       -7.766034953461  -2.140e-09
      6       -7.766034953526  -6.515e-11
      7       -7.766034953526  -7.709e-13
  ----------------------------------------
  The Davidson-Liu algorithm converged in 8 iterations.

  ==> Root No. 0 <==

    2ab000      0.66375361
    2ba000     -0.66375361
    2a000b      0.17845168
    2b000a     -0.17845168
    20b00a     -0.16568226
    20a00b      0.16568226

    Total Energy:        -7.766034953526423

  ==> Computing RDMs for Root No. 0 <==

    Timing for 1-RDM: 0.000 s
    Timing for 2-RDM: 0.002 s
    Timing for 3-RDM: 0.010 s

  ==> NATURAL ORBITALS <==

        1A      1.999882      2A      1.000003      3A      0.999927  
        4A      0.000073      5A      0.000073      6A      0.000042  


  ==> Energy Summary <==

    Multi.  Irrep.  No.               Energy
    -----------------------------------------
       3       A     0        -7.766034953526
    -----------------------------------------	FCI energy........................................................PASSED

    Psi4 stopped on: Monday, 11 February 2019 05:25PM
    Psi4 wall time for execution: 0:00:01.40

*** Psi4 exiting successfully. Buy a developer a beer!
