    -----------------------------------------------------------------------
          Psi4: An Open-Source Ab Initio Electronic Structure Package
                              Psi4 (no tag) Driver

                          Git: Rev {master} d8d4a3e 

    J. M. Turney, A. C. Simmonett, R. M. Parrish, E. G. Hohenstein,
    F. A. Evangelista, J. T. Fermann, B. J. Mintz, L. A. Burns, J. J. Wilke,
    M. L. Abrams, N. J. Russ, M. L. Leininger, C. L. Janssen, E. T. Seidl,
    W. D. Allen, H. F. Schaefer, R. A. King, E. F. Valeev, C. D. Sherrill,
    and T. D. Crawford, WIREs Comput. Mol. Sci. 2, 556-565 (2012)
    (doi: 10.1002/wcms.93)

                         Additional Contributions by
    A. E. DePrince, M. Saitow, U. Bozkaya, A. Yu. Sokolov
    -----------------------------------------------------------------------


    Psi4 started on: Sat Oct  3 22:12:59 2015

    Process ID:  52417
    PSI4DATADIR: /Users/jeffschriber/Source/psi4/lib
    Memory level set to 256.000 MB

  ==> Input File <==

--------------------------------------------------------------------------
# HF, RHF canonical orbitals, CAS-CI(2,2)
#! Generated using commit GITCOMMIT

import forte

refscf = -108.71420304902
refaci = -108.73219829437
refacipt2 = -108.732290101935 

molecule hf{
   N
   N 1 1.732878731527
units bohr
}

set {
  basis dz
  scf_type pk
  e_convergence 10
  d_convergence 10
  r_convergence 10
  reference rhf
}

set forte {
  job_type aci
  select_type aimed_energy
  frozen_docc [1,0,0,0,0,1,0,0]
  restricted_docc [1,0,0,0,0,0,1,0]
  active [1,0,1,1,0,2,0,1]
  taup 0.0001
  tauq 0.0001
  charge 0
  nroot 1
}

energy('scf')
compare_values(refscf, get_variable("SCF total energy"),10, "SCF energy") #TEST
energy('forte')
compare_values(refaci, get_variable("ACI ENERGY"),10, "ACI energy") #TEST
compare_values(refacipt2, get_variable("ACI+PT2 ENERGY"),10, "ACI+PT2 energy") #TEST
--------------------------------------------------------------------------
/Users/jeffschriber/Source/forte/forte.so loaded.

*** tstart() called on Jeffs-MacBook-Pro.local
*** at Sat Oct  3 22:13:00 2015

    There are an even number of electrons - assuming singlet.
    Specify the multiplicity with the MULTP option in the
    input if this is incorrect


         ---------------------------------------------------------
                                   SCF
            by Justin Turney, Rob Parrish, and Andy Simmonett
                              RHF Reference
                        1 Threads,    256 MiB Core
         ---------------------------------------------------------

  ==> Geometry <==

    Molecular point group: d2h
    Full point group: D_inf_h

    Geometry (in Bohr), charge = 0, multiplicity = 1:

       Center              X                  Y                   Z               Mass       
    ------------   -----------------  -----------------  -----------------  -----------------
           N          0.000000000000     0.000000000000    -0.866439365764    14.003074004780
           N          0.000000000000     0.000000000000     0.866439365764    14.003074004780

  Running in d2h symmetry.

  Rotational constants: A = ************  B =      2.86328  C =      2.86328 [cm^-1]
  Rotational constants: A = ************  B =  85839.10932  C =  85839.10932 [MHz]
  Nuclear repulsion =   28.276646893127690

  Charge       = 0
  Multiplicity = 1
  Electrons    = 14
  Nalpha       = 7
  Nbeta        = 7

  ==> Algorithm <==

  SCF Algorithm Type is PK.
  DIIS enabled.
  MOM disabled.
  Fractional occupation disabled.
  Guess Type is CORE.
  Energy threshold   = 1.00e-10
  Density threshold  = 1.00e-10
  Integral threshold = 0.00e+00

  ==> Primary Basis <==

  Basis Set: DZ
    Number of shells: 12
    Number of basis function: 20
    Number of Cartesian functions: 20
    Spherical Harmonics?: false
    Max angular momentum: 1

  ==> Pre-Iterations <==

   -------------------------------------------------------
    Irrep   Nso     Nmo     Nalpha   Nbeta   Ndocc  Nsocc
   -------------------------------------------------------
     Ag         6       6       0       0       0       0
     B1g        0       0       0       0       0       0
     B2g        2       2       0       0       0       0
     B3g        2       2       0       0       0       0
     Au         0       0       0       0       0       0
     B1u        6       6       0       0       0       0
     B2u        2       2       0       0       0       0
     B3u        2       2       0       0       0       0
   -------------------------------------------------------
    Total      20      20       7       7       7       0
   -------------------------------------------------------

  Starting with a DF guess...

 OEINTS: Overlap, kinetic, potential, dipole, and quadrupole integrals
         stored in file 35.

  ==> Integral Setup <==

  ==> DFJK: Density-Fitted J/K Matrices <==

    J tasked:                  Yes
    K tasked:                  Yes
    wK tasked:                  No
    OpenMP threads:              1
    Integrals threads:           1
    Memory (MB):               183
    Algorithm:                Core
    Integral Cache:           NONE
    Schwarz Cutoff:          1E-12
    Fitting Condition:       1E-12

   => Auxiliary Basis Set <=

  Basis Set: 
    Number of shells: 50
    Number of basis function: 186
    Number of Cartesian functions: 186
    Spherical Harmonics?: false
    Max angular momentum: 4

  Minimum eigenvalue in the overlap matrix is 6.8091223357E-03.
  Using Symmetric Orthogonalization.
  SCF Guess: Core (One-Electron) Hamiltonian.

  ==> Iterations <==

                           Total Energy        Delta E     RMS |[F,P]|

    Occupation by irrep:
             Ag   B1g   B2g   B3g    Au   B1u   B2u   B3u 
    DOCC [     3,    0,    0,    0,    0,    2,    1,    1 ]

   @DF-RHF iter   1:  -103.14909816849436   -1.03149e+02   4.62812e-01 
   @DF-RHF iter   2:  -107.75650986768358   -4.60741e+00   1.31788e-01 DIIS
   @DF-RHF iter   3:  -108.68162494107310   -9.25115e-01   2.40013e-02 DIIS
   @DF-RHF iter   4:  -108.71209787143408   -3.04729e-02   4.97707e-03 DIIS
   @DF-RHF iter   5:  -108.71414911360890   -2.05124e-03   6.18246e-04 DIIS
   @DF-RHF iter   6:  -108.71417803470018   -2.89211e-05   6.28086e-05 DIIS
   @DF-RHF iter   7:  -108.71417837790932   -3.43209e-07   4.64203e-06 DIIS
   @DF-RHF iter   8:  -108.71417837942982   -1.52050e-09   7.02488e-07 DIIS
   @DF-RHF iter   9:  -108.71417837945802   -2.81943e-11   5.43620e-08 DIIS
   @DF-RHF iter  10:  -108.71417837945822   -1.98952e-13   6.73186e-09 DIIS
   @DF-RHF iter  11:  -108.71417837945830   -8.52651e-14   6.65164e-10 DIIS
   @DF-RHF iter  12:  -108.71417837945836   -5.68434e-14   7.99180e-11 DIIS

  DF guess converged.

  ==> Integral Setup <==

 MINTS: Wrapper to libmints.
   by Justin Turney

   Calculation information:
      Number of atoms:                   2
      Number of AO shells:              12
      Number of SO shells:               6
      Number of primitives:             28
      Number of atomic orbitals:        20
      Number of basis functions:        20

      Number of irreps:                  8
      Integral cutoff                 0.00e+00
      Number of functions per irrep: [   6    0    2    2    0    6    2    2 ]

 OEINTS: Overlap, kinetic, potential, dipole, and quadrupole integrals
         stored in file 35.

      Computing two-electron integrals...done
      Computed 3747 non-zero two-electron integrals.
        Stored in file 33.

	Batch   1 pq = [       0,      54] index = [             0,1485]
  ==> DiskJK: Disk-Based J/K Matrices <==

    J tasked:                  Yes
    K tasked:                  Yes
    wK tasked:                  No
    Memory (MB):               183
    Schwarz Cutoff:          1E-12

   @RHF iter  13:  -108.71420304862116   -2.46692e-05   3.89848e-06 DIIS
   @RHF iter  14:  -108.71420304900636   -3.85199e-10   5.55327e-07 DIIS
   @RHF iter  15:  -108.71420304902071   -1.43530e-11   1.10646e-07 DIIS
   @RHF iter  16:  -108.71420304902173   -1.02318e-12   2.83128e-08 DIIS
   @RHF iter  17:  -108.71420304902185   -1.13687e-13   2.04815e-09 DIIS
   @RHF iter  18:  -108.71420304902185    0.00000e+00   9.51764e-11 DIIS

  ==> Post-Iterations <==

    Orbital Energies (a.u.)
    -----------------------

    Doubly Occupied:                                                      

       1Ag   -15.694836     1B1u  -15.682376     2Ag    -1.661600  
       1B3u   -0.722145     1B2u   -0.722145     2B1u   -0.709986  
       3Ag    -0.635807  

    Virtual:                                                              

       1B3g    0.243293     1B2g    0.243293     3B1u    0.422436  
       4Ag     0.549316     2B3u    0.552418     2B2u    0.552418  
       2B3g    0.844824     2B2g    0.844824     5Ag     0.884369  
       4B1u    1.525943     5B1u    1.896247     6Ag    32.702720  
       6B1u   33.359671  

    Final Occupation by Irrep:
             Ag   B1g   B2g   B3g    Au   B1u   B2u   B3u 
    DOCC [     3,    0,    0,    0,    0,    2,    1,    1 ]

  Energy converged.

  @RHF Final Energy:  -108.71420304902185

   => Energetics <=

    Nuclear Repulsion Energy =             28.2766468931276904
    One-Electron Energy =                -202.3239087289059910
    Two-Electron Energy =                  65.3330587867564532
    DFT Exchange-Correlation Energy =       0.0000000000000000
    Empirical Dispersion Energy =           0.0000000000000000
    PCM Polarization Energy =               0.0000000000000000
    EFP Energy =                            0.0000000000000000
    Total Energy =                       -108.7142030490218474

    Alert: EFP and PCM quantities not currently incorporated into SCF psivars.

Properties will be evaluated at   0.000000,   0.000000,   0.000000 Bohr
  ==> Properties <==


Properties computed using the SCF density matrix

  Nuclear Dipole Moment: (a.u.)
     X:     0.0000      Y:     0.0000      Z:     0.0000

  Electronic Dipole Moment: (a.u.)
     X:     0.0000      Y:     0.0000      Z:     0.0000

  Dipole Moment: (a.u.)
     X:     0.0000      Y:     0.0000      Z:     0.0000     Total:     0.0000

  Dipole Moment: (Debye)
     X:     0.0000      Y:     0.0000      Z:     0.0000     Total:     0.0000


  Saving occupied orbitals to File 180.

*** tstop() called on Jeffs-MacBook-Pro.local at Sat Oct  3 22:13:00 2015
Module time:
	user time   =       0.30 seconds =       0.01 minutes
	system time =       0.01 seconds =       0.00 minutes
	total time  =          0 seconds =       0.00 minutes
Total time:
	user time   =       0.30 seconds =       0.01 minutes
	system time =       0.01 seconds =       0.00 minutes
	total time  =          0 seconds =       0.00 minutes
Reading options from the FORTE block
Calling plugin /Users/jeffschriber/Source/forte/forte.so.


  ==> MO Space Information <==

  Read options for space FROZEN_DOCC
  Read options for space RESTRICTED_DOCC
  Read options for space ACTIVE
 Removing orbital 0
 Removing orbital 10
  -------------------------------------------------------------------------
                       Ag   B1g   B2g   B3g    Au   B1u   B2u   B3u   Sum
  -------------------------------------------------------------------------
    FROZEN_DOCC         1     0     0     0     0     1     0     0     2
    RESTRICTED_DOCC     1     0     0     0     0     0     1     0     2
    ACTIVE              1     0     1     1     0     2     0     1     6
    RESTRICTED_UOCC     3     0     1     1     0     3     1     1    10
    FROZEN_UOCC         0     0     0     0     0     0     0     0     0
    Total               6     0     2     2     0     6     2     2    20
  -------------------------------------------------------------------------

  ==> Integral Transformation <==

  Number of molecular orbitals:               20
  Number of correlated molecular orbitals:    18
  Number of frozen occupied orbitals:          2
  Number of frozen unoccupied orbitals:        0


 Overall Conventional Integrals timings	Presorting SO-basis two-electron integrals.
	Sorting File: SO Ints (nn|nn) nbuckets = 1
	Transforming the one-electron integrals and constructing Fock matrices
	Starting first half-transformation.
	Sorting half-transformed integrals.
	First half integral transformation complete.
	Starting second half-transformation.
	Two-electron integral transformation complete.

  Integral transformation done. 0.00998300 s
  Reading the two-electron integrals from disk
  Size of two-electron integrals:   0.003576 GB
  Frozen-core energy           -103.314890096814 a.u.
  Freezing MO 0
  Freezing MO 10
  Resorting integrals after freezing core.
 Conventional integrals take 0.01436000 s
  Total electrons: 14
  Number of active electrons: 6
  nalpha: 3
  nbeta:  3 

  There are 4 frozen orbitals.
  There are 6 active orbitals.
  Using RHF reference.

  Electron removed from 5, out of 6
  Need orbital of symmetry 7
  Added electron to 5
  The reference determinant is:

  |100101100101>
  The reference energy is -108.71420305

  ==> Calculation Information <==

  ----------------------------------------------------
    Symmetry                                       0
    Number of roots                                1
    Root used for properties                       0
    P-threshold                             1.00e-04
    Q-threshold                             1.00e-04
    Convergence threshold                   1.00e-10
    Determinant selection criterion         Second-order Energy
    Selection criterion                     Aimed selection
    PQ Function                             AVERAGE
    Q Type                                  Absolute Energy
    PT2 Parameters                          False
  ----------------------------------------------------

  Iterative Adaptive CI
  The model space contains 1 determinants

  ==> Cycle 0 <==

  Initial P space dimension: 1
 Not checking for spin-completeness.
  Time spent diagonalizing H using Full: 0.000007 s
  Not performing spin projection.

    P-space  CI Energy Root   1        = -108.714203049022 Eh =   0.0000 eV

  Dimension of the SD space: 17 determinants
  Time spent building the model space: 0.000024 s

  Using non-perturbative energy estimates
  Dimension of the P + Q space: 14 determinants
  Time spent screening the model space: 0.000049 s

  Davidson-liu sparse algorithm
  Building H using OpenMP-take2
  The sparse Hamiltonian matrix contains 114 nonzero elements out of 196 (0.581633)
  Time spent building H (openmp): 0.000068 s
  The Davidson-Liu algorithm converged in 10 iterations.
  Time spent diagonalizing H: 0.000110 s
  Not performing spin projection.

    PQ-space CI Energy Root   1        = -108.732032933827 Eh =   0.0000 eV
    PQ-space CI Energy + EPT2 Root   1 = -108.732100328678 Eh =   0.0000 eV
AIMED SELECTION

  Most important contributions to root   0:
    0   0.993591 0.987222479           0 |100101|100101>
    1  -0.085843 0.007369028          13 |110100|110100>
    2  -0.045367 0.002058183          12 |101001|101001>
    3  -0.042805 0.001832297          11 |110001|110001>
    4  -0.022960 0.000527152          10 |001101|001101>
    5  -0.021170 0.000448166           9 |010101|010101>
    6  -0.012333 0.000152092           8 |100011|100011>
    7  -0.010561 0.000111534           7 |110100|000111>
    8  -0.010290 0.000105891           6 |000111|110100>
    9  -0.006335 0.000040135           5 |000111|000111>

 Spin state for root 0: S^2 = 0.000, S = 0.000, singlet (from 1 determinants, 98.72)

  ==> Cycle 1 <==

  Initial P space dimension: 11
 Not checking for spin-completeness.

  Davidson-liu sparse algorithm
  Building H using OpenMP-take2
  The sparse Hamiltonian matrix contains 71 nonzero elements out of 121 (0.586777)
  Time spent building H (openmp): 0.000035 s
  The Davidson-Liu algorithm converged in 10 iterations.
  Time spent diagonalizing H: 0.000066 s
  Not performing spin projection.

    P-space  CI Energy Root   1        = -108.731907688091 Eh =   0.0000 eV

  Dimension of the SD space: 42 determinants
  Time spent building the model space: 0.000072 s

  Using non-perturbative energy estimates
  Dimension of the P + Q space: 20 determinants
  Time spent screening the model space: 0.000120 s

  Davidson-liu sparse algorithm
  Building H using OpenMP-take2
  The sparse Hamiltonian matrix contains 192 nonzero elements out of 400 (0.480000)
  Time spent building H (openmp): 0.000102 s
  The Davidson-Liu algorithm converged in 12 iterations.
  Time spent diagonalizing H: 0.000112 s
  Not performing spin projection.

    PQ-space CI Energy Root   1        = -108.732198294370 Eh =   0.0000 eV
    PQ-space CI Energy + EPT2 Root   1 = -108.732289868215 Eh =   0.0000 eV
AIMED SELECTION

  Most important contributions to root   0:
    0  -0.993455 0.986953042          10 |100101|100101>
    1   0.085967 0.007390307           9 |110100|110100>
    2   0.046769 0.002187337           8 |101001|101001>
    3   0.042808 0.001832521           7 |110001|110001>
    4   0.024061 0.000578950           6 |001101|001101>
    5   0.021173 0.000448317           5 |010101|010101>
    6   0.012325 0.000151905           4 |100011|100011>
    7   0.010234 0.000104733           3 |110100|000111>
    8   0.010234 0.000104733           2 |000111|110100>
    9   0.006292 0.000039586           1 |000111|000111>

 Spin state for root 0: S^2 = 0.000, S = 0.000, singlet (from 20 determinants, 100.00)

  ==> Cycle 2 <==

  Initial P space dimension: 13
 Not checking for spin-completeness.

  Davidson-liu sparse algorithm
  Building H using OpenMP-take2
  The sparse Hamiltonian matrix contains 97 nonzero elements out of 169 (0.573964)
  Time spent building H (openmp): 0.000050 s
  The Davidson-Liu algorithm converged in 10 iterations.
  Time spent diagonalizing H: 0.000070 s
  Not performing spin projection.

    P-space  CI Energy Root   1        = -108.732010478956 Eh =   0.0000 eV

  Dimension of the SD space: 40 determinants
  Time spent building the model space: 0.000077 s

  Using non-perturbative energy estimates
  Dimension of the P + Q space: 20 determinants
  Time spent screening the model space: 0.000085 s

  Davidson-liu sparse algorithm
  Building H using OpenMP-take2
  The sparse Hamiltonian matrix contains 192 nonzero elements out of 400 (0.480000)
  Time spent building H (openmp): 0.000091 s
  The Davidson-Liu algorithm converged in 12 iterations.
  Time spent diagonalizing H: 0.000165 s
  Not performing spin projection.

    PQ-space CI Energy Root   1        = -108.732198294370 Eh =   0.0000 eV
    PQ-space CI Energy + EPT2 Root   1 = -108.732290101935 Eh =   0.0000 eV


  ==> Post-Iterations <==

  Not performing spin projection.
  Printing Wavefunction Information

  Most important contributions to root   0:
    0   0.993455 0.986953042          12 |100101|100101>
    1  -0.085967 0.007390307          11 |110100|110100>
    2  -0.046769 0.002187337          10 |101001|101001>
    3  -0.042808 0.001832521           9 |110001|110001>
    4  -0.024061 0.000578950           8 |001101|001101>
    5  -0.021173 0.000448317           7 |010101|010101>
    6  -0.012325 0.000151905           6 |100011|100011>
    7  -0.010234 0.000104733           5 |110100|000111>
    8  -0.010234 0.000104733           4 |000111|110100>
    9  -0.006292 0.000039586           3 |000111|000111>

 Spin state for root 0: S^2 = 0.000, S = 0.000, singlet (from 1 determinants, 98.70)

     Order		 # of Dets        Total |c^2|   
  __________ 	____________   ________________ 
      0			       2		0.98696868344
      1			      14		0.01297686937
      2			       4		0.00005444719

 Highest-order excitation searched:     6  

  * Adaptive-CI Energy Root   1        = -108.732198294370 Eh =   0.0000 eV
  * Adaptive-CI Energy Root   1 + EPT2 = -108.732290101935 Eh =   0.0000 eV

  Adaptive-CI (bitset) ran in : 0.002015 s

  Saving information for root: 1
 Your calculation took 0.04917800 seconds
*** PSI4 exiting successfully. Buy a developer a beer!
