    -----------------------------------------------------------------------
          Psi4: An Open-Source Ab Initio Electronic Structure Package
                              Psi4 (no tag) Driver

                          Git: Rev {detached?} 7a17eb9 dirty

    J. M. Turney, A. C. Simmonett, R. M. Parrish, E. G. Hohenstein,
    F. A. Evangelista, J. T. Fermann, B. J. Mintz, L. A. Burns, J. J. Wilke,
    M. L. Abrams, N. J. Russ, M. L. Leininger, C. L. Janssen, E. T. Seidl,
    W. D. Allen, H. F. Schaefer, R. A. King, E. F. Valeev, C. D. Sherrill,
    and T. D. Crawford, WIREs Comput. Mol. Sci. 2, 556-565 (2012)
    (doi: 10.1002/wcms.93)

                         Additional Contributions by
    A. E. DePrince, M. Saitow, U. Bozkaya, A. Yu. Sokolov
    -----------------------------------------------------------------------


    Psi4 started on: Fri Jan 22 16:49:54 2016

    Process ID:  20735
    PSI4DATADIR: /Users/jeffschriber/src/psi4/lib
    Memory level set to 256.000 MB

  ==> Input File <==

--------------------------------------------------------------------------
# HF, RHF canonical orbitals, CAS-CI(2,2)
#! Generated using commit GITCOMMIT

import forte

refscf = -108.71420304902
refaci = -108.73219829437
refacipt2 = -108.732290101935 

molecule hf{
   N
   N 1 1.732878731527
units bohr
}

set {
  basis dz
  scf_type pk
  e_convergence 10
  d_convergence 10
  r_convergence 10
  reference rhf
}

set forte {
  job_type aci
  select_type aimed_energy
  aci_add_aimed_degenerate false
  enforce_spin_complete false
  frozen_docc [1,0,0,0,0,1,0,0]
  restricted_docc [1,0,0,0,0,0,1,0]
  active [1,0,1,1,0,2,0,1]
  taup 0.0001
  tauq 0.0001
  charge 0
  nroot 1
}

energy('scf')
compare_values(refscf, get_variable("SCF total energy"),10, "SCF energy") #TEST
energy('forte')
compare_values(refaci, get_variable("ACI ENERGY"),10, "ACI energy") #TEST
compare_values(refacipt2, get_variable("ACI+PT2 ENERGY"),10, "ACI+PT2 energy") #TEST
--------------------------------------------------------------------------
/Users/jeffschriber/src/forte/forte.so loaded.

*** tstart() called on Jeffs-MBP.attlocal.net
*** at Fri Jan 22 16:49:54 2016

    There are an even number of electrons - assuming singlet.
    Specify the multiplicity with the MULTP option in the
    input if this is incorrect


         ---------------------------------------------------------
                                   SCF
            by Justin Turney, Rob Parrish, and Andy Simmonett
                              RHF Reference
                        1 Threads,    256 MiB Core
         ---------------------------------------------------------

  ==> Geometry <==

    Molecular point group: d2h
    Full point group: D_inf_h

    Geometry (in Bohr), charge = 0, multiplicity = 1:

       Center              X                  Y                   Z               Mass       
    ------------   -----------------  -----------------  -----------------  -----------------
           N          0.000000000000     0.000000000000    -0.866439365764    14.003074004780
           N          0.000000000000     0.000000000000     0.866439365764    14.003074004780

  Running in d2h symmetry.

  Rotational constants: A = ************  B =      2.86328  C =      2.86328 [cm^-1]
  Rotational constants: A = ************  B =  85839.10932  C =  85839.10932 [MHz]
  Nuclear repulsion =   28.276646893127690

  Charge       = 0
  Multiplicity = 1
  Electrons    = 14
  Nalpha       = 7
  Nbeta        = 7

  ==> Algorithm <==

  SCF Algorithm Type is PK.
  DIIS enabled.
  MOM disabled.
  Fractional occupation disabled.
  Guess Type is CORE.
  Energy threshold   = 1.00e-10
  Density threshold  = 1.00e-10
  Integral threshold = 0.00e+00

  ==> Primary Basis <==

  Basis Set: DZ
    Number of shells: 12
    Number of basis function: 20
    Number of Cartesian functions: 20
    Spherical Harmonics?: false
    Max angular momentum: 1

  ==> Pre-Iterations <==

   -------------------------------------------------------
    Irrep   Nso     Nmo     Nalpha   Nbeta   Ndocc  Nsocc
   -------------------------------------------------------
     Ag         6       6       0       0       0       0
     B1g        0       0       0       0       0       0
     B2g        2       2       0       0       0       0
     B3g        2       2       0       0       0       0
     Au         0       0       0       0       0       0
     B1u        6       6       0       0       0       0
     B2u        2       2       0       0       0       0
     B3u        2       2       0       0       0       0
   -------------------------------------------------------
    Total      20      20       7       7       7       0
   -------------------------------------------------------

  Starting with a DF guess...

 OEINTS: Overlap, kinetic, potential, dipole, and quadrupole integrals
         stored in file 35.

  ==> Integral Setup <==

  ==> DFJK: Density-Fitted J/K Matrices <==

    J tasked:                  Yes
    K tasked:                  Yes
    wK tasked:                  No
    OpenMP threads:              1
    Integrals threads:           1
    Memory (MB):               183
    Algorithm:                Core
    Integral Cache:           NONE
    Schwarz Cutoff:          1E-12
    Fitting Condition:       1E-12

   => Auxiliary Basis Set <=

  Basis Set: 
    Number of shells: 50
    Number of basis function: 186
    Number of Cartesian functions: 186
    Spherical Harmonics?: false
    Max angular momentum: 4

  Minimum eigenvalue in the overlap matrix is 6.8091223357E-03.
  Using Symmetric Orthogonalization.
  SCF Guess: Core (One-Electron) Hamiltonian.

  ==> Iterations <==

                           Total Energy        Delta E     RMS |[F,P]|

    Occupation by irrep:
             Ag   B1g   B2g   B3g    Au   B1u   B2u   B3u 
    DOCC [     3,    0,    0,    0,    0,    2,    1,    1 ]

   @DF-RHF iter   1:  -103.14909816849433   -1.03149e+02   4.62812e-01 
   @DF-RHF iter   2:  -107.75650986768358   -4.60741e+00   1.31788e-01 DIIS
   @DF-RHF iter   3:  -108.68162494107310   -9.25115e-01   2.40013e-02 DIIS
   @DF-RHF iter   4:  -108.71209787143400   -3.04729e-02   4.97707e-03 DIIS
   @DF-RHF iter   5:  -108.71414911360884   -2.05124e-03   6.18246e-04 DIIS
   @DF-RHF iter   6:  -108.71417803470013   -2.89211e-05   6.28086e-05 DIIS
   @DF-RHF iter   7:  -108.71417837790929   -3.43209e-07   4.64203e-06 DIIS
   @DF-RHF iter   8:  -108.71417837942980   -1.52050e-09   7.02488e-07 DIIS
   @DF-RHF iter   9:  -108.71417837945810   -2.83080e-11   5.43620e-08 DIIS
   @DF-RHF iter  10:  -108.71417837945828   -1.70530e-13   6.73186e-09 DIIS
   @DF-RHF iter  11:  -108.71417837945833   -5.68434e-14   6.65163e-10 DIIS
   @DF-RHF iter  12:  -108.71417837945833    0.00000e+00   7.99192e-11 DIIS

  DF guess converged.

  ==> Integral Setup <==

 MINTS: Wrapper to libmints.
   by Justin Turney

   Calculation information:
      Number of atoms:                   2
      Number of AO shells:              12
      Number of SO shells:               6
      Number of primitives:             28
      Number of atomic orbitals:        20
      Number of basis functions:        20

      Number of irreps:                  8
      Integral cutoff                 0.00e+00
      Number of functions per irrep: [   6    0    2    2    0    6    2    2 ]

 OEINTS: Overlap, kinetic, potential, dipole, and quadrupole integrals
         stored in file 35.

      Computing two-electron integrals...done
      Computed 3747 non-zero two-electron integrals.
        Stored in file 33.

	Batch   1 pq = [       0,      54] index = [             0,1485]
  ==> DiskJK: Disk-Based J/K Matrices <==

    J tasked:                  Yes
    K tasked:                  Yes
    wK tasked:                  No
    Memory (MB):               183
    Schwarz Cutoff:          1E-12

   @RHF iter  13:  -108.71420304862113   -2.46692e-05   3.89848e-06 DIIS
   @RHF iter  14:  -108.71420304900636   -3.85228e-10   5.55327e-07 DIIS
   @RHF iter  15:  -108.71420304902074   -1.43814e-11   1.10646e-07 DIIS
   @RHF iter  16:  -108.71420304902173   -9.94760e-13   2.83128e-08 DIIS
   @RHF iter  17:  -108.71420304902179   -5.68434e-14   2.04815e-09 DIIS
   @RHF iter  18:  -108.71420304902176    2.84217e-14   9.51766e-11 DIIS

  ==> Post-Iterations <==

    Orbital Energies (a.u.)
    -----------------------

    Doubly Occupied:                                                      

       1Ag   -15.694836     1B1u  -15.682376     2Ag    -1.661600  
       1B2u   -0.722145     1B3u   -0.722145     2B1u   -0.709986  
       3Ag    -0.635807  

    Virtual:                                                              

       1B2g    0.243293     1B3g    0.243293     3B1u    0.422436  
       4Ag     0.549316     2B3u    0.552418     2B2u    0.552418  
       2B2g    0.844824     2B3g    0.844824     5Ag     0.884369  
       4B1u    1.525943     5B1u    1.896247     6Ag    32.702720  
       6B1u   33.359671  

    Final Occupation by Irrep:
             Ag   B1g   B2g   B3g    Au   B1u   B2u   B3u 
    DOCC [     3,    0,    0,    0,    0,    2,    1,    1 ]

  Energy converged.

  @RHF Final Energy:  -108.71420304902176

   => Energetics <=

    Nuclear Repulsion Energy =             28.2766468931276904
    One-Electron Energy =                -202.3239087289058205
    Two-Electron Energy =                  65.3330587867563821
    DFT Exchange-Correlation Energy =       0.0000000000000000
    Empirical Dispersion Energy =           0.0000000000000000
    PCM Polarization Energy =               0.0000000000000000
    EFP Energy =                            0.0000000000000000
    Total Energy =                       -108.7142030490217479

    Alert: EFP and PCM quantities not currently incorporated into SCF psivars.

Properties will be evaluated at   0.000000,   0.000000,   0.000000 Bohr
  ==> Properties <==


Properties computed using the SCF density matrix

  Nuclear Dipole Moment: (a.u.)
     X:     0.0000      Y:     0.0000      Z:     0.0000

  Electronic Dipole Moment: (a.u.)
     X:     0.0000      Y:     0.0000      Z:     0.0000

  Dipole Moment: (a.u.)
     X:     0.0000      Y:     0.0000      Z:     0.0000     Total:     0.0000

  Dipole Moment: (Debye)
     X:     0.0000      Y:     0.0000      Z:     0.0000     Total:     0.0000


  Saving occupied orbitals to File 180.

*** tstop() called on Jeffs-MBP.attlocal.net at Fri Jan 22 16:49:54 2016
Module time:
	user time   =       0.35 seconds =       0.01 minutes
	system time =       0.01 seconds =       0.00 minutes
	total time  =          0 seconds =       0.00 minutes
Total time:
	user time   =       0.35 seconds =       0.01 minutes
	system time =       0.01 seconds =       0.00 minutes
	total time  =          0 seconds =       0.00 minutes
Reading options from the FORTE block
Calling plugin /Users/jeffschriber/src/forte/forte.so.


  ==> MO Space Information <==

  Read options for space FROZEN_DOCC
  Read options for space RESTRICTED_DOCC
  Read options for space ACTIVE
 Removing orbital 0
 Removing orbital 10
  -------------------------------------------------------------------------
                       Ag   B1g   B2g   B3g    Au   B1u   B2u   B3u   Sum
  -------------------------------------------------------------------------
    FROZEN_DOCC         1     0     0     0     0     1     0     0     2
    RESTRICTED_DOCC     1     0     0     0     0     0     1     0     2
    ACTIVE              1     0     1     1     0     2     0     1     6
    RESTRICTED_UOCC     3     0     1     1     0     3     1     1    10
    FROZEN_UOCC         0     0     0     0     0     0     0     0     0
    Total               6     0     2     2     0     6     2     2    20
  -------------------------------------------------------------------------

  ==> Integral Transformation <==

  Number of molecular orbitals:               20
  Number of correlated molecular orbitals:    18
  Number of frozen occupied orbitals:          2
  Number of frozen unoccupied orbitals:        0


  Overall Conventional Integrals timings

	Presorting SO-basis two-electron integrals.
	Sorting File: SO Ints (nn|nn) nbuckets = 1
	Transforming the one-electron integrals and constructing Fock matrices
	Starting first half-transformation.
	Sorting half-transformed integrals.
	First half integral transformation complete.
	Starting second half-transformation.
	Two-electron integral transformation complete.

  Integral transformation done. 0.00980600 s
  Reading the two-electron integrals from disk
  Size of two-electron integrals:   0.003576 GB MINTS: Wrapper to libmints.
   by Justin Turney

   Calculation information:
      Number of atoms:                   2
      Number of AO shells:              12
      Number of SO shells:               6
      Number of primitives:             28
      Number of atomic orbitals:        20
      Number of basis functions:        20

      Number of irreps:                  8
      Integral cutoff                 1.00e-12
      Number of functions per irrep: [   6    0    2    2    0    6    2    2 ]

 OEINTS: Overlap, kinetic, potential, dipole, and quadrupole integrals
         stored in file 35.

      Computing two-electron integrals...done
      Computed 3747 non-zero two-electron integrals.
        Stored in file 33.

	Batch   1 pq = [       0,      54] index = [             0,1485]

  Frozen-core energy           -103.314890096814 a.u.

 FrozenOneBody Operator takes  0.09888700 s
  Resorting integrals after freezing core.
  Conventional integrals take 0.12311900 s

                    ---------------------------------------
                      Adaptive Configuration Interaction
                      written by Francesco A. Evangelista
                    ---------------------------------------

  ==> Reference Information <==

  There are 4 frozen orbitals.
  There are 6 active orbitals.

  |200202>
  REFERENCE ENERGY:         -108.714203049022
  ==> Calculation Information <==

  -----------------------------------------------------------------
    Multiplicity                             1    
    Symmetry                                 0    
    Number of roots                          1    
    Root used for properties                 0    
    P-threshold                              1.00e-04
    Q-threshold                              1.00e-04
    Convergence threshold                    1.00e-10
    Determinant selection criterion          Second-order Energy
    Selection criterion                      Aimed selection
    PQ Function                              AVERAGE
    Q Type                                   Absolute Energy
    PT2 Parameters                           False
    Project out spin contaminants            True
    Enforce spin completeness of basis       False
    Enforce complete aimed selection         False
  -----------------------------------------------------------------
  Using streamlined Q-space builder.

  ==> Cycle 0 <==

  Initial P space dimension: 1
 Not checking for spin-completeness.
  Time spent diagonalizing H:   0.000041 s
  Not performing spin projection.

    P-space  CI Energy Root   1        = -108.714203049022 Eh =   0.0000 eV

  Dimension of the SD space: 15 determinants
  Time spent building the model space: 0.000085 s

  Dimension of the P + Q space: 14 determinants
  Time spent screening the model space: 0.000038 s
  Time spent diagonalizing H:   0.000164 s
  Not performing spin projection.

    PQ-space CI Energy Root   1        = -108.732032933827 Eh =   0.0000 eV
    PQ-space CI Energy + EPT2 Root   1 = -108.732100328678 Eh =   0.0000 eV


  Most important contributions to root   0:
    0   0.993591 0.987222479           0 |200202>
    1  -0.085843 0.007369028          13 |220200>
    2  -0.045367 0.002058183          11 |202002>
    3  -0.042805 0.001832297          12 |220002>
    4  -0.022960 0.000527152          10 |002202>
    5  -0.021170 0.000448166           9 |020202>
    6  -0.012333 0.000152092           8 |200022>
    7  -0.010561 0.000111534           6 |++02-->
    8  -0.010290 0.000105891           7 |--02++>
    9  -0.006335 0.000040135           5 |000222>

  Spin state for root 0: S^2 = 0.000, S = 0.000, singlet (from 1 determinants, 98.72)

  ==> Cycle 1 <==

  Initial P space dimension: 11
 Not checking for spin-completeness.
  Time spent diagonalizing H:   0.000104 s
  Not performing spin projection.

    P-space  CI Energy Root   1        = -108.731907688091 Eh =   0.0000 eV

  Dimension of the SD space: 53 determinants
  Time spent building the model space: 0.000615 s

  Dimension of the P + Q space: 20 determinants
  Time spent screening the model space: 0.000064 s
  Time spent diagonalizing H:   0.000263 s
  Not performing spin projection.

    PQ-space CI Energy Root   1        = -108.732198294370 Eh =   0.0000 eV
    PQ-space CI Energy + EPT2 Root   1 = -108.732289868215 Eh =   0.0000 eV


  Most important contributions to root   0:
    0   0.993455 0.986953044          10 |200202>
    1  -0.085967 0.007390306           9 |220200>
    2  -0.046769 0.002187337           8 |202002>
    3  -0.042808 0.001832520           7 |220002>
    4  -0.024061 0.000578950           6 |002202>
    5  -0.021173 0.000448317           5 |020202>
    6  -0.012325 0.000151904           4 |200022>
    7  -0.010234 0.000104733           3 |++02-->
    8  -0.010234 0.000104733           2 |--02++>
    9  -0.006292 0.000039586           1 |000222>

  Spin state for root 0: S^2 = 0.000, S = 0.000, singlet (from 1 determinants, 98.70)

  ==> Cycle 2 <==

  Initial P space dimension: 13
 Not checking for spin-completeness.
  Time spent diagonalizing H:   0.000129 s
  Not performing spin projection.

    P-space  CI Energy Root   1        = -108.732010478956 Eh =   0.0000 eV

  Dimension of the SD space: 53 determinants
  Time spent building the model space: 0.000744 s

  Dimension of the P + Q space: 20 determinants
  Time spent screening the model space: 0.000056 s
  Time spent diagonalizing H:   0.000264 s
  Not performing spin projection.

    PQ-space CI Energy Root   1        = -108.732198294370 Eh =   0.0000 eV
    PQ-space CI Energy + EPT2 Root   1 = -108.732290101935 Eh =   0.0000 eV

  ***** Calculation Converged *****
  Not performing spin projection.
  1-RDM  took 0.000210 s

  ==> ACI Summary <==

  Iterations required:                         2
  Dimension of optimized determinant space:    20

  * Adaptive-CI Energy Root   1        = -108.732198294370 Eh =   0.0000 eV
  * Adaptive-CI Energy Root   1 + EPT2 = -108.732290101935 Eh =   0.0000 eV

  ==> Wavefunction Information <==

  Most important contributions to root   0:
    0   0.993455 0.986953044          12 |200202>
    1  -0.085967 0.007390306          11 |220200>
    2  -0.046769 0.002187337          10 |202002>
    3  -0.042808 0.001832520           9 |220002>
    4  -0.024061 0.000578950           8 |002202>
    5  -0.021173 0.000448317           7 |020202>
    6  -0.012325 0.000151904           6 |200022>
    7  -0.010234 0.000104733           5 |++02-->
    8  -0.010234 0.000104733           4 |--02++>
    9  -0.006292 0.000039586           3 |000222>

  Spin state for root 0: S^2 = 0.000, S = 0.000, singlet (from 1 determinants, 98.70)

     Order		 # of Dets        Total |c^2|   
  __________ 	____________   ________________ 
       0                  1           0.98695304396
       1                  0           0.00000000000
       2                 14           0.01298501494
       3                  4           0.00004627020
       4                  1           0.00001567090

  Highest-order excitation searched:     6  


  Adaptive-CI (bitset) ran in : 0.003472 s

  Saving information for root: 1

  Your calculation took 0.15896300 seconds

*** PSI4 exiting successfully. Buy a developer a beer!
