    -----------------------------------------------------------------------
          Psi4: An Open-Source Ab Initio Electronic Structure Package
                              Psi4 1.0rc128 Driver

                          Git: Rev {master} 00a658f 

    J. M. Turney, A. C. Simmonett, R. M. Parrish, E. G. Hohenstein,
    F. A. Evangelista, J. T. Fermann, B. J. Mintz, L. A. Burns, J. J. Wilke,
    M. L. Abrams, N. J. Russ, M. L. Leininger, C. L. Janssen, E. T. Seidl,
    W. D. Allen, H. F. Schaefer, R. A. King, E. F. Valeev, C. D. Sherrill,
    and T. D. Crawford, WIREs Comput. Mol. Sci. 2, 556-565 (2012)
    (doi: 10.1002/wcms.93)

                         Additional Contributions by
    A. E. DePrince, U. Bozkaya, A. Yu. Sokolov, D. G. A. Smith, R. Di Remigio,
    R. M. Richard, J. F. Gonthier, H. R. McAlexander, M. Saitow, and
    B. P. Pritchard
    -----------------------------------------------------------------------


    Psi4 started on: Tue Aug  2 19:27:58 2016

    Process ID:  71689
    PSI4DATADIR: /Users/zxu66/src/psi4public/share
    Memory level set to 256.000 MB

  ==> Input File <==

--------------------------------------------------------------------------
#! Generated using commit GITCOMMIT

import forte

molecule C2H4{
0 1
H  0.000000  0.923274  1.238289
H  0.000000 -0.923274  1.238289
H  0.000000  0.923274 -1.238289
H  0.000000 -0.923274 -1.238289
C  0.000000  0.000000  0.668188
C  0.000000  0.000000 -0.668188
}

set {
  reference     rhf
  scf_type      out_of_core
  basis         cc-pvdz
  docc          [3,0,0,1,0,2,1,1]
  e_convergence 10
  d_convergence 12
  maxiter       100
}
Escf, wfn = energy('scf', return_wfn=True)

set forte{
  job_type             active-dsrgpt2
  frozen_docc          [1,0,0,0,0,1,0,0]
  restricted_docc      [1,0,0,1,0,1,1,0]
  active               [1,0,1,1,0,1,1,1]
  dsrg_s               0.5
  cas_type             cas
  active_space_type    cis
  nrootpi              [1,0,0,0,0,1,0,0]
  d_convergence        10
  internal_amp         singles_doubles
  internal_amp_select  auto
}
Econv = energy('forte', ref_wfn = wfn)

set forte{
  int_type             cholesky
  cholesky_tolerance   10
}
Ecd = energy('forte', ref_wfn = wfn)
compare_values(Econv,Ecd,8,"DSRG-MRPT2 vs CD-DSRG-MRPT2")
--------------------------------------------------------------------------
/Users/zxu66/src/v2rdm_casscf/v2rdm_casscf.so loaded.
/Users/zxu66/src/forte/forte.so loaded.

*** tstart() called on che-zxu66-01i
*** at Tue Aug  2 19:27:59 2016


         ---------------------------------------------------------
                                   SCF
            by Justin Turney, Rob Parrish, and Andy Simmonett
                              RHF Reference
                        1 Threads,    256 MiB Core
         ---------------------------------------------------------

  ==> Geometry <==

    Molecular point group: d2h
    Full point group: D2h

    Geometry (in Angstrom), charge = 0, multiplicity = 1:

       Center              X                  Y                   Z               Mass       
    ------------   -----------------  -----------------  -----------------  -----------------
           H         -0.000000000000     0.923274000000     1.238289000000     1.007825032070
           H          0.000000000000    -0.923274000000     1.238289000000     1.007825032070
           H         -0.000000000000     0.923274000000    -1.238289000000     1.007825032070
           H          0.000000000000    -0.923274000000    -1.238289000000     1.007825032070
           C          0.000000000000     0.000000000000     0.668188000000    12.000000000000
           C          0.000000000000     0.000000000000    -0.668188000000    12.000000000000

  Running in d2h symmetry.

  Rotational constants: A =      4.90558  B =      0.99768  C =      0.82907 [cm^-1]
  Rotational constants: A = 147065.51639  B =  29909.67957  C =  24854.79644 [MHz]
  Nuclear repulsion =   33.298097662285691

  Charge       = 0
  Multiplicity = 1
  Electrons    = 16
  Nalpha       = 8
  Nbeta        = 8

  ==> Algorithm <==

  SCF Algorithm Type is OUT_OF_CORE.
  DIIS enabled.
  MOM disabled.
  Fractional occupation disabled.
  Guess Type is SAD.
  Energy threshold   = 1.00e-10
  Density threshold  = 1.00e-12
  Integral threshold = 0.00e+00

  ==> Primary Basis <==

  Basis Set: CC-PVDZ
    Number of shells: 24
    Number of basis function: 48
    Number of Cartesian functions: 50
    Spherical Harmonics?: true
    Max angular momentum: 2

  ==> Pre-Iterations <==

   -------------------------------------------------------
    Irrep   Nso     Nmo     Nalpha   Nbeta   Ndocc  Nsocc
   -------------------------------------------------------
     Ag        11      11       3       3       3       0
     B1g        2       2       0       0       0       0
     B2g        4       4       0       0       0       0
     B3g        7       7       1       1       1       0
     Au         2       2       0       0       0       0
     B1u       11      11       2       2       2       0
     B2u        7       7       1       1       1       0
     B3u        4       4       1       1       1       0
   -------------------------------------------------------
    Total      48      48       8       8       8       0
   -------------------------------------------------------

  ==> Integral Setup <==

  ==> DiskJK: Disk-Based J/K Matrices <==

    J tasked:                  Yes
    K tasked:                  Yes
    wK tasked:                  No
    Memory (MB):               183
    Schwarz Cutoff:          1E-12

  Minimum eigenvalue in the overlap matrix is 4.8552890517E-03.
  Using Symmetric Orthogonalization.
  SCF Guess: Superposition of Atomic Densities via on-the-fly atomic UHF.

  ==> Iterations <==

                        Total Energy        Delta E     RMS |[F,P]|

   @RHF iter   0:   -79.04381720078626   -7.90438e+01   1.31711e-01 
   @RHF iter   1:   -78.01228708327068    1.03153e+00   9.56211e-03 
   @RHF iter   2:   -78.03778628612386   -2.54992e-02   2.39139e-03 DIIS
   @RHF iter   3:   -78.03967816426191   -1.89188e-03   7.79446e-04 DIIS
   @RHF iter   4:   -78.03984182578429   -1.63662e-04   1.25945e-04 DIIS
   @RHF iter   5:   -78.03984821119286   -6.38541e-06   1.85377e-05 DIIS
   @RHF iter   6:   -78.03984838307971   -1.71887e-07   3.51347e-06 DIIS
   @RHF iter   7:   -78.03984838918402   -6.10430e-09   3.13710e-07 DIIS
   @RHF iter   8:   -78.03984838922557   -4.15525e-11   2.73968e-08 DIIS
   @RHF iter   9:   -78.03984838922588   -3.12639e-13   4.07672e-09 DIIS
   @RHF iter  10:   -78.03984838922582    5.68434e-14   3.51326e-10 DIIS
   @RHF iter  11:   -78.03984838922585   -2.84217e-14   2.03536e-11 DIIS
   @RHF iter  12:   -78.03984838922582    2.84217e-14   3.17524e-12 DIIS
   @RHF iter  13:   -78.03984838922585   -2.84217e-14   6.52955e-13 DIIS

  ==> Post-Iterations <==

    Orbital Energies (a.u.)
    -----------------------

    Doubly Occupied:                                                      

       1Ag   -11.237132     1B1u  -11.235505     2Ag    -1.030189  
       2B1u   -0.789942     1B2u   -0.637452     3Ag    -0.583297  
       1B3g   -0.502717     1B3u   -0.373390  

    Virtual:                                                              

       1B2g    0.167257     4Ag     0.203559     2B2u    0.232823  
       3B1u    0.237644     2B3g    0.303090     4B1u    0.463083  
       5Ag     0.580387     3B2u    0.609438     2B3u    0.689610  
       6Ag     0.709028     5B1u    0.779796     2B2g    0.807307  
       4B2u    0.861157     3B3g    0.932382     6B1u    0.970837  
       7Ag     1.008640     1B1g    1.131643     7B1u    1.234271  
       4B3g    1.240802     3B3u    1.261600     1Au     1.292745  
       8Ag     1.599391     5B3g    1.737713     5B2u    1.752975  
       3B2g    1.814177     9Ag     1.849372     8B1u    1.860320  
       6B2u    1.907415     2B1g    1.968897     4B3u    1.979535  
       4B2g    2.226403     9B1u    2.250735     2Au     2.363897  
       6B3g    2.439418    10Ag     2.507675    10B1u    2.637327  
      11Ag     2.702843     7B2u    2.814595    11B1u    3.116593  
       7B3g    3.390147  

    Final Occupation by Irrep:
             Ag   B1g   B2g   B3g    Au   B1u   B2u   B3u 
    DOCC [     3,    0,    0,    1,    0,    2,    1,    1 ]

  Energy converged.

  @RHF Final Energy:   -78.03984838922585

   => Energetics <=

    Nuclear Repulsion Energy =             33.2980976622856915
    One-Electron Energy =                -169.8966436681404275
    Two-Electron Energy =                  58.5586976166288977
    DFT Exchange-Correlation Energy =       0.0000000000000000
    Empirical Dispersion Energy =           0.0000000000000000
    PCM Polarization Energy =               0.0000000000000000
    EFP Energy =                            0.0000000000000000
    Total Energy =                        -78.0398483892258241


  Saving occupied orbitals to File 180.

*** tstop() called on che-zxu66-01i at Tue Aug  2 19:28:00 2016
Module time:
	user time   =       0.58 seconds =       0.01 minutes
	system time =       0.06 seconds =       0.00 minutes
	total time  =          1 seconds =       0.02 minutes
Total time:
	user time   =       0.58 seconds =       0.01 minutes
	system time =       0.06 seconds =       0.00 minutes
	total time  =          1 seconds =       0.02 minutes


Properties will be evaluated at   0.000000,   0.000000,   0.000000 Bohr

Properties computed using the SCF density matrix

  Nuclear Dipole Moment: (a.u.)
     X:     0.0000      Y:     0.0000      Z:     0.0000

  Electronic Dipole Moment: (a.u.)
     X:     0.0000      Y:     0.0000      Z:     0.0000

  Dipole Moment: (a.u.)
     X:     0.0000      Y:     0.0000      Z:     0.0000     Total:     0.0000

  Dipole Moment: (Debye)
     X:     0.0000      Y:     0.0000      Z:     0.0000     Total:     0.0000


Reading options from the FORTE block
Calling plugin /Users/zxu66/src/forte/forte.so.




  ==> MO Space Information <==

  Read options for space FROZEN_DOCC
  Read options for space RESTRICTED_DOCC
  Read options for space ACTIVE
 Removing orbital 0
 Removing orbital 26
  -------------------------------------------------------------------------
                       Ag   B1g   B2g   B3g    Au   B1u   B2u   B3u   Sum
  -------------------------------------------------------------------------
    FROZEN_DOCC         1     0     0     0     0     1     0     0     2
    RESTRICTED_DOCC     1     0     0     1     0     1     1     0     4
    ACTIVE              1     0     1     1     0     1     1     1     6
    RESTRICTED_UOCC     8     2     3     5     2     8     5     3    36
    FROZEN_UOCC         0     0     0     0     0     0     0     0     0
    Total              11     2     4     7     2    11     7     4    48
  -------------------------------------------------------------------------

  ==> Integral Transformation <==

  Number of molecular orbitals:               48
  Number of correlated molecular orbitals:    46
  Number of frozen occupied orbitals:          2
  Number of frozen unoccupied orbitals:        0


  Overall Conventional Integrals timings

	Presorting SO-basis two-electron integrals.
	Sorting File: SO Ints (nn|nn) nbuckets = 1
	Transforming the one-electron integrals and constructing Fock matrices
	Starting first half-transformation.
	Sorting half-transformed integrals.
	First half integral transformation complete.
	Starting second half-transformation.
	Two-electron integral transformation complete.

  Integral transformation done. 0.31158500 s
  Reading the two-electron integrals from disk
  Size of two-electron integrals:   0.118652 GB
  Frozen-core energy            -78.536477401560 a.u.

  FrozenOneBody Operator takes  0.46238400 s
  Resorting integrals after freezing core.
  Conventional integrals take 1.55755300 s

                               ------------------
                                 ACTIVE-DSRGPT2
                                  Chenyang Li
                               ------------------

    The orbitals are fixed throughout the process.
    If different orbitals (or reference) are desired for different roots,
    you need to run those separately using the regular DSRG-MRPT2 / MRPT3 (or DF/CD) code.

                Ag   B1g   B2g   B3g    Au   B1u   B2u   B3u
    ----------------------------------------------------------
      NROOTS     1     0     0     0     0     1     0     0
    ----------------------------------------------------------

              ---------------------------------------------------
                Complete Active Space Configuration Interaction
                                  Chenyang Li
              ---------------------------------------------------


  ==> Input Summary <==

    number of atoms                =     6
    number of electrons            =    16
    molecular charge               =     0
    number of alpha electrons      =     8
    number of beta electrons       =     8
    multiplicity                   =     1
    ms (2 * Sz)                    =     0
    number of molecular orbitals   =    48

  ==> Orbital Spaces <==

    TOTAL MO                      [   11     2     4     7     2    11     7     4 ]
    FROZEN CORE                   [    1     0     0     0     0     1     0     0 ]
    FROZEN VIRTUAL                [    0     0     0     0     0     0     0     0 ]
    CORRELATED MO                 [   10     2     4     7     2    10     7     4 ]
    CORE                          [    1     0     0     1     0     1     1     0 ]
    ACTIVE                        [    1     0     1     1     0     1     1     1 ]
    VIRTUAL                       [    8     2     3     5     2     8     5     3 ]

  ==> Correlated Subspace Indices <==

    CORE                             0   16   25   35 
    ACTIVE                           1   12   17   26   36   42 
    HOLE                             1   12   17   26   36   42    0   16   25   35 
    VIRTUAL                          2    3    4    5    6    7    8    9   10   11   13   14   15   18   19 
                                    20   21   22   23   24   27   28   29   30   31   32   33   34   37   38 
                                    39   40   41   43   44   45 
    PARTICLE                         1   12   17   26   36   42    2    3    4    5    6    7    8    9   10 
                                    11   13   14   15   18   19   20   21   22   23   24   27   28   29   30 
                                    31   32   33   34   37   38   39   40   41   43   44   45 

    Looping over all roots to determine excitation type.
  Forming determinants                ...  Done. Timing        0.000108 s

  ==> Determinants Summary <==

    number of alpha active electrons    =     2
    number of beta active electrons     =     2
    root symmetry (zero based)          =     0
    number of determinants              =     1

  ==> Determinants |alpha|beta> <==
  
  |200002>


  Diagonalizing Hamiltonian           ...

  Reference type: RHF
  Threshold for spin check: 0.10

  Spin State: S^2 = 0.000, S = 0.000, singlet (from 1 determinants)  Done. Timing        0.000364 s

  * * * * * * * * * * * * * * * * *
  *  CI Vectors & Configurations  *
  * * * * * * * * * * * * * * * * *

  ==> Root No. 0 <==

    2 0 0 0 0 2          1.0000000000

    Total Energy:   -78.039848389225853


  Forming one-particle density        ...  Done. Timing        0.003035 s
  Forming generalized Fock matrix     ...  Done. Timing        0.001233 s
  Checking Fock matrices (Fa, Fb)     ...
  Nonzero criteria: > 1.00E-10
  Fa_CORE    block is diagonal.
  Fb_CORE    block is diagonal.
  Fa_ACT_O   block is diagonal.
  Fb_ACT_O   block is diagonal.
  Fa_ACT_V   block is diagonal.
  Fb_ACT_V   block is diagonal.
  Fa_VIRTUAL block is diagonal.
  Fb_VIRTUAL block is diagonal.
  Done checking Fock matrices.                   Timing        0.000963 s


  ==> Computing Overlap <CISD|CIS> of Irrep Ag <==

  Forming determinants                ...  Done. Timing        0.000167 s

  ==> Determinants Summary <==

    number of alpha active electrons    =     2
    number of beta active electrons     =     2
    root symmetry (zero based)          =     0
    number of determinants              =    15

  ==> Determinants |alpha|beta> <==
  
  |200002>  
  |-+0+0->  
  |+-0-0+>  
  |000022>  
  |220000>  
  |++0-0->  
  |--0+0+>  
  |000202>  
  |202000>  
  |002002>  
  |020002>  
  |-+0-0+>  
  |+-0+0->  
  |200200>  
  |200020>


    Compute 2 roots for CISD in Irrep Ag for <CIS|CISD>.


  Forming determinants                ...  Done. Timing        0.000130 s

  ==> Determinants Summary <==

    number of alpha active electrons    =     2
    number of beta active electrons     =     2
    root symmetry (zero based)          =     0
    number of determinants              =    15

  ==> Determinants |alpha|beta> <==
  
  |200002>  
  |-+0+0->  
  |+-0-0+>  
  |000022>  
  |220000>  
  |++0-0->  
  |--0+0+>  
  |000202>  
  |202000>  
  |002002>  
  |020002>  
  |-+0-0+>  
  |+-0+0->  
  |200200>  
  |200020>


  Diagonalizing Hamiltonian           ...

  Reference type: RHF
  Threshold for spin check: 0.10

  Spin State: S^2 = 0.000, S = 0.000, singlet (from 15 determinants)

  Spin State: S^2 = 0.000, S = 0.000, singlet (from 15 determinants)  Done. Timing        0.000959 s

  * * * * * * * * * * * * * * * * *
  *  CI Vectors & Configurations  *
  * * * * * * * * * * * * * * * * *

  ==> Root No. 0 <==

    2 0 0 0 0 2         -0.9840768727
    2 2 0 0 0 0          0.1768749743

    Total Energy:   -78.058381331686178


  ==> Root No. 1 <==

    2 2 0 0 0 0         -0.9817492324
    2 0 0 0 0 2         -0.1754537991
    0 2 0 0 0 2          0.0641271598

    Total Energy:   -77.482683579783213


  Forming one-particle density        ...  Done. Timing        0.000162 s
  Forming generalized Fock matrix     ...  Done. Timing        0.001601 s
  Checking Fock matrices (Fa, Fb)     ...
  Nonzero criteria: > 1.00E-10
  Fa_CORE    block is diagonal.
  Fb_CORE    block is diagonal.
  Fa_ACT_O   block is diagonal.
  Fb_ACT_O   block is diagonal.
  Fa_ACT_V   block is diagonal.
  Fb_ACT_V   block is diagonal.
  Warning: Fa_VIRTUAL NOT diagonal!
  Nonzero off-diagonal:   168. Largest value:  0.043807806032071
  Warning: Fb_VIRTUAL NOT diagonal!
  Nonzero off-diagonal:   168. Largest value:  0.043807806032071
  Done checking Fock matrices.                   Timing        0.001179 s
  ## <CISD|CIS> in Irrep Ag (Symmetry 0) ##
  Irrep: 1 Size: 2 x 1

                 1

    1    -0.98407687266182
    2    -0.17545379909932




  Forming determinants                ...  Done. Timing        0.000188 s

  ==> Determinants Summary <==

    number of alpha active electrons    =     2
    number of beta active electrons     =     2
    root symmetry (zero based)          =     5
    number of determinants              =     4

  ==> Determinants |alpha|beta> <==
  
  |2+000->  
  |2-000+>  
  |-00+02>  
  |+00-02>


  Diagonalizing Hamiltonian           ...

  Reference type: RHF
  Threshold for spin check: 0.10

  Ask for S^2 = 0.0000, this S^2 = 2.0000, continue searching...

  Spin State: S^2 = 0.000, S = 0.000, singlet (from 4 determinants)  Done. Timing        0.000641 s

  * * * * * * * * * * * * * * * * *
  *  CI Vectors & Configurations  *
  * * * * * * * * * * * * * * * * *

  ==> Root No. 0 <==

    2 b 0 0 0 a          0.7064556334
    2 a 0 0 0 b          0.7064556334

    Total Energy:   -77.686293104742987


  Forming one-particle density        ...  Done. Timing        0.000179 s
  Forming generalized Fock matrix     ...  Done. Timing        0.001311 s
  Checking Fock matrices (Fa, Fb)     ...
  Nonzero criteria: > 1.00E-10
  Fa_CORE    block is diagonal.
  Fb_CORE    block is diagonal.
  Fa_ACT_O   block is diagonal.
  Fb_ACT_O   block is diagonal.
  Fa_ACT_V   block is diagonal.
  Fb_ACT_V   block is diagonal.
  Warning: Fa_VIRTUAL NOT diagonal!
  Nonzero off-diagonal:   168. Largest value:  0.022652741979890
  Warning: Fb_VIRTUAL NOT diagonal!
  Nonzero off-diagonal:   168. Largest value:  0.022652741979890
  Done checking Fock matrices.                   Timing        0.001286 s


  ==> Computing Overlap <CISD|CIS> of Irrep B1u <==

  Forming determinants                ...  Done. Timing        0.000082 s

  ==> Determinants Summary <==

    number of alpha active electrons    =     2
    number of beta active electrons     =     2
    root symmetry (zero based)          =     5
    number of determinants              =     8

  ==> Determinants |alpha|beta> <==
  
  |2+000->  
  |2-000+>  
  |-00+02>  
  |+00-02>  
  |00-0+2>  
  |20+0-0>  
  |00+0-2>  
  |20-0+0>


    Compute 2 roots for CISD in Irrep B1u for <CIS|CISD>.


  Forming determinants                ...  Done. Timing        0.000155 s

  ==> Determinants Summary <==

    number of alpha active electrons    =     2
    number of beta active electrons     =     2
    root symmetry (zero based)          =     5
    number of determinants              =     8

  ==> Determinants |alpha|beta> <==
  
  |2+000->  
  |2-000+>  
  |-00+02>  
  |+00-02>  
  |00-0+2>  
  |20+0-0>  
  |00+0-2>  
  |20-0+0>


  Diagonalizing Hamiltonian           ...

  Reference type: RHF
  Threshold for spin check: 0.10

  Ask for S^2 = 0.0000, this S^2 = 2.0000, continue searching...

  Spin State: S^2 = 0.000, S = 0.000, singlet (from 8 determinants)

  Ask for S^2 = 0.0000, this S^2 = 2.0000, continue searching...

  Spin State: S^2 = -0.000, S = 0.000, singlet (from 8 determinants)  Done. Timing        0.000730 s

  * * * * * * * * * * * * * * * * *
  *  CI Vectors & Configurations  *
  * * * * * * * * * * * * * * * * *

  ==> Root No. 0 <==

    2 a 0 0 0 b          0.7064377598
    2 b 0 0 0 a          0.7064377598

    Total Energy:   -77.686323936645010


  ==> Root No. 1 <==

    b 0 0 a 0 2         -0.7061469910
    a 0 0 b 0 2         -0.7061469910

    Total Energy:   -77.447832458021566


  Forming one-particle density        ...  Done. Timing        0.000133 s
  Forming generalized Fock matrix     ...  Done. Timing        0.001598 s
  Checking Fock matrices (Fa, Fb)     ...
  Nonzero criteria: > 1.00E-10
  Fa_CORE    block is diagonal.
  Fb_CORE    block is diagonal.
  Fa_ACT_O   block is diagonal.
  Fb_ACT_O   block is diagonal.
  Fa_ACT_V   block is diagonal.
  Fb_ACT_V   block is diagonal.
  Warning: Fa_VIRTUAL NOT diagonal!
  Nonzero off-diagonal:   168. Largest value:  0.065301610967391
  Warning: Fb_VIRTUAL NOT diagonal!
  Nonzero off-diagonal:   168. Largest value:  0.065301610967407
  Done checking Fock matrices.                   Timing        0.001269 s
  ## <CISD|CIS> in Irrep B1u (Symmetry 0) ##
  Irrep: 1 Size: 2 x 1

                 1

    1     0.99997853490546
    2     0.00010517718866





  ===================================
    Current Job:  Ag state, root  0
  ===================================

  Forming determinants                ...  Done. Timing        0.000082 s

  ==> Determinants Summary <==

    number of alpha active electrons    =     2
    number of beta active electrons     =     2
    root symmetry (zero based)          =     0
    number of determinants              =     1

  ==> Determinants |alpha|beta> <==
  
  |200002>


  Diagonalizing Hamiltonian           ...

  Reference type: RHF
  Threshold for spin check: 0.10

  Spin State: S^2 = 0.000, S = 0.000, singlet (from 1 determinants)  Done. Timing        0.000491 s

  * * * * * * * * * * * * * * * * *
  *  CI Vectors & Configurations  *
  * * * * * * * * * * * * * * * * *

  ==> Root No. 0 <==

    2 0 0 0 0 2          1.0000000000

    Total Energy:   -78.039848389225853


  Forming one-particle density        ...  Done. Timing        0.000098 s
  Forming generalized Fock matrix     ...  Done. Timing        0.000926 s
  Checking Fock matrices (Fa, Fb)     ...
  Nonzero criteria: > 1.00E-10
  Fa_CORE    block is diagonal.
  Fb_CORE    block is diagonal.
  Fa_ACT_O   block is diagonal.
  Fb_ACT_O   block is diagonal.
  Fa_ACT_V   block is diagonal.
  Fb_ACT_V   block is diagonal.
  Fa_VIRTUAL block is diagonal.
  Fb_VIRTUAL block is diagonal.
  Done checking Fock matrices.                   Timing        0.000984 s

  Forming Lambda2                     ...  Done. Timing        0.000819 s
  Forming Lambda3                     ...  Done. Timing        0.035583 s

              ----------------------------------------------------
                 Driven Similarity Renormalization Group MBPT2
                Chenyang Li, Kevin Hannon, Francesco Evangelista
              ----------------------------------------------------

    Reference:
      J. Chem. Theory Comput. 2015, 11, 2097-2108.

  ==> Calculation Information <==

    ntamp                                                 15
    flow parameter                                 5.000e-01
    taylor expansion threshold                     1.000e-03
    intruder_tamp                                  1.000e-01
    int_type                                    CONVENTIONAL
    source operator                                 STANDARD
    reference relaxation                                NONE

  ==> Checking Orbitals <==

    Checking if orbitals are semi-canonicalized ...     OK.
    Orbitals are semi-canonicalized.

  ==> Computing DSRG-MRPT2 ... <==

    Computing T2 amplitudes                  ...  Done. Timing        0.112885 s
    Computing T1 amplitudes                  ...  Done. Timing        0.003798 s
    Renormalizing two-electron integrals     ...  Done. Timing        0.116894 s
    Renormalizing Fock matrix elements       ...  Done. Timing        0.003418 s
    Computing <[F, T1]>                      ...  Done. Timing        0.003362 s
    Computing <[F, T2]>                      ...  Done. Timing        0.008045 s
    Computing <[V, T1]>                      ...  Done. Timing        0.006924 s
    Computing <[V, T2]> (C_2)^4              ...  Done. Timing        0.035864 s
    Computing <[V, T2]> C_4 (C_2)^2 HH       ...  Done. Timing        0.008190 s
    Computing <[V, T2]> C_4 (C_2)^2 PP       ...  Done. Timing        0.009951 s
    Computing <[V, T2]> C_4 (C_2)^2 PH       ...  Done. Timing        0.034914 s
    Computing <[V, T2]> C_6 C_2              ...  Done. Timing        0.038407 s

  ==> Excitation Amplitudes Summary <==

    Active Indices:    1   12   17   26   36   42 


    Largest T2 amplitudes for spin case AA:
       i   j   a   b              i   j   a   b              i   j   a   b           
    --------------------------------------------------------------------------------
    [  1  42   1  43]-0.034328 [  1  16   1  18] 0.029116 [  1  12   1  13]-0.026893 
    [  1  35   1  38] 0.026539 [ 16  42  18  42] 0.025500 [  1  42   3  42]-0.025140 
    [  1  35   1  36] 0.024572 [ 12  42  12  44] 0.024161 [ 25  42   1  12]-0.023316 
    [ 35  42  38  42] 0.023123 [ 35  42  36  42] 0.022124 [ 12  25   1  44] 0.021303 
    [  1  42  12  29]-0.020664 [  1  17   1  18] 0.020654 [  1  25   1  28] 0.020535 
    --------------------------------------------------------------------------------
    Norm of T2AA vector: (nonzero elements: 20380)                0.471088031830102.
    --------------------------------------------------------------------------------
    Largest T2 amplitudes for spin case AB:
           _       _                  _       _                  _       _           
       i   j   a   b              i   j   a   b              i   j   a   b           
    --------------------------------------------------------------------------------
    [ 42  42  12  12]-0.041280 [  1  42   1  43]-0.038632 [ 42  42  42  43]-0.035641 
    [  0   0   1   1]-0.034557 [  0   0  42  42]-0.030838 [ 12  12  13  13]-0.029320 
    [  1   1   1   3]-0.029260 [ 12  42  13  42]-0.028188 [  1  12   1  13]-0.028044 
    [ 12  42  13  43]-0.027763 [ 42  42  43  43]-0.027516 [ 16  42  18  42] 0.027111 
    [  1  35   1  38] 0.026249 [  1  42   3  42]-0.025144 [ 12  42  12  43]-0.025036 
    --------------------------------------------------------------------------------
    Norm of T2AB vector: (nonzero elements: 23428)                0.473925272046493.
    --------------------------------------------------------------------------------
    Largest T2 amplitudes for spin case BB:
       _   _   _   _              _   _   _   _              _   _   _   _           
       i   j   a   b              i   j   a   b              i   j   a   b           
    --------------------------------------------------------------------------------
    [  1  42   1  43]-0.034328 [  1  16   1  18] 0.029116 [  1  12   1  13]-0.026893 
    [  1  35   1  38] 0.026539 [ 16  42  18  42] 0.025500 [  1  42   3  42]-0.025140 
    [  1  35   1  36] 0.024572 [ 12  42  12  44] 0.024161 [ 25  42   1  12]-0.023316 
    [ 35  42  38  42] 0.023123 [ 35  42  36  42] 0.022124 [ 12  25   1  44] 0.021303 
    [  1  42  12  29]-0.020664 [  1  17   1  18] 0.020654 [  1  25   1  28] 0.020535 
    --------------------------------------------------------------------------------
    Norm of T2BB vector: (nonzero elements: 20380)                0.471088031830102.
    --------------------------------------------------------------------------------

  ==> Possible Intruders <==

    T1 amplitudes larger than 0.1000 for spin case A: NULL
    T1 amplitudes larger than 0.1000 for spin case B: NULL
    T2 amplitudes larger than 0.1000 for spin case AA: NULL
    T2 amplitudes larger than 0.1000 for spin case AB: NULL
    T2 amplitudes larger than 0.1000 for spin case BB: NULL

  ==> DSRG-MRPT2 Energy Summary <==

    E0 (reference)                 =    -78.039848389225853
    <[F, T1]>                      =      0.000000000000000
    <[F, T2]>                      =      0.000000000000000
    <[V, T1]>                      =      0.000000000000000
    <[V, T2]> (C_2)^4              =     -0.270170133476910
    <[V, T2]> C_4 (C_2)^2 HH       =      0.000000000000000
    <[V, T2]> C_4 (C_2)^2 PP       =      0.000000000000000
    <[V, T2]> C_4 (C_2)^2 PH       =      0.000000000000000
    <[V, T2]> C_6 C_2              =      0.000000000000000
    <[V, T2]>                      =     -0.270170133476910
    DSRG-MRPT2 correlation energy  =     -0.270170133476910
    DSRG-MRPT2 total energy        =    -78.310018522702762
    max(T1)                        =      0.000000000000000
    max(T2)                        =      0.041279815862982
    ||T1||                         =      0.000000000000000
    ||T2||                         =      1.158563127932392

  Energy took 0.47284700 s

  ==> Total Timings (s) for Computing Commutators <==

             [H1, T1]    [H1, T2]    [H2, T1]    [H2, T2]
    -----------------------------------------------------
    -> C0       0.003       0.008       0.007       0.127
    -> C1       0.000       0.000       0.000       0.000
    -> C2                   0.000       0.000       0.000
    -----------------------------------------------------


  ===================================
    Current Job: B1u state, root  0
  ===================================

  Forming determinants                ...  Done. Timing        0.000024 s

  ==> Determinants Summary <==

    number of alpha active electrons    =     2
    number of beta active electrons     =     2
    root symmetry (zero based)          =     5
    number of determinants              =     4

  ==> Determinants |alpha|beta> <==
  
  |2+000->  
  |2-000+>  
  |-00+02>  
  |+00-02>


  Diagonalizing Hamiltonian           ...

  Reference type: RHF
  Threshold for spin check: 0.10

  Ask for S^2 = 0.0000, this S^2 = 2.0000, continue searching...

  Spin State: S^2 = 0.000, S = 0.000, singlet (from 4 determinants)  Done. Timing        0.000345 s

  * * * * * * * * * * * * * * * * *
  *  CI Vectors & Configurations  *
  * * * * * * * * * * * * * * * * *

  ==> Root No. 0 <==

    2 b 0 0 0 a          0.7064556334
    2 a 0 0 0 b          0.7064556334

    Total Energy:   -77.686293104742987


  Forming one-particle density        ...  Done. Timing        0.000062 s
  Forming generalized Fock matrix     ...  Done. Timing        0.001899 s
  Checking Fock matrices (Fa, Fb)     ...
  Nonzero criteria: > 1.00E-10
  Fa_CORE    block is diagonal.
  Fb_CORE    block is diagonal.
  Fa_ACT_O   block is diagonal.
  Fb_ACT_O   block is diagonal.
  Fa_ACT_V   block is diagonal.
  Fb_ACT_V   block is diagonal.
  Warning: Fa_VIRTUAL NOT diagonal!
  Nonzero off-diagonal:   168. Largest value:  0.022652741979890
  Warning: Fb_VIRTUAL NOT diagonal!
  Nonzero off-diagonal:   168. Largest value:  0.022652741979890
  Done checking Fock matrices.                   Timing        0.000304 s

  Use semi-canonical orbitals.

  Diagonalizing Fock                  ...  Done. Timing        0.000528 s


	Presorting SO-basis two-electron integrals.
	Sorting File: SO Ints (nn|nn) nbuckets = 1
	Transforming the one-electron integrals and constructing Fock matrices
	Starting first half-transformation.
	Sorting half-transformed integrals.
	First half integral transformation complete.
	Starting second half-transformation.
	Two-electron integral transformation complete.

  Integral transformation done. 0.28787700 s
  Reading the two-electron integrals from disk
  Size of two-electron integrals:   0.118652 GB
  Frozen-core energy            -78.536477401560 a.u.

  FrozenOneBody Operator takes  0.54679200 s
  Resorting integrals after freezing core.
  Frozen Orbitals takes     0.654 s.
  Diagonalizing Hamiltonian           ...

  Reference type: RHF
  Threshold for spin check: 0.10

  Ask for S^2 = 0.0000, this S^2 = 2.0000, continue searching...

  Spin State: S^2 = 0.000, S = 0.000, singlet (from 4 determinants)  Done. Timing        0.000778 s

  * * * * * * * * * * * * * * * * *
  *  CI Vectors & Configurations  *
  * * * * * * * * * * * * * * * * *

  ==> Root No. 0 <==

    2 b 0 0 0 a          0.7064556334
    2 a 0 0 0 b          0.7064556334

    Total Energy:   -77.686293104742987


  Forming one-particle density        ...  Done. Timing        0.000169 s
  Forming generalized Fock matrix     ...  Done. Timing        0.001571 s
  Checking Fock matrices (Fa, Fb)     ...
  Nonzero criteria: > 1.00E-10
  Fa_CORE    block is diagonal.
  Fb_CORE    block is diagonal.
  Fa_ACT_O   block is diagonal.
  Fb_ACT_O   block is diagonal.
  Fa_ACT_V   block is diagonal.
  Fb_ACT_V   block is diagonal.
  Fa_VIRTUAL block is diagonal.
  Fb_VIRTUAL block is diagonal.
  Done checking Fock matrices.                   Timing        0.001608 s

  Forming Lambda2                     ...  Done. Timing        0.000850 s
  Forming Lambda3                     ...  Done. Timing        0.032507 s

              ----------------------------------------------------
                 Driven Similarity Renormalization Group MBPT2
                Chenyang Li, Kevin Hannon, Francesco Evangelista
              ----------------------------------------------------

    Reference:
      J. Chem. Theory Comput. 2015, 11, 2097-2108.

  ==> Calculation Information <==

    ntamp                                                 15
    flow parameter                                 5.000e-01
    taylor expansion threshold                     1.000e-03
    intruder_tamp                                  1.000e-01
    int_type                                    CONVENTIONAL
    source operator                                 STANDARD
    reference relaxation                                NONE

  ==> Checking Orbitals <==

    Checking if orbitals are semi-canonicalized ...     OK.
    Orbitals are semi-canonicalized.

  ==> Computing DSRG-MRPT2 ... <==

    Computing T2 amplitudes                  ...  Done. Timing        0.106059 s
    Computing T1 amplitudes                  ...  Done. Timing        0.002184 s
    Renormalizing two-electron integrals     ...  Done. Timing        0.074210 s
    Renormalizing Fock matrix elements       ...  Done. Timing        0.002383 s
    Computing <[F, T1]>                      ...  Done. Timing        0.002101 s
    Computing <[F, T2]>                      ...  Done. Timing        0.004715 s
    Computing <[V, T1]>                      ...  Done. Timing        0.007745 s
    Computing <[V, T2]> (C_2)^4              ...  Done. Timing        0.039380 s
    Computing <[V, T2]> C_4 (C_2)^2 HH       ...  Done. Timing        0.006811 s
    Computing <[V, T2]> C_4 (C_2)^2 PP       ...  Done. Timing        0.008423 s
    Computing <[V, T2]> C_4 (C_2)^2 PH       ...  Done. Timing        0.031869 s
    Computing <[V, T2]> C_6 C_2              ...  Done. Timing        0.037957 s

  ==> Excitation Amplitudes Summary <==

    Active Indices:    1   12   17   26   36   42 
    Largest T1 amplitudes for spin case A:
       i       a                  i       a                  i       a               
    --------------------------------------------------------------------------------
    [ 12      13    ] 0.011324 [  1       3    ]-0.009714 [ 16      18    ]-0.008106 
    [ 25      28    ] 0.007545 [ 35      38    ]-0.006901 [  1       7    ] 0.006823 
    [ 35      37    ]-0.006760 [  0       1    ]-0.006596 [ 35      36    ]-0.006327 
    [ 12      14    ]-0.006114 [  0       4    ]-0.006017 [ 12      15    ] 0.005988 
    [ 25      27    ] 0.005777 [  1       4    ] 0.005491 [ 36      40    ] 0.004972 
    --------------------------------------------------------------------------------
    Norm of T1A vector: (nonzero elements: 62)                    0.032168341574343.
    --------------------------------------------------------------------------------
    Largest T1 amplitudes for spin case B:
       _       _                  _       _                  _       _               
       i       a                  i       a                  i       a               
    --------------------------------------------------------------------------------
    [ 12      13    ] 0.011324 [  1       3    ]-0.009714 [ 16      18    ]-0.008106 
    [ 25      28    ] 0.007545 [ 35      38    ]-0.006901 [  1       7    ] 0.006823 
    [ 35      37    ]-0.006760 [  0       1    ]-0.006596 [ 35      36    ]-0.006327 
    [ 12      14    ]-0.006114 [  0       4    ]-0.006017 [ 12      15    ] 0.005988 
    [ 25      27    ] 0.005777 [  1       4    ] 0.005491 [ 36      40    ] 0.004972 
    --------------------------------------------------------------------------------
    Norm of T1B vector: (nonzero elements: 62)                    0.032168341574343.
    --------------------------------------------------------------------------------
    Largest T2 amplitudes for spin case AA:
       i   j   a   b              i   j   a   b              i   j   a   b           
    --------------------------------------------------------------------------------
    [  1  42   1  43]-0.031726 [  1  12   1  13]-0.030679 [  1  16   1  18] 0.029176 
    [  1  42   3  42] 0.026615 [  1  35   1  38] 0.026547 [ 16  42  18  42] 0.025519 
    [  1  35   1  36] 0.024894 [ 12  42  12  44] 0.024218 [ 35  42  38  42] 0.023119 
    [ 35  42  36  42] 0.022414 [ 12  25   1  44] 0.021762 [  1  42  12  29]-0.020350 
    [  1  25   1  28]-0.020245 [  1  25   1  27]-0.020166 [  1  16   1  17]-0.020089 
    --------------------------------------------------------------------------------
    Norm of T2AA vector: (nonzero elements: 20380)                0.470641196809333.
    --------------------------------------------------------------------------------
    Largest T2 amplitudes for spin case AB:
           _       _                  _       _                  _       _           
       i   j   a   b              i   j   a   b              i   j   a   b           
    --------------------------------------------------------------------------------
    [  1  42   1  43]-0.035705 [  0   0   1   1]-0.034824 [ 42  42  42  43]-0.032940 
    [ 12  42  13  42]-0.032217 [  1  12   1  13]-0.031933 [  0   0  42  42]-0.031603 
    [  1   1   1   3] 0.030887 [ 12  12  13  13]-0.030368 [ 42  42  43  43]-0.028959 
    [ 12  42  13  43]-0.027894 [ 16  42  18  42] 0.027144 [  1  42   3  42] 0.026513 
    [  1  35   1  38] 0.026242 [ 42  42  12  12]-0.025411 [ 42  42  13  13]-0.024738 
    --------------------------------------------------------------------------------
    Norm of T2AB vector: (nonzero elements: 23428)                0.474410189412511.
    --------------------------------------------------------------------------------
    Largest T2 amplitudes for spin case BB:
       _   _   _   _              _   _   _   _              _   _   _   _           
       i   j   a   b              i   j   a   b              i   j   a   b           
    --------------------------------------------------------------------------------
    [  1  42   1  43]-0.031726 [  1  12   1  13]-0.030679 [  1  16   1  18] 0.029176 
    [  1  42   3  42] 0.026615 [  1  35   1  38] 0.026547 [ 16  42  18  42] 0.025519 
    [  1  35   1  36] 0.024894 [ 12  42  12  44] 0.024218 [ 35  42  38  42] 0.023119 
    [ 35  42  36  42] 0.022414 [ 12  25   1  44] 0.021762 [  1  42  12  29]-0.020350 
    [  1  25   1  28]-0.020245 [  1  25   1  27]-0.020166 [  1  16   1  17]-0.020089 
    --------------------------------------------------------------------------------
    Norm of T2BB vector: (nonzero elements: 20380)                0.470641196809333.
    --------------------------------------------------------------------------------

  ==> Possible Intruders <==

    T1 amplitudes larger than 0.1000 for spin case A: NULL
    T1 amplitudes larger than 0.1000 for spin case B: NULL
    T2 amplitudes larger than 0.1000 for spin case AA: NULL
    T2 amplitudes larger than 0.1000 for spin case AB: NULL
    T2 amplitudes larger than 0.1000 for spin case BB: NULL

  ==> DSRG-MRPT2 Energy Summary <==

    E0 (reference)                 =    -77.686293104742987
    <[F, T1]>                      =     -0.005201061290885
    <[F, T2]>                      =      0.001772334242535
    <[V, T1]>                      =      0.001762774380412
    <[V, T2]> (C_2)^4              =     -0.293451121055599
    <[V, T2]> C_4 (C_2)^2 HH       =     -0.000641313681865
    <[V, T2]> C_4 (C_2)^2 PP       =     -0.008880960180316
    <[V, T2]> C_4 (C_2)^2 PH       =     -0.004246014223784
    <[V, T2]> C_6 C_2              =      0.000025436781319
    <[V, T2]>                      =     -0.307193972360245
    DSRG-MRPT2 correlation energy  =     -0.308859925028183
    DSRG-MRPT2 total energy        =    -77.995153029771174
    max(T1)                        =      0.011324202944069
    max(T2)                        =      0.035705268294691
    ||T1||                         =      0.045492904933487
    ||T2||                         =      1.158993694349500

  Energy took 0.40633200 s

  ==> Total Timings (s) for Computing Commutators <==

             [H1, T1]    [H1, T2]    [H2, T1]    [H2, T2]
    -----------------------------------------------------
    -> C0       0.002       0.005       0.008       0.125
    -> C1       0.000       0.000       0.000       0.000
    -> C2                   0.000       0.000       0.000
    -----------------------------------------------------


  ==> ACTIVE-DSRGPT2 Summary <==

    Sym.    ROOT          CIS                 PT2          % in CISD 
    -----------------------------------------------------------------
      Ag       0      -78.0398483892      -78.3100185227   98.4 (  0)
    -----------------------------------------------------------------
     B1u       0      -77.6862931047      -77.9951530298  100.0 (  0)
    -----------------------------------------------------------------

  ==> Relative Energy WRT Totally Symmetric Ground State (eV) <==

    Sym.    ROOT     CIS       PT2                             Excitation Type
    --------------------------------------------------------------------------
     B1u       0     9.621     8.568                0B3u -> 0B2g (   0.16) (S)
    --------------------------------------------------------------------------
    Excitation type: orbitals are zero-based (active only).
    <r^2> (in a.u.) is given in parentheses. "Diffuse" when <r^2> > 1.0e6.
    (S) for singles; (D) for doubles.

  Your calculation took 4.61654200 seconds

Reading options from the FORTE block
Calling plugin /Users/zxu66/src/forte/forte.so.




  ==> MO Space Information <==

  Read options for space FROZEN_DOCC
  Read options for space RESTRICTED_DOCC
  Read options for space ACTIVE
 Removing orbital 0
 Removing orbital 26
  -------------------------------------------------------------------------
                       Ag   B1g   B2g   B3g    Au   B1u   B2u   B3u   Sum
  -------------------------------------------------------------------------
    FROZEN_DOCC         1     0     0     0     0     1     0     0     2
    RESTRICTED_DOCC     1     0     0     1     0     1     1     0     4
    ACTIVE              1     0     1     1     0     1     1     1     6
    RESTRICTED_UOCC     8     2     3     5     2     8     5     3    36
    FROZEN_UOCC         0     0     0     0     0     0     0     0     0
    Total              11     2     4     7     2    11     7     4    48
  -------------------------------------------------------------------------

  ==> Integral Transformation <==

  Number of molecular orbitals:               48
  Number of correlated molecular orbitals:    46
  Number of frozen occupied orbitals:          2
  Number of frozen unoccupied orbitals:        0


  Cholesky integrals time
 Computing the Cholesky Vectors 

    Computing CD Integrals               ......Done. Timing        2.240006 s
 Need 0.013458 GB to store cd integrals in core

 Number of cholesky vectors 784 to satisfy       0.000000000100 tolerance

  Frozen-core energy            -78.536477401560 a.u.

  FrozenOneBody Operator takes  0.49313600 s
  Resorting integrals after freezing core.
  CholeskyIntegrals take 3.29152000

                               ------------------
                                 ACTIVE-DSRGPT2
                                  Chenyang Li
                               ------------------

    The orbitals are fixed throughout the process.
    If different orbitals (or reference) are desired for different roots,
    you need to run those separately using the regular DSRG-MRPT2 / MRPT3 (or DF/CD) code.

                Ag   B1g   B2g   B3g    Au   B1u   B2u   B3u
    ----------------------------------------------------------
      NROOTS     1     0     0     0     0     1     0     0
    ----------------------------------------------------------

              ---------------------------------------------------
                Complete Active Space Configuration Interaction
                                  Chenyang Li
              ---------------------------------------------------


  ==> Input Summary <==

    number of atoms                =     6
    number of electrons            =    16
    molecular charge               =     0
    number of alpha electrons      =     8
    number of beta electrons       =     8
    multiplicity                   =     1
    ms (2 * Sz)                    =     0
    number of molecular orbitals   =    48

  ==> Orbital Spaces <==

    TOTAL MO                      [   11     2     4     7     2    11     7     4 ]
    FROZEN CORE                   [    1     0     0     0     0     1     0     0 ]
    FROZEN VIRTUAL                [    0     0     0     0     0     0     0     0 ]
    CORRELATED MO                 [   10     2     4     7     2    10     7     4 ]
    CORE                          [    1     0     0     1     0     1     1     0 ]
    ACTIVE                        [    1     0     1     1     0     1     1     1 ]
    VIRTUAL                       [    8     2     3     5     2     8     5     3 ]

  ==> Correlated Subspace Indices <==

    CORE                             0   16   25   35 
    ACTIVE                           1   12   17   26   36   42 
    HOLE                             1   12   17   26   36   42    0   16   25   35 
    VIRTUAL                          2    3    4    5    6    7    8    9   10   11   13   14   15   18   19 
                                    20   21   22   23   24   27   28   29   30   31   32   33   34   37   38 
                                    39   40   41   43   44   45 
    PARTICLE                         1   12   17   26   36   42    2    3    4    5    6    7    8    9   10 
                                    11   13   14   15   18   19   20   21   22   23   24   27   28   29   30 
                                    31   32   33   34   37   38   39   40   41   43   44   45 

    Looping over all roots to determine excitation type.
  Forming determinants                ...  Done. Timing        0.000009 s

  ==> Determinants Summary <==

    number of alpha active electrons    =     2
    number of beta active electrons     =     2
    root symmetry (zero based)          =     0
    number of determinants              =     1

  ==> Determinants |alpha|beta> <==
  
  |200002>


  Diagonalizing Hamiltonian           ...

  Reference type: RHF
  Threshold for spin check: 0.10

  Spin State: S^2 = 0.000, S = 0.000, singlet (from 1 determinants)  Done. Timing        0.000043 s

  * * * * * * * * * * * * * * * * *
  *  CI Vectors & Configurations  *
  * * * * * * * * * * * * * * * * *

  ==> Root No. 0 <==

    2 0 0 0 0 2          1.0000000000

    Total Energy:   -78.039848389173955


  Forming one-particle density        ...  Done. Timing        0.000021 s
  Forming generalized Fock matrix     ...  Done. Timing        0.194708 s
  Checking Fock matrices (Fa, Fb)     ...
  Nonzero criteria: > 1.00E-10
  Fa_CORE    block is diagonal.
  Fb_CORE    block is diagonal.
  Fa_ACT_O   block is diagonal.
  Fb_ACT_O   block is diagonal.
  Fa_ACT_V   block is diagonal.
  Fb_ACT_V   block is diagonal.
  Warning: Fa_VIRTUAL NOT diagonal!
  Nonzero off-diagonal:   168. Largest value:  0.022640790290463
  Warning: Fb_VIRTUAL NOT diagonal!
  Nonzero off-diagonal:   168. Largest value:  0.022640790290463
  Done checking Fock matrices.                   Timing        0.000105 s


  ==> Computing Overlap <CISD|CIS> of Irrep Ag <==

  Forming determinants                ...  Done. Timing        0.000011 s

  ==> Determinants Summary <==

    number of alpha active electrons    =     2
    number of beta active electrons     =     2
    root symmetry (zero based)          =     0
    number of determinants              =    15

  ==> Determinants |alpha|beta> <==
  
  |200002>  
  |-+0+0->  
  |+-0-0+>  
  |000022>  
  |220000>  
  |++0-0->  
  |--0+0+>  
  |000202>  
  |202000>  
  |002002>  
  |020002>  
  |-+0-0+>  
  |+-0+0->  
  |200200>  
  |200020>


    Compute 2 roots for CISD in Irrep Ag for <CIS|CISD>.


  Forming determinants                ...  Done. Timing        0.000009 s

  ==> Determinants Summary <==

    number of alpha active electrons    =     2
    number of beta active electrons     =     2
    root symmetry (zero based)          =     0
    number of determinants              =    15

  ==> Determinants |alpha|beta> <==
  
  |200002>  
  |-+0+0->  
  |+-0-0+>  
  |000022>  
  |220000>  
  |++0-0->  
  |--0+0+>  
  |000202>  
  |202000>  
  |002002>  
  |020002>  
  |-+0-0+>  
  |+-0+0->  
  |200200>  
  |200020>


  Diagonalizing Hamiltonian           ...

  Reference type: RHF
  Threshold for spin check: 0.10

  Spin State: S^2 = 0.000, S = 0.000, singlet (from 15 determinants)

  Spin State: S^2 = -0.000, S = 0.000, singlet (from 15 determinants)  Done. Timing        0.000242 s

  * * * * * * * * * * * * * * * * *
  *  CI Vectors & Configurations  *
  * * * * * * * * * * * * * * * * *

  ==> Root No. 0 <==

    2 0 0 0 0 2          0.9840768727
    2 2 0 0 0 0         -0.1768749743

    Total Energy:   -78.058381331632717


  ==> Root No. 1 <==

    2 2 0 0 0 0          0.9817492324
    2 0 0 0 0 2          0.1754537991
    0 2 0 0 0 2         -0.0641271598

    Total Energy:   -77.482683579724437


  Forming one-particle density        ...  Done. Timing        0.000077 s
  Forming generalized Fock matrix     ...  Done. Timing        0.186122 s
  Checking Fock matrices (Fa, Fb)     ...
  Nonzero criteria: > 1.00E-10
  Fa_CORE    block is diagonal.
  Fb_CORE    block is diagonal.
  Fa_ACT_O   block is diagonal.
  Fb_ACT_O   block is diagonal.
  Fa_ACT_V   block is diagonal.
  Fb_ACT_V   block is diagonal.
  Warning: Fa_VIRTUAL NOT diagonal!
  Nonzero off-diagonal:   168. Largest value:  0.021144245809692
  Warning: Fb_VIRTUAL NOT diagonal!
  Nonzero off-diagonal:   168. Largest value:  0.021144245809692
  Done checking Fock matrices.                   Timing        0.000106 s
  ## <CISD|CIS> in Irrep Ag (Symmetry 0) ##
  Irrep: 1 Size: 2 x 1

                 1

    1     0.98407687266231
    2     0.17545379910049




  Forming determinants                ...  Done. Timing        0.000008 s

  ==> Determinants Summary <==

    number of alpha active electrons    =     2
    number of beta active electrons     =     2
    root symmetry (zero based)          =     5
    number of determinants              =     4

  ==> Determinants |alpha|beta> <==
  
  |2+000->  
  |2-000+>  
  |-00+02>  
  |+00-02>


  Diagonalizing Hamiltonian           ...

  Reference type: RHF
  Threshold for spin check: 0.10

  Ask for S^2 = 0.0000, this S^2 = 2.0000, continue searching...

  Spin State: S^2 = 0.000, S = 0.000, singlet (from 4 determinants)  Done. Timing        0.000181 s

  * * * * * * * * * * * * * * * * *
  *  CI Vectors & Configurations  *
  * * * * * * * * * * * * * * * * *

  ==> Root No. 0 <==

    2 a 0 0 0 b          0.7064556334
    2 b 0 0 0 a          0.7064556334

    Total Energy:   -77.686293104676963


  Forming one-particle density        ...  Done. Timing        0.000037 s
  Forming generalized Fock matrix     ...  Done. Timing        0.196092 s
  Checking Fock matrices (Fa, Fb)     ...
  Nonzero criteria: > 1.00E-10
  Fa_CORE    block is diagonal.
  Fb_CORE    block is diagonal.
  Fa_ACT_O   block is diagonal.
  Fb_ACT_O   block is diagonal.
  Fa_ACT_V   block is diagonal.
  Fb_ACT_V   block is diagonal.
  Warning: Fa_VIRTUAL NOT diagonal!
  Nonzero off-diagonal:    44. Largest value:  0.000000001655429
  Warning: Fb_VIRTUAL NOT diagonal!
  Nonzero off-diagonal:    44. Largest value:  0.000000001655428
  Done checking Fock matrices.                   Timing        0.000108 s


  ==> Computing Overlap <CISD|CIS> of Irrep B1u <==

  Forming determinants                ...  Done. Timing        0.000006 s

  ==> Determinants Summary <==

    number of alpha active electrons    =     2
    number of beta active electrons     =     2
    root symmetry (zero based)          =     5
    number of determinants              =     8

  ==> Determinants |alpha|beta> <==
  
  |2+000->  
  |2-000+>  
  |-00+02>  
  |+00-02>  
  |00-0+2>  
  |20+0-0>  
  |00+0-2>  
  |20-0+0>


    Compute 2 roots for CISD in Irrep B1u for <CIS|CISD>.


  Forming determinants                ...  Done. Timing        0.000025 s

  ==> Determinants Summary <==

    number of alpha active electrons    =     2
    number of beta active electrons     =     2
    root symmetry (zero based)          =     5
    number of determinants              =     8

  ==> Determinants |alpha|beta> <==
  
  |2+000->  
  |2-000+>  
  |-00+02>  
  |+00-02>  
  |00-0+2>  
  |20+0-0>  
  |00+0-2>  
  |20-0+0>


  Diagonalizing Hamiltonian           ...

  Reference type: RHF
  Threshold for spin check: 0.10

  Ask for S^2 = 0.0000, this S^2 = 2.0000, continue searching...

  Spin State: S^2 = -0.000, S = 0.000, singlet (from 8 determinants)

  Ask for S^2 = 0.0000, this S^2 = 2.0000, continue searching...

  Spin State: S^2 = 0.000, S = 0.000, singlet (from 8 determinants)  Done. Timing        0.000158 s

  * * * * * * * * * * * * * * * * *
  *  CI Vectors & Configurations  *
  * * * * * * * * * * * * * * * * *

  ==> Root No. 0 <==

    2 b 0 0 0 a          0.7064377598
    2 a 0 0 0 b          0.7064377598

    Total Energy:   -77.686323936578106


  ==> Root No. 1 <==

    a 0 0 b 0 2         -0.7061469910
    b 0 0 a 0 2         -0.7061469910

    Total Energy:   -77.447832457842622


  Forming one-particle density        ...  Done. Timing        0.000073 s
  Forming generalized Fock matrix     ...  Done. Timing        0.223413 s
  Checking Fock matrices (Fa, Fb)     ...
  Nonzero criteria: > 1.00E-10
  Fa_CORE    block is diagonal.
  Fb_CORE    block is diagonal.
  Fa_ACT_O   block is diagonal.
  Fb_ACT_O   block is diagonal.
  Fa_ACT_V   block is diagonal.
  Fb_ACT_V   block is diagonal.
  Warning: Fa_VIRTUAL NOT diagonal!
  Nonzero off-diagonal:   168. Largest value:  0.042552322815554
  Warning: Fb_VIRTUAL NOT diagonal!
  Nonzero off-diagonal:   168. Largest value:  0.042552322815550
  Done checking Fock matrices.                   Timing        0.000090 s
  ## <CISD|CIS> in Irrep B1u (Symmetry 0) ##
  Irrep: 1 Size: 2 x 1

                 1

    1     0.99997853490622
    2     0.00010517718866





  ===================================
    Current Job:  Ag state, root  0
  ===================================

  Forming determinants                ...  Done. Timing        0.000006 s

  ==> Determinants Summary <==

    number of alpha active electrons    =     2
    number of beta active electrons     =     2
    root symmetry (zero based)          =     0
    number of determinants              =     1

  ==> Determinants |alpha|beta> <==
  
  |200002>


  Diagonalizing Hamiltonian           ...

  Reference type: RHF
  Threshold for spin check: 0.10

  Spin State: S^2 = 0.000, S = 0.000, singlet (from 1 determinants)  Done. Timing        0.000039 s

  * * * * * * * * * * * * * * * * *
  *  CI Vectors & Configurations  *
  * * * * * * * * * * * * * * * * *

  ==> Root No. 0 <==

    2 0 0 0 0 2          1.0000000000

    Total Energy:   -78.039848389173955


  Forming one-particle density        ...  Done. Timing        0.000019 s
  Forming generalized Fock matrix     ...  Done. Timing        0.188555 s
  Checking Fock matrices (Fa, Fb)     ...
  Nonzero criteria: > 1.00E-10
  Fa_CORE    block is diagonal.
  Fb_CORE    block is diagonal.
  Fa_ACT_O   block is diagonal.
  Fb_ACT_O   block is diagonal.
  Fa_ACT_V   block is diagonal.
  Fb_ACT_V   block is diagonal.
  Warning: Fa_VIRTUAL NOT diagonal!
  Nonzero off-diagonal:   168. Largest value:  0.022640790290463
  Warning: Fb_VIRTUAL NOT diagonal!
  Nonzero off-diagonal:   168. Largest value:  0.022640790290463
  Done checking Fock matrices.                   Timing        0.000189 s

  Use semi-canonical orbitals.

  Diagonalizing Fock                  ...  Done. Timing        0.000345 s



 Computing the Cholesky Vectors 

    Computing CD Integrals               ......Done. Timing        2.182416 s
 Need 0.013458 GB to store cd integrals in core

 Number of cholesky vectors 784 to satisfy       0.000000000100 tolerance

  Frozen-core energy            -78.536477401560 a.u.

  FrozenOneBody Operator takes  0.42561700 s
  Resorting integrals after freezing core.
  Frozen Orbitals takes     0.513 s.
  Diagonalizing Hamiltonian           ...

  Reference type: RHF
  Threshold for spin check: 0.10

  Spin State: S^2 = 0.000, S = 0.000, singlet (from 1 determinants)  Done. Timing        0.000089 s

  * * * * * * * * * * * * * * * * *
  *  CI Vectors & Configurations  *
  * * * * * * * * * * * * * * * * *

  ==> Root No. 0 <==

    2 0 0 0 0 2          1.0000000000

    Total Energy:   -78.039848389173955


  Forming one-particle density        ...  Done. Timing        0.000077 s
  Forming generalized Fock matrix     ...  Done. Timing        0.192962 s
  Checking Fock matrices (Fa, Fb)     ...
  Nonzero criteria: > 1.00E-10
  Fa_CORE    block is diagonal.
  Fb_CORE    block is diagonal.
  Fa_ACT_O   block is diagonal.
  Fb_ACT_O   block is diagonal.
  Fa_ACT_V   block is diagonal.
  Fb_ACT_V   block is diagonal.
  Fa_VIRTUAL block is diagonal.
  Fb_VIRTUAL block is diagonal.
  Done checking Fock matrices.                   Timing        0.000090 s

  Forming Lambda2                     ...  Done. Timing        0.000506 s
  Forming Lambda3                     ...  Done. Timing        0.030786 s

           ---------------------------------------------------------
             DF/CD - Driven Similarity Renormalization Group MBPT2
                      Kevin Hannon and Chenyang (York) Li
                                   1 thread
           ---------------------------------------------------------

  Reference = RHF
  Reference Energy = -78.039848389173955

  ==> Checking Orbitals <==

    Checking if orbitals are semi-canonicalized ...     OK.
    Orbitals are semi-canonicalized.

  ==> Calculation Information <==

    Flow parameter                           5.000e-01
    Cholesky Tolerance                       1.000e-10
    Taylor expansion threshold               1.000e-03
    int_type                                  CHOLESKY
    ccvv_algorithm                           FLY_AMBIT
    ccvv_source                                 NORMAL
    Computing T2                          ......Done. Timing        0.111500 s
    Renormalizing V                       ......Done. Timing        0.078042 s
    Computing T1                          ......Done. Timing        0.004046 s
    Renormalizing F                       ......Done. Timing        0.004752 s
    Computing <[F, T1]>                   ......Done. Timing        0.002721 s
    Computing <[F, T2]>                   ......Done. Timing        0.006352 s
    Computing <[V, T1]>                   ......Done. Timing        0.005054 s
    Computing <[V, T2]> (C_2)^4 (no ccvv) ......Done. Timing        0.018961 s
    Computing <[V, T2]> (C_2)^4 ccvv      ......Done. Timing        0.012519 s
    Computing <[V, T2]> 4HH               ......Done. Timing        0.011182 s
    Computing <V, T2]> 4PP                ......Done. Timing        0.011692 s
    Computing [V, T2] 4PH                 ......Done. Timing        0.034001 s
    Computing [V, T2] 3                  ......Done. Timing        0.041112 s

  ==> DSRG-MRPT2 Energy Summary <==

    E0 (reference)                 =    -78.039848389173955
    <[F, T1]>                      =     -0.000000000000000
    <[F, T2]>                      =      0.000000000000000
    <[V, T1]>                      =      0.000000000000000
    <[V, T2]> (C_2)^4              =     -0.270170133444547
    <[V, T2]> C_4 (C_2)^2 HH       =      0.000000000000000
    <[V, T2]> C_4 (C_2)^2 PP       =      0.000000000000000
    <[V, T2]> C_4 (C_2)^2 PH       =      0.000000000000000
    <[V, T2]> C_6 C_2              =      0.000000000000000
    <[V, T2]>                      =     -0.270170133444547
    DSRG-MRPT2 correlation energy  =     -0.270170133444547
    DSRG-MRPT2 total energy        =    -78.310018522618506
    max(T1)                        =      0.000000000117862
    ||T1||                         =      0.000000000292546

  CD/DF-DSRG-MRPT2 took   0.36962300 s.

  ==> Total Timings (s) for Computing Commutators <==

             [H1, T1]    [H1, T2]    [H2, T1]    [H2, T2]
    -----------------------------------------------------
    -> C0       0.003       0.006       0.005       0.099
    -> C1       0.000       0.000       0.000       0.000
    -> C2                   0.000       0.000       0.000
    -----------------------------------------------------


  ===================================
    Current Job: B1u state, root  0
  ===================================

  Forming determinants                ...  Done. Timing        0.000007 s

  ==> Determinants Summary <==

    number of alpha active electrons    =     2
    number of beta active electrons     =     2
    root symmetry (zero based)          =     5
    number of determinants              =     4

  ==> Determinants |alpha|beta> <==
  
  |2+000->  
  |2-000+>  
  |-00+02>  
  |+00-02>


  Diagonalizing Hamiltonian           ...

  Reference type: RHF
  Threshold for spin check: 0.10

  Ask for S^2 = 0.0000, this S^2 = 2.0000, continue searching...

  Spin State: S^2 = 0.000, S = 0.000, singlet (from 4 determinants)  Done. Timing        0.000084 s

  * * * * * * * * * * * * * * * * *
  *  CI Vectors & Configurations  *
  * * * * * * * * * * * * * * * * *

  ==> Root No. 0 <==

    2 a 0 0 0 b          0.7064556334
    2 b 0 0 0 a          0.7064556334

    Total Energy:   -77.686293104676963


  Forming one-particle density        ...  Done. Timing        0.000055 s
  Forming generalized Fock matrix     ...  Done. Timing        0.207509 s
  Checking Fock matrices (Fa, Fb)     ...
  Nonzero criteria: > 1.00E-10
  Fa_CORE    block is diagonal.
  Fb_CORE    block is diagonal.
  Fa_ACT_O   block is diagonal.
  Fb_ACT_O   block is diagonal.
  Fa_ACT_V   block is diagonal.
  Fb_ACT_V   block is diagonal.
  Warning: Fa_VIRTUAL NOT diagonal!
  Nonzero off-diagonal:   168. Largest value:  0.022652741989563
  Warning: Fb_VIRTUAL NOT diagonal!
  Nonzero off-diagonal:   168. Largest value:  0.022652741989563
  Done checking Fock matrices.                   Timing        0.000088 s

  Use semi-canonical orbitals.

  Diagonalizing Fock                  ...  Done. Timing        0.000264 s



 Computing the Cholesky Vectors 

    Computing CD Integrals               ......Done. Timing        2.195949 s
 Need 0.013458 GB to store cd integrals in core

 Number of cholesky vectors 784 to satisfy       0.000000000100 tolerance

  Frozen-core energy            -78.536477401560 a.u.

  FrozenOneBody Operator takes  0.47767500 s
  Resorting integrals after freezing core.
  Frozen Orbitals takes     0.570 s.
  Diagonalizing Hamiltonian           ...

  Reference type: RHF
  Threshold for spin check: 0.10

  Ask for S^2 = 0.0000, this S^2 = 2.0000, continue searching...

  Spin State: S^2 = 0.000, S = 0.000, singlet (from 4 determinants)  Done. Timing        0.000283 s

  * * * * * * * * * * * * * * * * *
  *  CI Vectors & Configurations  *
  * * * * * * * * * * * * * * * * *

  ==> Root No. 0 <==

    2 a 0 0 0 b          0.7064556334
    2 b 0 0 0 a          0.7064556334

    Total Energy:   -77.686293104676963


  Forming one-particle density        ...  Done. Timing        0.000145 s
  Forming generalized Fock matrix     ...  Done. Timing        0.210651 s
  Checking Fock matrices (Fa, Fb)     ...
  Nonzero criteria: > 1.00E-10
  Fa_CORE    block is diagonal.
  Fb_CORE    block is diagonal.
  Fa_ACT_O   block is diagonal.
  Fb_ACT_O   block is diagonal.
  Fa_ACT_V   block is diagonal.
  Fb_ACT_V   block is diagonal.
  Fa_VIRTUAL block is diagonal.
  Fb_VIRTUAL block is diagonal.
  Done checking Fock matrices.                   Timing        0.000077 s

  Forming Lambda2                     ...  Done. Timing        0.000562 s
  Forming Lambda3                     ...  Done. Timing        0.032449 s

           ---------------------------------------------------------
             DF/CD - Driven Similarity Renormalization Group MBPT2
                      Kevin Hannon and Chenyang (York) Li
                                   1 thread
           ---------------------------------------------------------

  Reference = RHF
  Reference Energy = -77.686293104676963

  ==> Checking Orbitals <==

    Checking if orbitals are semi-canonicalized ...     OK.
    Orbitals are semi-canonicalized.

  ==> Calculation Information <==

    Flow parameter                           5.000e-01
    Cholesky Tolerance                       1.000e-10
    Taylor expansion threshold               1.000e-03
    int_type                                  CHOLESKY
    ccvv_algorithm                           FLY_AMBIT
    ccvv_source                                 NORMAL
    Computing T2                          ......Done. Timing        0.103333 s
    Renormalizing V                       ......Done. Timing        0.079244 s
    Computing T1                          ......Done. Timing        0.003437 s
    Renormalizing F                       ......Done. Timing        0.005176 s
    Computing <[F, T1]>                   ......Done. Timing        0.001974 s
    Computing <[F, T2]>                   ......Done. Timing        0.006063 s
    Computing <[V, T1]>                   ......Done. Timing        0.008547 s
    Computing <[V, T2]> (C_2)^4 (no ccvv) ......Done. Timing        0.025346 s
    Computing <[V, T2]> (C_2)^4 ccvv      ......Done. Timing        0.015804 s
    Computing <[V, T2]> 4HH               ......Done. Timing        0.007416 s
    Computing <V, T2]> 4PP                ......Done. Timing        0.010145 s
    Computing [V, T2] 4PH                 ......Done. Timing        0.033077 s
    Computing [V, T2] 3                  ......Done. Timing        0.041123 s

  ==> DSRG-MRPT2 Energy Summary <==

    E0 (reference)                 =    -77.686293104676963
    <[F, T1]>                      =     -0.005201061290292
    <[F, T2]>                      =      0.001772334242510
    <[V, T1]>                      =      0.001762774380382
    <[V, T2]> (C_2)^4              =     -0.293451121025719
    <[V, T2]> C_4 (C_2)^2 HH       =     -0.000641313682171
    <[V, T2]> C_4 (C_2)^2 PP       =     -0.008880960191714
    <[V, T2]> C_4 (C_2)^2 PH       =     -0.004246014218371
    <[V, T2]> C_6 C_2              =      0.000025436781278
    <[V, T2]>                      =     -0.307193972336697
    DSRG-MRPT2 correlation energy  =     -0.308859925004098
    DSRG-MRPT2 total energy        =    -77.995153029681063
    max(T1)                        =      0.011324202947634
    ||T1||                         =      0.045492904957209

  CD/DF-DSRG-MRPT2 took   0.36060400 s.

  ==> Total Timings (s) for Computing Commutators <==

             [H1, T1]    [H1, T2]    [H2, T1]    [H2, T2]
    -----------------------------------------------------
    -> C0       0.002       0.006       0.009       0.103
    -> C1       0.000       0.000       0.000       0.000
    -> C2                   0.000       0.000       0.000
    -----------------------------------------------------


  ==> ACTIVE-DSRGPT2 Summary <==

    Sym.    ROOT          CIS                 PT2          % in CISD 
    -----------------------------------------------------------------
      Ag       0      -78.0398483892      -78.3100185226   98.4 (  0)
    -----------------------------------------------------------------
     B1u       0      -77.6862931047      -77.9951530297  100.0 (  0)
    -----------------------------------------------------------------

  ==> Relative Energy WRT Totally Symmetric Ground State (eV) <==

    Sym.    ROOT     CIS       PT2                             Excitation Type
    --------------------------------------------------------------------------
     B1u       0     9.621     8.568                0B3u -> 0B2g (   0.11) (S)
    --------------------------------------------------------------------------
    Excitation type: orbitals are zero-based (active only).
    <r^2> (in a.u.) is given in parentheses. "Diffuse" when <r^2> > 1.0e6.
    (S) for singles; (D) for doubles.

  Your calculation took 12.82997400 seconds
	DSRG-MRPT2 vs CD-DSRG-MRPT2.......................................PASSED

*** Psi4 exiting successfully. Buy a developer a beer!
