
    -----------------------------------------------------------------------
          Psi4: An Open-Source Ab Initio Electronic Structure Package
                               Psi4 undefined 

                         Git: Rev {fixcasscf} 6180d6a 


    R. M. Parrish, L. A. Burns, D. G. A. Smith, A. C. Simmonett,
    A. E. DePrince III, E. G. Hohenstein, U. Bozkaya, A. Yu. Sokolov,
    R. Di Remigio, R. M. Richard, J. F. Gonthier, A. M. James,
    H. R. McAlexander, A. Kumar, M. Saitow, X. Wang, B. P. Pritchard,
    P. Verma, H. F. Schaefer III, K. Patkowski, R. A. King, E. F. Valeev,
    F. A. Evangelista, J. M. Turney, T. D. Crawford, and C. D. Sherrill,
    J. Chem. Theory Comput. 13(7) pp 3185--3197 (2017).
    (doi: 10.1021/acs.jctc.7b00174)


                         Additional Contributions by
    P. Kraus, H. Kruse, M. H. Lechner, M. C. Schieber, R. A. Shaw,
    A. Alenaizan, R. Galvelis, Z. L. Glick, S. Lehtola, and J. P. Misiewicz

    -----------------------------------------------------------------------


    Psi4 started on: Monday, 27 April 2020 10:47AM

    Process ID: 94140
    Host:       CHE-FEVANGE-01I (2)
    PSIDATADIR: /Users/fevange/Source/psi4/objdir-Debug/stage/share/psi4
    Memory:     500.0 MiB
    Threads:    1
    
  ==> Input File <==

--------------------------------------------------------------------------
#! Generated using commit GITCOMMIT
# Test for spin-orbital DSRG code

import forte

Ecas0  = -1.049725718950583
Edsrg0 = -1.049825487798135

molecule {
  0 1
  H
  H 1 1.5
}

set {
  basis              3-21g
  docc               [1,0,0,0,0,0,0,0]
  restricted_docc    [0,0,0,0,0,0,0,0]
  active             [1,0,0,0,0,1,0,0]
  reference          rhf
  scf_type           pk
  maxiter            300
  e_convergence      8
  d_convergence      10
}

set forte {
  active_space_solver    cas
  correlation_solver     mrdsrg_so
  corr_level             ldsrg2
  frozen_docc            [0,0,0,0,0,0,0,0]
  restricted_docc        [0,0,0,0,0,0,0,0]
  active                 [1,0,0,0,0,1,0,0]
  dsrg_s                 0.5
  maxiter                100
  e_convergence          8
}

Ecas, wfn = energy('casscf', return_wfn=True)
compare_values(Ecas0, variable("CURRENT ENERGY"), 7, "CASSCF energy")

E_spin_orbital = energy('forte', ref_wfn=wfn)
compare_values(Edsrg0, E_spin_orbital, 7, "MR-LDSRG(2) energy spin-orbital York")

#set forte {
#correlation_solver     somrdsrg
#}
#E_spin_orbital = energy('forte', ref_wfn=wfn)
#compare_values(Edsrg0, E_spin_orbital, 7, "MR-LDSRG(2) energy spin-orbital Francesco")

#set forte {
#correlation_solver     mrdsrg
#job_type newdriver
#}
#E_spin_integrated = energy('forte', ref_wfn=wfn)
#compare_values(Edsrg0, E_spin_orbital, 7, "MR-LDSRG(2) energy spin-integrated")
--------------------------------------------------------------------------

Scratch directory: /tmp/

*** tstart() called on CHE-FEVANGE-01I (2)
*** at Mon Apr 27 10:47:05 2020

   => Loading Basis Set <=

    Name: 3-21G
    Role: ORBITAL
    Keyword: BASIS
    atoms 1-2 entry H          line    21 file /Users/fevange/Source/psi4/objdir-Debug/stage/share/psi4/basis/3-21g.gbs 


         ---------------------------------------------------------
                                   SCF
               by Justin Turney, Rob Parrish, Andy Simmonett
                          and Daniel G. A. Smith
                              RHF Reference
                        1 Threads,    500 MiB Core
         ---------------------------------------------------------

  ==> Geometry <==

    Molecular point group: d2h
    Full point group: D_inf_h

    Geometry (in Angstrom), charge = 0, multiplicity = 1:

       Center              X                  Y                   Z               Mass       
    ------------   -----------------  -----------------  -----------------  -----------------
         H            0.000000000000     0.000000000000    -0.750000000000     1.007825032230
         H            0.000000000000     0.000000000000     0.750000000000     1.007825032230

  Running in d2h symmetry.

  Rotational constants: A = ************  B =     14.86822  C =     14.86822 [cm^-1]
  Rotational constants: A = ************  B = 445737.87242  C = 445737.87242 [MHz]
  Nuclear repulsion =    0.352784807113333

  Charge       = 0
  Multiplicity = 1
  Electrons    = 2
  Nalpha       = 1
  Nbeta        = 1

  ==> Algorithm <==

  SCF Algorithm Type is PK.
  DIIS enabled.
  MOM disabled.
  Fractional occupation disabled.
  Guess Type is SAD.
  Energy threshold   = 1.00e-08
  Density threshold  = 1.00e-10
  Integral threshold = 0.00e+00

  ==> Primary Basis <==

  Basis Set: 3-21G
    Blend: 3-21G
    Number of shells: 4
    Number of basis function: 4
    Number of Cartesian functions: 4
    Spherical Harmonics?: false
    Max angular momentum: 0

  ==> Integral Setup <==

  Using in-core PK algorithm.
   Calculation information:
      Number of atoms:                   2
      Number of AO shells:               4
      Number of primitives:              6
      Number of atomic orbitals:         4
      Number of basis functions:         4

      Integral cutoff                 1.00e-12
      Number of threads:                 1

  Performing in-core PK
  Using 110 doubles for integral storage.
  We computed 55 shell quartets total.
  Whereas there are 55 unique shell quartets.

  ==> DiskJK: Disk-Based J/K Matrices <==

    J tasked:                  Yes
    K tasked:                  Yes
    wK tasked:                  No
    Memory [MiB]:              375
    Schwarz Cutoff:          1E-12

    OpenMP threads:              1

  Minimum eigenvalue in the overlap matrix is 3.2144687550E-01.
  Reciprocal condition number of the overlap matrix is 1.9150235451E-01.
    Using symmetric orthogonalization.

  ==> Pre-Iterations <==

  SCF Guess: Superposition of Atomic Densities via on-the-fly atomic UHF (no occupation information).

   -------------------------
    Irrep   Nso     Nmo    
   -------------------------
     Ag         2       2 
     B1g        0       0 
     B2g        0       0 
     B3g        0       0 
     Au         0       0 
     B1u        2       2 
     B2u        0       0 
     B3u        0       0 
   -------------------------
    Total       4       4
   -------------------------

  ==> Iterations <==

                        Total Energy        Delta E     RMS |[F,P]|

   @RHF iter SAD:    -0.73661534666280   -7.36615e-01   0.00000e+00 
   @RHF iter   1:    -0.99204023487079   -2.55425e-01   5.52768e-03 DIIS
   @RHF iter   2:    -0.99221261558077   -1.72381e-04   8.73457e-04 DIIS
   @RHF iter   3:    -0.99221702640503   -4.41082e-06   2.41112e-07 DIIS
   @RHF iter   4:    -0.99221702640537   -3.36176e-13   3.84406e-11 DIIS
  Energy and wave function converged.


  ==> Post-Iterations <==

    Orbital Energies [Eh]
    ---------------------

    Doubly Occupied:                                                      

       1Ag    -0.430258  

    Virtual:                                                              

       1B1u    0.068379     2B1u    1.163103     2Ag     1.212760  

    Final Occupation by Irrep:
             Ag   B1g   B2g   B3g    Au   B1u   B2u   B3u 
    DOCC [     1,    0,    0,    0,    0,    0,    0,    0 ]

  @RHF Final Energy:    -0.99221702640537

   => Energetics <=

    Nuclear Repulsion Energy =              0.3527848071133334
    One-Electron Energy =                  -1.8294884594166092
    Two-Electron Energy =                   0.4844866258979064
    Total Energy =                         -0.9922170264053696

Computation Completed


Properties will be evaluated at   0.000000,   0.000000,   0.000000 [a0]

Properties computed using the SCF density matrix

  Nuclear Dipole Moment: [e a0]
     X:     0.0000      Y:     0.0000      Z:     0.0000

  Electronic Dipole Moment: [e a0]
     X:     0.0000      Y:     0.0000      Z:     0.0000

  Dipole Moment: [e a0]
     X:     0.0000      Y:     0.0000      Z:     0.0000     Total:     0.0000

  Dipole Moment: [D]
     X:     0.0000      Y:     0.0000      Z:     0.0000     Total:     0.0000


*** tstop() called on CHE-FEVANGE-01I (2) at Mon Apr 27 10:47:05 2020
Module time:
	user time   =       0.43 seconds =       0.01 minutes
	system time =       0.03 seconds =       0.00 minutes
	total time  =          0 seconds =       0.00 minutes
Total time:
	user time   =       0.43 seconds =       0.01 minutes
	system time =       0.03 seconds =       0.00 minutes
	total time  =          0 seconds =       0.00 minutes
 MINTS: Wrapper to libmints.
   by Justin Turney

   Calculation information:
      Number of threads:                 1
      Number of atoms:                   2
      Number of AO shells:               4
      Number of SO shells:               2
      Number of primitives:              6
      Number of atomic orbitals:         4
      Number of basis functions:         4

      Number of irreps:                  8
      Integral cutoff                 1.00e-12
      Number of functions per irrep: [   2    0    0    0    0    2    0    0 ]

 OEINTS: Overlap, kinetic, potential, dipole, and quadrupole integrals
         stored in file 35.

      Computing two-electron integrals...done
      Computed 31 non-zero two-electron integrals.
        Stored in file 33.

 MINTS: Wrapper to libmints.
   by Justin Turney

   Calculation information:
      Number of threads:                 1
      Number of atoms:                   2
      Number of AO shells:               4
      Number of SO shells:               2
      Number of primitives:              6
      Number of atomic orbitals:         4
      Number of basis functions:         4

      Number of irreps:                  8
      Integral cutoff                 1.00e-12
      Number of functions per irrep: [   2    0    0    0    0    2    0    0 ]

 OEINTS: Overlap, kinetic, potential, dipole, and quadrupole integrals
         stored in file 35.

      Computing two-electron integrals...done
      Computed 31 non-zero two-electron integrals.
        Stored in file 33.


         ---------------------------------------------------------
                Multi-Configurational Self-Consistent Field
                            (a 'D E T C I' module)

                 Daniel G. A. Smith, C. David Sherrill, and
                              Matt L. Leininger
         ---------------------------------------------------------


   ==> Parameters <==

    EX LEVEL       =        2      H0 BLOCKSIZE  =     1000
    VAL EX LEVEL   =        0      H0 GUESS SIZE =     1000
    H0COUPLINGSIZE =        0      H0 COUPLING   =       NO
    MAXITER        =       12      NUM PRINT     =       20
    NUM ROOTS      =        1      ICORE         =        1
    PRINT LVL      =        1      FCI           =      YES
    R CONV         = 1.00e-07      MIXED         =      YES
    E CONV         = 1.00e-08      MIXED4        =      YES
    R4S            =       NO      REPL OTF      =       NO
    DIAG METHOD    =      SEM      FOLLOW ROOT   =        0
    PRECONDITIONER = DAVIDSON      UPDATE        = DAVIDSON
    S              =   0.0000      Ms0           =      YES
    GUESS VECTOR   =  H0BLOCK      OPENTYPE      =     NONE
    COLLAPSE SIZE  =        1      HD AVG        = EVANGELISTI
    MAX NUM VECS   =       13      REF SYM       =     AUTO
    IOPEN        =       NO

    EX ALLOW       =  1  1 
    STATE AVERAGE  =  0(1.00) 

   ==> CI Orbital and Space information <==

   ------------------------------------------------------------------------------
               Space    Total    Ag   B1g   B2g   B3g    Au   B1u   B2u   B3u
   ------------------------------------------------------------------------------
                 Nso        4     2     0     0     0     0     2     0     0
                 Nmo        4     2     0     0     0     0     2     0     0
               Ndocc        1     1     0     0     0     0     0     0     0
               Nsocc        0     0     0     0     0     0     0     0     0
   ------------------------------------------------------------------------------
                                    MCSCF Spaces
   ------------------------------------------------------------------------------
         Frozen DOCC        0     0     0     0     0     0     0     0     0
     Restricted DOCC        0     0     0     0     0     0     0     0     0
              Active        2     1     0     0     0     0     1     0     0
     Restricted UOCC        2     1     0     0     0     0     1     0     0
         Frozen UOCC        0     0     0     0     0     0     0     0     0
   ------------------------------------------------------------------------------

   ==> Setting up CI strings <==

    There are 2 alpha and 2 beta strings
    The CI space requires 2 (2.00E+00) determinants and 2 blocks

   ==> Setting up MCSCF integrals <==

  Using in-core PK algorithm.
   Calculation information:
      Number of atoms:                   2
      Number of AO shells:               4
      Number of primitives:              6
      Number of atomic orbitals:         4
      Number of basis functions:         4

      Integral cutoff                 1.00e-12
      Number of threads:                 1

  Performing in-core PK
  Using 110 doubles for integral storage.
  We computed 55 shell quartets total.
  Whereas there are 55 unique shell quartets.

  ==> DiskJK: Disk-Based J/K Matrices <==

    J tasked:                  Yes
    K tasked:                  Yes
    wK tasked:                  No
    Memory [MiB]:              400
    Schwarz Cutoff:          1E-12

    OpenMP threads:              1


   ==> Starting MCSCF iterations <==

        Iter         Total Energy       Delta E   Orb RMS    CI RMS  NCI NORB
   @MCSCF  1:     -1.037895653226   -4.5679e-02  6.28e-02  1.96e-16    1    1  Initial CI
   @MCSCF  2:     -1.048691090435   -1.0795e-02  3.39e-02  4.20e-16    1    1  TS
   @MCSCF  3:     -1.049618708906   -9.2762e-04  1.08e-02  1.68e-15    1    1  TS
   @MCSCF  4:     -1.049714603765   -9.5895e-05  3.37e-03  6.95e-16    1    1  TS, DIIS
   @MCSCF  5:     -1.049724560865   -9.9571e-06  1.07e-03  6.19e-16    1    1  TS, DIIS
   @MCSCF  6:     -1.049725647999   -1.0871e-06  2.71e-04  1.26e-16    1    1  TS, DIIS
   @MCSCF  7:     -1.049725707883   -5.9885e-08  1.08e-04  5.96e-16    1    1  TS, DIIS
   @MCSCF  8:     -1.049725718951   -1.1067e-08  1.53e-07  9.08e-16    1    1  TS, DIIS

          @MCSCF has converged!

   @MCSCF Final Energy:   -1.049725718950584

   Computing CI Semicanonical Orbitals
  ## F Evecs (Symmetry 0) ##
  Irrep: 1 Size: 0 x 0

	(empty)

  Irrep: 2 Size: 0 x 0

	(empty)

  Irrep: 3 Size: 0 x 0

	(empty)

  Irrep: 4 Size: 0 x 0

	(empty)

  Irrep: 5 Size: 0 x 0

	(empty)

  Irrep: 6 Size: 0 x 0

	(empty)

  Irrep: 7 Size: 0 x 0

	(empty)

  Irrep: 8 Size: 0 x 0

	(empty)

  ## F Evecs (Symmetry 0) ##
  Irrep: 1 Size: 1 x 1

                 1

    1     1.00000000000000



  Irrep: 2 Size: 0 x 0

	(empty)

  Irrep: 3 Size: 0 x 0

	(empty)

  Irrep: 4 Size: 0 x 0

	(empty)

  Irrep: 5 Size: 0 x 0

	(empty)

  Irrep: 6 Size: 1 x 1

                 1

    1     1.00000000000000



  Irrep: 7 Size: 0 x 0

	(empty)

  Irrep: 8 Size: 0 x 0

	(empty)

  ## F Evecs (Symmetry 0) ##
  Irrep: 1 Size: 1 x 1

                 1

    1     1.00000000000000



  Irrep: 2 Size: 0 x 0

	(empty)

  Irrep: 3 Size: 0 x 0

	(empty)

  Irrep: 4 Size: 0 x 0

	(empty)

  Irrep: 5 Size: 0 x 0

	(empty)

  Irrep: 6 Size: 1 x 1

                 1

    1     1.00000000000000



  Irrep: 7 Size: 0 x 0

	(empty)

  Irrep: 8 Size: 0 x 0

	(empty)


   ==> Energetics <==

    SCF energy =           -0.992217026405370
    Total MCSCF energy =   -1.049725718950584

   ==> MCSCF root 0 information <==

    MCSCF Root 0 energy =    -1.049725718950583

   Active Space Natural occupation numbers:

        Ag   1.799380       B1u   0.200620

   The 2 most important determinants:

    *   1    0.948520  (    0,    0)  1AgX 
    *   2   -0.316717  (    1,    1)  1B1uX 



Properties will be evaluated at   0.000000,   0.000000,   0.000000 [a0]

Properties computed using the CASSCF density matrix

  Nuclear Dipole Moment: [e a0]
     X:     0.0000      Y:     0.0000      Z:     0.0000

  Electronic Dipole Moment: [e a0]
     X:     0.0000      Y:     0.0000      Z:     0.0000

  Dipole Moment: [e a0]
     X:     0.0000      Y:     0.0000      Z:     0.0000     Total:     0.0000

  Dipole Moment: [D]
     X:     0.0000      Y:     0.0000      Z:     0.0000     Total:     0.0000

    CASSCF energy.....................................................PASSED

Scratch directory: /tmp/
   => Loading Basis Set <=

    Name: STO-3G
    Role: ORBITAL
    Keyword: MINAO_BASIS
    atoms 1-2 entry H          line    19 file /Users/fevange/Source/psi4/objdir-Debug/stage/share/psi4/basis/sto-3g.gbs 


  Forte
  ----------------------------------------------------------------------------
  A suite of quantum chemistry methods for strongly correlated electrons

    git branch: utils2 - git commit: d06386b0

  Developed by:
    Francesco A. Evangelista, Chenyang Li, Kevin P. Hannon,
    Jeffrey B. Schriber, Tianyuan Zhang, Chenxi Cai,
    Nan He, Nicholas Stair, Shuhe Wang, Renke Huang
  ----------------------------------------------------------------------------

  Size of Determinant class: 256 bits
  Read options for space FROZEN_DOCC
  Read options for space RESTRICTED_DOCC
  Read options for space ACTIVE

  ==> MO Space Information <==

  -------------------------------------------------------------------------
                       Ag   B1g   B2g   B3g    Au   B1u   B2u   B3u   Sum
  -------------------------------------------------------------------------
    FROZEN_DOCC         0     0     0     0     0     0     0     0     0
    RESTRICTED_DOCC     0     0     0     0     0     0     0     0     0
    ACTIVE              1     0     0     0     0     1     0     0     2
    RESTRICTED_UOCC     1     0     0     0     0     1     0     0     2
    FROZEN_UOCC         0     0     0     0     0     0     0     0     0
    Total               2     0     0     0     0     2     0     0     4
  -------------------------------------------------------------------------

  ==> Integral Transformation <==

  Number of molecular orbitals:                     4
  Number of correlated molecular orbitals:          4
  Number of frozen occupied orbitals:               0
  Number of frozen unoccupied orbitals:             0
  Two-electron integral type:              Conventional


  Overall Conventional Integrals timings

	Presorting SO-basis two-electron integrals.
	Sorting File: SO Ints (nn|nn) nbuckets = 1
	Transforming the one-electron integrals and constructing Fock matrices
	Starting first half-transformation.
	Sorting half-transformed integrals.
	First half integral transformation complete.
	Starting second half-transformation.
	Two-electron integral transformation complete.

  Integral transformation done. 0.01069757 s
  Reading the two-electron integrals from disk
  Size of two-electron integrals:   0.000006 GB
  Timing for freezing core and virtual orbitals:              0.000 s.
  Conventional integrals take 0.04521680 s

  ==> Summary of Active Space Solver Input <==

    Irrep.  Multi.(2ms)      N
    --------------------------
       Ag      1  (  0)      1
    --------------------------
    N: number of roots
    ms: spin z component
    Total number of roots:   1
    --------------------------


              ---------------------------------------------------
                Complete Active Space Configuration Interaction
                                  Chenyang Li
              ---------------------------------------------------


  ==> Input Summary <==

    No. a electrons in active      =     1
    No. b electrons in active      =     1
    multiplicity                   =     1
    spin ms (2 * Sz)               =     0

  ==> Orbital Spaces <==

    TOTAL MO                      [    2     0     0     0     0     2     0     0 ]
    FROZEN CORE                   [    0     0     0     0     0     0     0     0 ]
    FROZEN VIRTUAL                [    0     0     0     0     0     0     0     0 ]
    CORRELATED MO                 [    2     0     0     0     0     2     0     0 ]
    CORE                          [    0     0     0     0     0     0     0     0 ]
    ACTIVE                        [    1     0     0     0     0     1     0     0 ]
    VIRTUAL                       [    1     0     0     0     0     1     0     0 ]
  Forming alpha and beta strings      ...  Done. Timing        0.000065 s
  Forming determinants                ...  Done. Timing        0.000058 s

  ==> Determinants Summary <==

    number of alpha active electrons         =     1
    number of beta active electrons          =     1
    root symmetry (zero based)               =     0
    number of determinants                   =     2

  Diagonalizing Hamiltonian           ...

  ==> Computing Coupling Lists <==
  --------------------------------
        α          0.000048 s
        β          0.000014 s
        αα         0.000016 s
        ββ         0.000004 s
        αβ         0.000022 s
  --------------------------------

  Davidson-Liu solver algorithm using SigmaVectorSparseList sigma algorithm
  Found 2 roots with 2S+1 = 1 *  Done. Timing        0.000816 s

  * * * * * * * * * * * * * * * * *
  *  CI Vectors & Configurations  *
  * * * * * * * * * * * * * * * * *

  ==> Root No. 0 <==

    2 0         -0.9485199716
    0 2          0.3167173242

    Total Energy:   -1.049725718950583



  ==> Permanent Dipole Moments (Ag) <==

  Only print nonzero (> 1.0e-5) elements.


  ==> Energy Summary <==

    Multi.(2ms)  Irrep.  No.               Energy
    ---------------------------------------------
       1  (  0)    Ag     0       -1.049725718951
    ---------------------------------------------
 Computing  1RDMs (0 Singlet Ag - 0 Singlet Ag) ... Done. Timing        0.000321 s
 Computing  2RDMs (0 Singlet Ag - 0 Singlet Ag) ... Done. Timing        0.000612 s
 Computing  3RDMs (0 Singlet Ag - 0 Singlet Ag) ... Done. Timing        0.000237 s

       -----------------------------------------------------------------
                            Semi-Canonical Orbitals
         Chenyang Li, Jeffrey B. Schriber and Francesco A. Evangelista
       -----------------------------------------------------------------

  Took 0.000030 s to build Fock matrix

  ==> Checking Fock Matrix Diagonal Blocks <==

    Off-Diag. Elements       Max           2-Norm
    ------------------------------------------------
    Fa actv              0.0000000000   0.0000000000
    Fb actv              0.0000000000   0.0000000000
    ------------------------------------------------
    Fa core              0.0000000000   0.0000000000
    Fb core              0.0000000000   0.0000000000
    ------------------------------------------------
    Fa virt              0.0000000000   0.0000000000
    Fb virt              0.0000000000   0.0000000000
    ------------------------------------------------
  Orbitals are already semicanonicalized.

      -------------------------------------------------------------------
        SO-Based Multireference Driven Similarity Renormalization Group
                                  Chenyang Li
      -------------------------------------------------------------------

    Norm of L2:   0.95783835.
    Norm of L3:   0.86570768.

  ==> Calculation Information <==

    ntamp                                           15
    flow parameter                           5.000e-01
    taylor expansion threshold               1.000e-03
    intruder_tamp                            1.000e-01
    int_type                                CONVENTIONAL
    source operator                           STANDARD

  ==> Build Initial Amplitude from DSRG-MRPT2 <==

    Computing T2 amplitudes     ...      Done. Timing      0.002 s
    Computing T1 amplitudes     ...      Done. Timing      0.000 s

  ==> Start Iterations <==

    --------------------------------------------------------------------------------------------------
           Cycle     Energy (a.u.)     Delta(E)  |Hbar1|_N  |Hbar2|_N    |T1|    |T2|  max(T1) max(T2)
    --------------------------------------------------------------------------------------------------
      @CT    0      -1.050193937054  -4.682e-04  5.730e-01  2.166e+00  0.1223  0.3809 -0.0845  0.0517
      @CT    1      -1.049711141405   4.828e-04  5.728e-01  2.192e+00  0.1140  0.3416 -0.0786  0.0482
      @CT    2      -1.049878361310  -1.672e-04  5.728e-01  2.184e+00  0.1158  0.3515 -0.0802 -0.0497
      @CT    3      -1.049823754541   5.461e-05  5.728e-01  2.185e+00  0.1155  0.3499 -0.0800 -0.0496
      @CT    4      -1.049829175052  -5.421e-06  5.728e-01  2.185e+00  0.1156  0.3504 -0.0801  0.0497
      @CT    5      -1.049825578124   3.597e-06  5.728e-01  2.185e+00  0.1156  0.3503 -0.0801 -0.0497
      @CT    6      -1.049825733820  -1.557e-07  5.728e-01  2.185e+00  0.1156  0.3503 -0.0801 -0.0497
      @CT    7      -1.049825489045   2.448e-07  5.728e-01  2.185e+00  0.1156  0.3503 -0.0801  0.0497
      @CT    8      -1.049825487798   1.246e-09  5.728e-01  2.185e+00  0.1156  0.3503 -0.0801 -0.0497
    --------------------------------------------------------------------------------------------------


    MR-DSRG(2) correlation energy      =        -0.000099768847553
  * MR-DSRG(2) total energy            =        -1.049825487798136


  Time to prepare integrals:        0.055 seconds
  Time to run job          :       44.516 seconds
  Total                    :       44.516 seconds    MR-LDSRG(2) energy spin-orbital York..............................PASSED

    Psi4 stopped on: Monday, 27 April 2020 10:47AM
    Psi4 wall time for execution: 0:00:45.78

*** Psi4 exiting successfully. Buy a developer a beer!
