    -----------------------------------------------------------------------
          Psi4: An Open-Source Ab Initio Electronic Structure Package
                              Psi4 0.3.71 Driver

                          Git: Rev {master} 47c6ad3 dirty

    J. M. Turney, A. C. Simmonett, R. M. Parrish, E. G. Hohenstein,
    F. A. Evangelista, J. T. Fermann, B. J. Mintz, L. A. Burns, J. J. Wilke,
    M. L. Abrams, N. J. Russ, M. L. Leininger, C. L. Janssen, E. T. Seidl,
    W. D. Allen, H. F. Schaefer, R. A. King, E. F. Valeev, C. D. Sherrill,
    and T. D. Crawford, WIREs Comput. Mol. Sci. 2, 556-565 (2012)
    (doi: 10.1002/wcms.93)

                         Additional Contributions by
    A. E. DePrince, M. Saitow, U. Bozkaya, A. Yu. Sokolov
    -----------------------------------------------------------------------


    Psi4 started on: Thu Sep 17 14:42:42 2015

    Process ID:  22868
    PSI4DATADIR: /Users/ChenyangLi/src/psi4private/lib
    Memory level set to 256.000 MB

  ==> Input File <==

--------------------------------------------------------------------------
#! Generated using commit GITCOMMIT

import forte

memory 500 mb
refmcscf =   -226.575081996603
refdsrgpt2 = -226.883026728662060 

molecule mbenzyne{
  0 1
   C   0.0000000000  -2.5451795941   0.0000000000
   C   0.0000000000   2.5451795941   0.0000000000
   C  -2.2828001669  -1.3508352528   0.0000000000
   C   2.2828001669  -1.3508352528   0.0000000000
   C   2.2828001669   1.3508352528   0.0000000000
   C  -2.2828001669   1.3508352528   0.0000000000
   H  -4.0782187459  -2.3208602146   0.0000000000
   H   4.0782187459  -2.3208602146   0.0000000000
   H   4.0782187459   2.3208602146   0.0000000000
   H  -4.0782187459   2.3208602146   0.0000000000

  units bohr
}

set globals{
   basis                  sto-3g
   reference              twocon
   scf_type               pk
   d_convergence          10
   e_convergence          12
}

set mcscf{
   docc                   [5, 3, 1, 1, 0, 1, 4, 4]
   socc                   [1, 0, 0, 0, 0, 0, 1, 0]
   maxiter                500
}

set forte{
   job_type               dsrg-mrpt2
   frozen_docc            [2, 1, 0, 0, 0, 0, 2, 1]
   restricted_docc        [3, 2, 1, 1, 0, 1, 2, 3]
   active                 [1, 0, 0, 0, 0, 0, 1, 0]
   root_sym               0
   nroot                  1
   dsrg_s                 0.5
}

scf = energy('mcscf')
compare_values(refmcscf,get_variable("CURRENT ENERGY"),10,"MCSCF energy")

energy('forte')
compare_values(refdsrgpt2,get_variable("CURRENT ENERGY"),10,"DSRG-MRPT2 energy")
--------------------------------------------------------------------------
/Users/ChenyangLi/src/forte/forte.so loaded.

  Memory set to 500.000 MiB by Python script.

         ------------------------------------------
           MCSCF: a self-consistent field program
            written by Francesco A. Evangelista
         ------------------------------------------ MINTS: Wrapper to libmints.
   by Justin Turney

   Calculation information:
      Number of atoms:                  10
      Number of AO shells:              22
      Number of SO shells:               7
      Number of primitives:             66
      Number of atomic orbitals:        34
      Number of basis functions:        34

      Number of irreps:                  8
      Integral cutoff                 1.00e-12
      Number of functions per irrep: [   8    6    1    2    1    2    8    6 ]

 OEINTS: Overlap, kinetic, potential, dipole, and quadrupole integrals
         stored in file 35.

      Computing two-electron integrals...done
      Computed 26788 non-zero two-electron integrals.
        Stored in file 33.



  MOs per irrep:                  Ag  B1g  B2g  B3g  Au  B1u  B2u  B3u Total
  ----------------------------------------------------------------------------
  Total                            8    6    1    2    1    2    8    6    34
  Doubly Occupied                  5    3    1    1    0    1    4    4    19
  Active/Singly Occupied           1    0    0    0    0    0    1    0     2
  ----------------------------------------------------------------------------

  Running an SCF calculation
  TWOCON MOs = [5 (Ag),24 (B2u)]

  Generated 595 pairs
  Distributed as [122 Ag][100 B1g][40 B2g][44 B3g][40 Au][44 B1u][105 B2u][100 B3u]
  batch   0 pq = [       0,     122] index = [               0,            7503]

  Allocated the PK matrix (7503 elements) 
  Allocated the  K matrix (7503 elements) 
  Reading the two-electron integrals to form PK and K ... 
  batch   0 ... done.


  =========================================================================================
         Cycle          Energy               D(Energy)            D(Density)            DIIS
  ===========================================================================================
  Setting level shift to 0.000 S
  @SCF    0     -212.603608947831    -212.603608947831       0.212818981043
    ci      = [ 0.00000000, 0.00000000]
    ci_grad = [ 0.00000000, 0.00000000]
  Setting level shift to 0.000 S
  @SCF    1     -225.053669770607     -12.450060822776       0.210813347428
    ci      = [ 0.00000000, 0.00000000]
    ci_grad = [ 0.00000000, 0.00000000]
  Setting level shift to 0.000 S
  @SCF    2     -226.071009337475      -1.017339566868       0.056641135253
    ci      = [ 0.00000000, 0.00000000]
    ci_grad = [ 0.00000000, 0.00000000]
  Setting level shift to 0.000 S
  @SCF    3     -226.474885852571      -0.403876515095       0.028998284532
    ci      = [ 0.00000000, 0.00000000]
    ci_grad = [ 0.00000000, 0.00000000]
  Setting level shift to 0.000 S
  @SCF    4     -226.322780627168       0.152105225402       0.012997058062
    ci      = [ 0.00000000, 0.00000000]
    ci_grad = [ 0.00000000, 0.00000000]
  Setting level shift to 0.000 S
  @SCF    5     -226.454906791839      -0.132126164671       0.010853125465
    ci      = [ 0.00000000, 0.00000000]
    ci_grad = [ 0.00000000, 0.00000000]
  Setting level shift to 0.000 S
  @SCF    6     -226.349585971471       0.105320820368       0.009470330996
    ci      = [ 0.00000000, 0.00000000]
    ci_grad = [ 0.00000000, 0.00000000]
  Setting level shift to 0.000 S/E
  @SCF    7     -226.451060015785      -0.101474044314       0.008596141425
    ci      = [ 0.00000000, 0.00000000]
    ci_grad = [ 0.00000000, 0.00000000]
  Setting level shift to 0.000 S/E
  @SCF    8     -226.416907694590       0.034152321195       0.004102613904
    ci      = [ 0.00000000, 0.00000000]
    ci_grad = [ 0.00000000, 0.00000000]
  Setting level shift to 0.000 S/E
  @SCF    9     -226.416958294089      -0.000050599499       0.000125724627
    ci      = [ 0.00000000, 0.00000000]
    ci_grad = [ 0.00000000, 0.00000000]
  Setting level shift to 0.000 S/E
  @SCF   10     -226.417249778531      -0.000291484442       0.000041145215
    ci      = [ 0.00000000, 0.00000000]
    ci_grad = [ 0.00000000, 0.00000000]
  Setting level shift to 0.000 S/E
  @SCF   11     -226.417183194337       0.000066584193       0.000012644740
    ci      = [ 0.00000000, 0.00000000]
    ci_grad = [ 0.00000000, 0.00000000]
  Setting level shift to 0.000 S/E
  @SCF   12     -226.417192505496      -0.000009311159       0.000002788668
    ci      = [-0.61289446, 0.79016478]
    ci_grad = [ 0.00000000, 0.00000000]
  Setting level shift to 0.000 S/E
  @SCF   13     -226.417190578569       0.000001926927       0.000001751323
    ci      = [-0.61289100, 0.79016747]
    ci_grad = [-0.00000258, 0.00000044]
  Setting level shift to 0.000 S/E
  @SCF   14     -226.417191354795      -0.000000776226       0.000000062112
    ci      = [-0.61289107, 0.79016741]
    ci_grad = [ 0.00000051,-0.00000059]
  Setting level shift to 0.000 S/E
  @SCF   15     -226.417197001042      -0.000005646247       0.000000656865
    ci      = [-0.61289143, 0.79016713]
    ci_grad = [ 0.00000360,-0.00000435]
  Setting level shift to 0.000 S/E
  @SCF   16     -226.417207881065      -0.000010880024       0.000001205492
    ci      = [-0.61289143, 0.79016713]
    ci_grad = [ 0.00000920,-0.00000663]
  Setting level shift to 0.000 S/E
  @SCF   17     -226.417200209867       0.000007671198       0.000001265111
    ci      = [-0.61289208, 0.79016663]
    ci_grad = [-0.00000444, 0.00000627]
  Setting level shift to 0.000 S/E
  @SCF   18     -226.417208885007      -0.000008675140       0.000002733089
    ci      = [-0.61290864, 0.79015378]
    ci_grad = [ 0.00001201,-0.00000166]
  Setting level shift to 0.000 S/E
  @SCF   19     -226.417209143437      -0.000000258429       0.000001420874
    ci      = [-0.61289889, 0.79016134]
    ci_grad = [-0.00000378,-0.00000326]
  Setting level shift to 0.000 S/E
  @SCF   20     -226.571245874410      -0.154036730973       0.021508894795
    ci      = [-0.61289889, 0.79016134]
    ci_grad = [ 0.11068116,-0.10793352]
  Setting level shift to 0.000 S/E
  @SCF   21     -226.574790168328      -0.003544293919       0.004311234132
    ci      = [-0.61289889, 0.79016134]
    ci_grad = [ 0.00906621, 0.00275133]
  Setting level shift to 0.000 S/E
  @SCF   22     -226.575042008531      -0.000251840203       0.000630850682
    ci      = [-0.61289889, 0.79016134]
    ci_grad = [ 0.00840263, 0.00649000]
  Setting level shift to 0.000 S/E
  @SCF   23     -226.575045024202      -0.000003015671       0.000158276593
    ci      = [-0.62958955, 0.77692793]
    ci_grad = [ 0.00812299, 0.00657865]
  Setting level shift to 0.000 S/E
  @SCF   24     -226.575045805334      -0.000000781132       0.000036761532
    ci      = [-0.62959485, 0.77692363]
    ci_grad = [ 0.00000310, 0.00000150]
  Setting level shift to 0.000 S/E
  @SCF   25     -226.575046225377      -0.000000420043       0.000001876106
    ci      = [-0.62961034, 0.77691108]
    ci_grad = [ 0.00000787, 0.00000583]
  Setting level shift to 0.000 S/E
  @SCF   26     -226.575055952810      -0.000009727433       0.000047552067
    ci      = [-0.62999823, 0.77659657]
    ci_grad = [ 0.00019658, 0.00014695]
  Setting level shift to 0.000 S/E
  @SCF   27     -226.575072774703      -0.000016821893       0.000112230030
    ci      = [-0.62999823, 0.77659657]
    ci_grad = [ 0.00045924, 0.00035177]
  Setting level shift to 0.000 S/E
  @SCF   28     -226.575081711522      -0.000008936820       0.000135799655
    ci      = [-0.63201848, 0.77495331]
    ci_grad = [ 0.00099875, 0.00080300]
  Setting level shift to 0.000 S/E
  @SCF   29     -226.575081416450       0.000000295072       0.000012370450
    ci      = [-0.63191598, 0.77503690]
    ci_grad = [-0.00005063,-0.00004090]
  Setting level shift to 0.000 S/E
  @SCF   30     -226.575081977935      -0.000000561485       0.000033709844
    ci      = [-0.63219256, 0.77481131]
    ci_grad = [ 0.00013647, 0.00011062]
  Setting level shift to 0.000 S/E
  @SCF   31     -226.575081986436      -0.000000008501       0.000001910928
    ci      = [-0.63220835, 0.77479843]
    ci_grad = [ 0.00000778, 0.00000634]
  Setting level shift to 0.000 S/E
  @SCF   32     -226.575081996086      -0.000000009650       0.000004200676
    ci      = [-0.63224291, 0.77477023]
    ci_grad = [ 0.00001702, 0.00001387]
  Setting level shift to 0.000 S/E
  @SCF   33     -226.575081996443      -0.000000000357       0.000000544448
    ci      = [-0.63224738, 0.77476658]
    ci_grad = [ 0.00000220, 0.00000179]
  Setting level shift to 0.000 S/E
  @SCF   34     -226.575081996589      -0.000000000146       0.000000483618
    ci      = [-0.63225135, 0.77476334]
    ci_grad = [ 0.00000196, 0.00000160]
  Setting level shift to 0.000 S/E
  @SCF   35     -226.575081996599      -0.000000000010       0.000000100517
    ci      = [-0.63225217, 0.77476267]
    ci_grad = [ 0.00000041, 0.00000033]
  Setting level shift to 0.000 S/E
  @SCF   36     -226.575081996603      -0.000000000003       0.000000090057
    ci      = [-0.63225291, 0.77476206]
    ci_grad = [ 0.00000036, 0.00000030]
  Setting level shift to 0.000 S/E
  @SCF   37     -226.575081996602       0.000000000000       0.000000008697
    ci      = [-0.63225284, 0.77476212]
    ci_grad = [-0.00000004,-0.00000003]
  Setting level shift to 0.000 S/E
  @SCF   38     -226.575081996603      -0.000000000000       0.000000009636
    ci      = [-0.63225292, 0.77476206]
    ci_grad = [ 0.00000004, 0.00000003]
  Setting level shift to 0.000 S/E
  @SCF   39     -226.575081996602       0.000000000000       0.000000004088
    ci      = [-0.63225296, 0.77476203]
    ci_grad = [ 0.00000002, 0.00000001]
  Setting level shift to 0.000 S/E
  @SCF   40     -226.575081996603      -0.000000000000       0.000000000222
    ci      = [-0.63225296, 0.77476203]
    ci_grad = [ 0.00000000, 0.00000000]
  Setting level shift to 0.000 S/E
  @SCF   41     -226.575081996603       0.000000000000       0.000000000674
    ci      = [-0.63225296, 0.77476202]
    ci_grad = [ 0.00000000, 0.00000000]
  Setting level shift to 0.000 S/E
  @SCF   42     -226.575081996602       0.000000000000       0.000000000183
    ci      = [-0.63225296, 0.77476202]
    ci_grad = [ 0.00000000, 0.00000000]
  Setting level shift to 0.000 S/E
  @SCF   43     -226.575081996602      -0.000000000000       0.000000000089
    ci      = [-0.63225296, 0.77476202]
    ci_grad = [ 0.00000000, 0.00000000]
  Setting level shift to 0.000 S/E
  @SCF   44     -226.575081996603      -0.000000000000       0.000000000058
    ci      = [-0.63225297, 0.77476202]
    ci_grad = [ 0.00000000, 0.00000000]
  Setting level shift to 0.000 S/E
  @SCF   45     -226.575081996603      -0.000000000000       0.000000000005
    ci      = [-0.63225297, 0.77476202]
    ci_grad = [-0.00000000,-0.00000000]
  =========================================================================================

      * SCF total energy   =    -226.575081996603


      CI coefficients  = [-0.632252965, 0.774762020]

  End of SCF
  MOs orthonormality check passed.

  Orbitals are canonicalized as:
  inactive (docc + uocc) : Fock(core)
  active   (actv)        : Fock(core)

  =========================================================================
  Eigenvalues (Eh)
  -------------------------------------------------------------------------
  Doubly occupied orbitals
      1    -11.035269 B3u      2    -11.035166  Ag      3    -11.035129 B2u
      4    -11.035092 B1g      5    -11.006182 B2u      6    -11.006037  Ag
      7     -1.093266  Ag      8     -0.957444 B3u      9     -0.932131 B2u
     10     -0.775410 B1g     11     -0.730813  Ag     12     -0.584243 B2u
     13     -0.579475  Ag     14     -0.563265 B3u     15     -0.529046 B3u
     16     -0.462169 B1u     17     -0.456729 B1g     18     -0.285586 B3g
     19     -0.280039 B2g
  Active orbitals
     20     -0.097833 B2u     21     -0.013616  Ag
  Unoccupied orbitals
     22      0.245021  Au     23      0.302774 B1u     24      0.515123 B3g
     25      0.640745  Ag     26      0.667088 B3u     27      0.684886 B2u
     28      0.733596 B1g     29      0.832576 B2u     30      0.858416  Ag
     31      0.858871 B1g     32      0.962029 B3u     33      1.129600 B1g
     34      1.138352 B2u
  =========================================================================


  MCSCF Execution Completed.


*** tstop() called on dhcp189-188.emerson.emory.edu at Thu Sep 17 14:42:43 2015
Module time:
	user time   =       0.43 seconds =       0.01 minutes
	system time =       0.08 seconds =       0.00 minutes
	total time  = 1442515363 seconds = 24041922.72 minutes
Total time:
	user time   =       0.43 seconds =       0.01 minutes
	system time =       0.08 seconds =       0.00 minutes
	total time  = 1442515363 seconds = 24041922.72 minutes
Reading options from the FORTE block
Calling plugin /Users/ChenyangLi/src/forte/forte.so.


  ==> MO Space Information <==

  Read options for space FROZEN_DOCC
  Read options for space RESTRICTED_DOCC
  Read options for space ACTIVE
 Removing orbital 0
 Removing orbital 1
 Removing orbital 8
 Removing orbital 20
 Removing orbital 21
 Removing orbital 28
  -------------------------------------------------------------------------
                       Ag   B1g   B2g   B3g    Au   B1u   B2u   B3u   Sum
  -------------------------------------------------------------------------
    FROZEN_DOCC         2     1     0     0     0     0     2     1     6
    RESTRICTED_DOCC     3     2     1     1     0     1     2     3    13
    ACTIVE              1     0     0     0     0     0     1     0     2
    RESTRICTED_UOCC     2     3     0     1     1     1     3     2    13
    FROZEN_UOCC         0     0     0     0     0     0     0     0     0
    Total               8     6     1     2     1     2     8     6    34
  -------------------------------------------------------------------------

  ==> Integral Transformation <==

  Number of molecular orbitals:               34
  Number of correlated molecular orbitals:    28
  Number of frozen occupied orbitals:          6
  Number of frozen unoccupied orbitals:        0


 Overall Conventional Integrals timings	Presorting SO-basis two-electron integrals.
	Sorting File: SO Ints (nn|nn) nbuckets = 1
	Transforming the one-electron integrals and constructing Fock matrices
	Starting first half-transformation.
	Sorting half-transformed integrals.
	First half integral transformation complete.
	Starting second half-transformation.
	Two-electron integral transformation complete.

  Integral transformation done. 0.02694100 s
  Reading the two-electron integrals from disk
  Size of two-electron integrals:   0.029869 GB
  Frozen-core energy           -287.155405698905 a.u.
  Freezing MO 0
  Freezing MO 1
  Freezing MO 8
  Freezing MO 20
  Freezing MO 21
  Freezing MO 28
  Resorting integrals after freezing core.
 Conventional integrals take 0.06017900 s

                -----------------------------------------------
                  String-based Full Configuration Interaction
                          by Francesco A. Evangelista
                -----------------------------------------------

  Number of electrons: 40
  Charge: 0
  Multiplicity: 1
  M_s: 0

  ==> String Lists <==

  Number of alpha electrons     = 1
  Number of beta electrons      = 1
  Number of alpha strings       = 2
  Number of beta strings        = 2
  Timing for strings        =      0.000 s
  Timing for NN strings     =      0.000 s
  Timing for VO strings     =      0.000 s
  Timing for OO strings     =      0.000 s
  Timing for Knowles-Handy  =      0.000 s
  Timing for VVOO strings   =      0.000 s
  Timing for VOVO strings   =      0.000 s
  Timing for 1-hole strings =      0.000 s
  Timing for 2-hole strings =      0.000 s
  Timing for 3-hole strings =      0.000 s
  Total timing              =      0.000 s

  ==> FCI Solver <==

  Number of determinants    = 2
  Allocating memory for the Hamiltonian algorithm. Size: 2 x 1 x 1.   Memory: 0.000000 GB
  Allocating temporary CI vectors
  Timing for Hdiag          =      0.000 s

  ==> FCI Initial Guess <==

  ---------------------------------------------
    Root            Energy     <S^2>   Spin
  ---------------------------------------------
      0     -226.575081996602  0.000  singlet
      1     -226.082859834350  0.000  singlet
  ---------------------------------------------
  Timing for initial guess  =      0.000 s


  ==> Diagonalizing Hamiltonian <==

  ----------------------------------------
    Iter.      Avg. Energy       Delta_E
  ----------------------------------------
      0     -226.575081996603  -2.266e+02
      1     -226.575081996603  -1.137e-13
      2     -226.575081996603  +1.137e-13
      3     -226.575081996603  +0.000e+00
      4     -226.575081996603  +0.000e+00
      5     -226.575081996603  +0.000e+00
      6     -226.575081996603  +0.000e+00
      7     -226.575081996603  +0.000e+00
      8     -226.575081996603  +0.000e+00
      9     -226.575081996603  +0.000e+00
     10     -226.575081996603  +0.000e+00
     11     -226.575081996603  +0.000e+00
     12     -226.575081996603  +0.000e+00
     13     -226.575081996603  +0.000e+00
     14     -226.575081996603  +0.000e+00
     15     -226.575081996603  +0.000e+00
     16     -226.575081996603  +0.000e+00
     17     -226.575081996603  +0.000e+00
     18     -226.575081996603  +0.000e+00
     19     -226.575081996603  +0.000e+00
     20     -226.575081996603  +0.000e+00
     21     -226.575081996603  +0.000e+00
     22     -226.575081996603  +0.000e+00
     23     -226.575081996603  +0.000e+00
     24     -226.575081996603  +0.000e+00
     25     -226.575081996603  +0.000e+00
     26     -226.575081996603  +0.000e+00
     27     -226.575081996603  +0.000e+00
     28     -226.575081996603  +0.000e+00
     29     -226.575081996603  +0.000e+00
  ----------------------------------------
  The Davidson-Liu algorithm converged in 0 iterations.
  Time spent diagonalizing H: 0.000000 s

  ==> Root No. 0 <==
    Total Energy:      -226.575081996602506

  ==> RDMs for Root No. 0 <==
    Timing for 1-RDM: 0.000 s
    Timing for 2-RDM: 0.000 s
    Timing for 3-RDM: 0.000 s

                          ----------------------------
                            Semi-Canonical Orbitals
                            Francesco A. Evangelista
                          ----------------------------


  ==> Integral transformation <==
	Presorting SO-basis two-electron integrals.
	Sorting File: SO Ints (nn|nn) nbuckets = 1
	Transforming the one-electron integrals and constructing Fock matrices
	Starting first half-transformation.
	Sorting half-transformed integrals.
	First half integral transformation complete.
	Starting second half-transformation.
	Two-electron integral transformation complete.

  Integral transformation done. 0.02210700 s
  Reading the two-electron integrals from disk
  Size of two-electron integrals:   0.029869 GB
  Frozen-core energy           -287.155405698905 a.u.
  Freezing MO 0
  Freezing MO 1
  Freezing MO 8
  Freezing MO 20
  Freezing MO 21
  Freezing MO 28
  Resorting integrals after freezing core.

                -----------------------------------------------
                  String-based Full Configuration Interaction
                          by Francesco A. Evangelista
                -----------------------------------------------

  Number of electrons: 40
  Charge: 0
  Multiplicity: 1
  M_s: 0

  ==> String Lists <==

  Number of alpha electrons     = 1
  Number of beta electrons      = 1
  Number of alpha strings       = 2
  Number of beta strings        = 2
  Timing for strings        =      0.000 s
  Timing for NN strings     =      0.000 s
  Timing for VO strings     =      0.000 s
  Timing for OO strings     =      0.000 s
  Timing for Knowles-Handy  =      0.000 s
  Timing for VVOO strings   =      0.000 s
  Timing for VOVO strings   =      0.000 s
  Timing for 1-hole strings =      0.000 s
  Timing for 2-hole strings =      0.000 s
  Timing for 3-hole strings =      0.000 s
  Total timing              =      0.000 s

  ==> FCI Solver <==

  Number of determinants    = 2
  Allocating memory for the Hamiltonian algorithm. Size: 2 x 1 x 1.   Memory: 0.000000 GB
  Allocating temporary CI vectors
  Timing for Hdiag          =      0.000 s

  ==> FCI Initial Guess <==

  ---------------------------------------------
    Root            Energy     <S^2>   Spin
  ---------------------------------------------
      0     -226.575081996603  0.000  singlet
      1     -226.082859834350  0.000  singlet
  ---------------------------------------------
  Timing for initial guess  =      0.000 s


  ==> Diagonalizing Hamiltonian <==

  ----------------------------------------
    Iter.      Avg. Energy       Delta_E
  ----------------------------------------
      0     -226.575081996603  -2.266e+02
      1     -226.575081996603  +0.000e+00
      2     -226.575081996603  +0.000e+00
      3     -226.575081996603  +0.000e+00
      4     -226.575081996603  +0.000e+00
      5     -226.575081996603  +0.000e+00
      6     -226.575081996603  +0.000e+00
      7     -226.575081996603  +0.000e+00
      8     -226.575081996603  +0.000e+00
      9     -226.575081996603  +0.000e+00
     10     -226.575081996603  +0.000e+00
     11     -226.575081996603  +0.000e+00
     12     -226.575081996603  +0.000e+00
     13     -226.575081996603  +0.000e+00
     14     -226.575081996603  +0.000e+00
     15     -226.575081996603  +0.000e+00
     16     -226.575081996603  +0.000e+00
     17     -226.575081996603  +0.000e+00
     18     -226.575081996603  +0.000e+00
     19     -226.575081996603  +0.000e+00
     20     -226.575081996603  +0.000e+00
     21     -226.575081996603  +0.000e+00
     22     -226.575081996603  +0.000e+00
     23     -226.575081996603  +0.000e+00
     24     -226.575081996603  +0.000e+00
     25     -226.575081996603  +0.000e+00
     26     -226.575081996603  +0.000e+00
     27     -226.575081996603  +0.000e+00
     28     -226.575081996603  +0.000e+00
     29     -226.575081996603  +0.000e+00
  ----------------------------------------
  The Davidson-Liu algorithm converged in 0 iterations.
  Time spent diagonalizing H: 0.000000 s

  ==> Root No. 0 <==
    Total Energy:      -226.575081996602734

  ==> RDMs for Root No. 0 <==
    Timing for 1-RDM: 0.000 s
    Timing for 2-RDM: 0.000 s
    Timing for 3-RDM: 0.000 s

	  ---------------------------------------------------------
	      Driven Similarity Renormalization Group MBPT2
	  ---------------------------------------------------------

  ==> Calculation Information <==

    ntamp                                           15
    flow parameter                           5.000e-01
    taylor expansion threshold               1.000e-03
    intruder_tamp                            1.000e-01
    int_type                                CONVENTIONAL
    source operator                           STANDARD

  ==> Computing DSRG-MRPT2 ... <==

    Computing T2 amplitudes                  ...  Done. Timing        0.032566 s
    Computing T1 amplitudes                  ...  Done. Timing        0.003225 s
    Renormalizing two-electron integrals     ...  Done. Timing        0.029573 s
    Renormalizing Fock matrix elements       ...  Done. Timing        0.005061 s
    Computing <[F, T1]>                      ...  Done. Timing        0.001755 s
    Computing <[F, T2]>                      ...  Done. Timing        0.003523 s
    Computing <[V, T1]>                      ...  Done. Timing        0.009009 s
    Computing <[V, T2]> (C_2)^4              ...  Done. Timing        0.051626 s
    Computing <[V, T2]> C_4 (C_2)^2 HH       ...  Done. Timing        0.008747 s
    Computing <[V, T2]> C_4 (C_2)^2 PP       ...  Done. Timing        0.008779 s
    Computing <[V, T2]> C_4 (C_2)^2 PH       ...  Done. Timing        0.038914 s
    Computing <[V, T2]> C_6 C_2              ...  Done. Timing        0.031845 s

  ==> Excitation Amplitudes Summary <==

    Active Indices:    3   19 
    Largest T1 amplitudes for spin case A:
       i       a                  i       a                  i       a               
    --------------------------------------------------------------------------------
    [  2       3    ] 0.014696 [  3       5    ]-0.014599 [ 17      19    ] 0.012636 
    [ 19      22    ]-0.010435 [ 19      21    ]-0.009613 [  3       4    ] 0.008539 
    [  1       3    ]-0.005335 [  0       3    ] 0.003949 [ 19      20    ]-0.002495 
    [ 18      19    ] 0.001761 [  1       5    ] 0.000000 [ 12      13    ] 0.000000 
    [  7      10    ]-0.000000 [ 15      16    ]-0.000000 [ 24      27    ] 0.000000 
    --------------------------------------------------------------------------------
    Norm of T1A vector: (nonzero elements: 36)                    0.030271918151507.
    --------------------------------------------------------------------------------
    Largest T1 amplitudes for spin case B:
       _       _                  _       _                  _       _               
       i       a                  i       a                  i       a               
    --------------------------------------------------------------------------------
    [  2       3    ] 0.014696 [  3       5    ]-0.014599 [ 17      19    ] 0.012636 
    [ 19      22    ]-0.010435 [ 19      21    ]-0.009613 [  3       4    ] 0.008539 
    [  1       3    ]-0.005335 [  0       3    ] 0.003949 [ 19      20    ]-0.002495 
    [ 18      19    ] 0.001761 [  1       5    ] 0.000000 [ 12      13    ] 0.000000 
    [  7      10    ]-0.000000 [ 15      16    ]-0.000000 [ 24      27    ] 0.000000 
    --------------------------------------------------------------------------------
    Norm of T1B vector: (nonzero elements: 36)                    0.030271918151507.
    --------------------------------------------------------------------------------
    Largest T2 amplitudes for spin case AA:
       i   j   a   b              i   j   a   b              i   j   a   b           
    --------------------------------------------------------------------------------
    [ 12  19   3  16] 0.029110 [ 11  12  14  16]-0.026158 [  7  19   3  27] 0.024103 
    [  3   7  19  27]-0.023816 [  3  12  16  19] 0.022844 [ 19  24  19  27]-0.021003 
    [  3  24   3  27]-0.019927 [  2  11  14  21]-0.017579 [ 12  19  13  19]-0.017575 
    [ 19  24   3  10] 0.017567 [ 19  25   3   8] 0.017539 [  3  25   3  26] 0.017279 
    [  3  24  10  19]-0.017135 [ 18  19  19  20] 0.017019 [ 11  25   9  14]-0.016895 
    --------------------------------------------------------------------------------
    Norm of T2AA vector: (nonzero elements: 6160)                 0.332552117175583.
    --------------------------------------------------------------------------------
    Largest T2 amplitudes for spin case AB:
           _       _                  _       _                  _       _           
       i   j   a   b              i   j   a   b              i   j   a   b           
    --------------------------------------------------------------------------------
    [ 11  11  14  14]-0.039605 [ 12  12  16  16]-0.038151 [  3   7  19  27]-0.027483 
    [ 12  12  13  13]-0.026328 [ 15  15  14  14]-0.025332 [ 19  24  19  27]-0.025201 
    [ 12  15  13  16] 0.024973 [ 12  12  14  14]-0.024951 [ 11  11  13  13]-0.024508 
    [ 11  15  13  14]-0.024465 [ 15  15  16  16]-0.024441 [ 11  11  16  16]-0.023085 
    [  3  24   3  27]-0.022319 [ 12  19  13  19]-0.021628 [ 19  24   3  10] 0.020746 
    --------------------------------------------------------------------------------
    Norm of T2AB vector: (nonzero elements: 7161)                 0.365376342269722.
    --------------------------------------------------------------------------------
    Largest T2 amplitudes for spin case BB:
       _   _   _   _              _   _   _   _              _   _   _   _           
       i   j   a   b              i   j   a   b              i   j   a   b           
    --------------------------------------------------------------------------------
    [ 12  19   3  16] 0.029110 [ 11  12  14  16]-0.026158 [  7  19   3  27] 0.024103 
    [  3   7  19  27]-0.023816 [  3  12  16  19] 0.022844 [ 19  24  19  27]-0.021003 
    [  3  24   3  27]-0.019927 [  2  11  14  21]-0.017579 [ 12  19  13  19]-0.017575 
    [ 19  24   3  10] 0.017567 [ 19  25   3   8] 0.017539 [  3  25   3  26] 0.017279 
    [  3  24  10  19]-0.017135 [ 18  19  19  20] 0.017019 [ 11  25   9  14]-0.016895 
    --------------------------------------------------------------------------------
    Norm of T2BB vector: (nonzero elements: 6160)                 0.332552117175583.
    --------------------------------------------------------------------------------

  ==> Possible Intruders <==

    T1 amplitudes larger than 0.1000 for spin case A: NULL
    T1 amplitudes larger than 0.1000 for spin case B: NULL
    T2 amplitudes larger than 0.1000 for spin case AA: NULL
    T2 amplitudes larger than 0.1000 for spin case AB: NULL
    T2 amplitudes larger than 0.1000 for spin case BB: NULL

  ==> DSRG-MRPT2 Energy Summary <==

    E0 (reference)                 =   -226.575081996602734
    <[F, T1]>                      =     -0.004853286198523
    <[F, T2]>                      =      0.004355743295999
    <[V, T1]>                      =      0.004925265678963
    <[V, T2]> (C_2)^4              =     -0.367931383596508
    <[V, T2]> C_4 (C_2)^2 HH       =      0.004345992829634
    <[V, T2]> C_4 (C_2)^2 PP       =      0.003406834114509
    <[V, T2]> C_4 (C_2)^2 PH       =      0.048649986342941
    <[V, T2]> C_6 C_2              =     -0.000843884602198
    <[V, T2]>                      =     -0.312372454911622
    DSRG-MRPT2 correlation energy  =     -0.307944732135183
    DSRG-MRPT2 total energy        =   -226.883026728737917
    max(T1)                        =      0.014696232175932
    max(T2)                        =      0.039605022848152
    ||T1||                         =      0.042810957208910
    ||T2||                         =      0.869011684177797


 Energy took 0.24285000 s
 Your calculation took 1.11509800 seconds
*** PSI4 exiting successfully. Buy a developer a beer!
