    -----------------------------------------------------------------------
          Psi4: An Open-Source Ab Initio Electronic Structure Package
                              Psi4 1.0rc128 Driver

                          Git: Rev {master} 00a658f 

    J. M. Turney, A. C. Simmonett, R. M. Parrish, E. G. Hohenstein,
    F. A. Evangelista, J. T. Fermann, B. J. Mintz, L. A. Burns, J. J. Wilke,
    M. L. Abrams, N. J. Russ, M. L. Leininger, C. L. Janssen, E. T. Seidl,
    W. D. Allen, H. F. Schaefer, R. A. King, E. F. Valeev, C. D. Sherrill,
    and T. D. Crawford, WIREs Comput. Mol. Sci. 2, 556-565 (2012)
    (doi: 10.1002/wcms.93)

                         Additional Contributions by
    A. E. DePrince, U. Bozkaya, A. Yu. Sokolov, D. G. A. Smith, R. Di Remigio,
    R. M. Richard, J. F. Gonthier, H. R. McAlexander, M. Saitow, and
    B. P. Pritchard
    -----------------------------------------------------------------------


    Psi4 started on: Tue Aug  2 19:50:27 2016

    Process ID:  72069
    PSI4DATADIR: /Users/zxu66/src/psi4public/share
    Memory level set to 256.000 MB

  ==> Input File <==

--------------------------------------------------------------------------
#! Generated using commit GITCOMMIT

import forte

Eoovv = -77.995170959945227
Eauto = -77.995168905999904
Eall  = -77.995164435596493


molecule C2H4{
0 1
H  0.000000  0.923274  1.238289
H  0.000000 -0.923274  1.238289
H  0.000000  0.923274 -1.238289
H  0.000000 -0.923274 -1.238289
C  0.000000  0.000000  0.668188
C  0.000000  0.000000 -0.668188
}

set {
  reference     rhf
  scf_type      out_of_core
  basis         cc-pvdz
  docc          [3,0,0,1,0,2,1,1]
  e_convergence 10
  d_convergence 12
  maxiter       100
}
Escf, wfn = energy('scf', return_wfn=True)
Ca_hf = wfn.Ca().clone()

set forte{
  job_type             active-dsrgpt2
  frozen_docc          [1,0,0,0,0,1,0,0]
  restricted_docc      [1,0,0,1,0,1,1,0]
  active               [1,0,1,1,0,1,1,1]
  dsrg_s               0.5
  cas_type             cas
  active_space_type    cisd
  nrootpi              [1,0,0,0,0,1,0,0]
  d_convergence        10
  cisd_ex_no_hf        true
  internal_amp         singles_doubles
  internal_amp_select  oovv
}
Esd_oovv = energy('forte', ref_wfn = wfn)
C = wfn.Ca()
C = Ca_hf

set forte{
  internal_amp_select  all
}
Esd_all = energy('forte', ref_wfn = wfn)
C = wfn.Ca()
C = Ca_hf

set forte{
  internal_amp_select  auto
}
Esd_auto = energy('forte', ref_wfn = wfn)

compare_values(Eoovv,Esd_oovv,10,"VCISD-DSRG-MRPT2 INTERNAL: SD OOVV")
compare_values(Eauto,Esd_auto,10,"VCISD-DSRG-MRPT2 INTERNAL: SD AUTO")
compare_values(Eall ,Esd_all ,10,"VCISD-DSRG-MRPT2 INTERNAL: SD ALL")
--------------------------------------------------------------------------
/Users/zxu66/src/v2rdm_casscf/v2rdm_casscf.so loaded.
/Users/zxu66/src/forte/forte.so loaded.

*** tstart() called on che-zxu66-01i
*** at Tue Aug  2 19:50:28 2016


         ---------------------------------------------------------
                                   SCF
            by Justin Turney, Rob Parrish, and Andy Simmonett
                              RHF Reference
                        1 Threads,    256 MiB Core
         ---------------------------------------------------------

  ==> Geometry <==

    Molecular point group: d2h
    Full point group: D2h

    Geometry (in Angstrom), charge = 0, multiplicity = 1:

       Center              X                  Y                   Z               Mass       
    ------------   -----------------  -----------------  -----------------  -----------------
           H         -0.000000000000     0.923274000000     1.238289000000     1.007825032070
           H          0.000000000000    -0.923274000000     1.238289000000     1.007825032070
           H         -0.000000000000     0.923274000000    -1.238289000000     1.007825032070
           H          0.000000000000    -0.923274000000    -1.238289000000     1.007825032070
           C          0.000000000000     0.000000000000     0.668188000000    12.000000000000
           C          0.000000000000     0.000000000000    -0.668188000000    12.000000000000

  Running in d2h symmetry.

  Rotational constants: A =      4.90558  B =      0.99768  C =      0.82907 [cm^-1]
  Rotational constants: A = 147065.51639  B =  29909.67957  C =  24854.79644 [MHz]
  Nuclear repulsion =   33.298097662285691

  Charge       = 0
  Multiplicity = 1
  Electrons    = 16
  Nalpha       = 8
  Nbeta        = 8

  ==> Algorithm <==

  SCF Algorithm Type is OUT_OF_CORE.
  DIIS enabled.
  MOM disabled.
  Fractional occupation disabled.
  Guess Type is SAD.
  Energy threshold   = 1.00e-10
  Density threshold  = 1.00e-12
  Integral threshold = 0.00e+00

  ==> Primary Basis <==

  Basis Set: CC-PVDZ
    Number of shells: 24
    Number of basis function: 48
    Number of Cartesian functions: 50
    Spherical Harmonics?: true
    Max angular momentum: 2

  ==> Pre-Iterations <==

   -------------------------------------------------------
    Irrep   Nso     Nmo     Nalpha   Nbeta   Ndocc  Nsocc
   -------------------------------------------------------
     Ag        11      11       3       3       3       0
     B1g        2       2       0       0       0       0
     B2g        4       4       0       0       0       0
     B3g        7       7       1       1       1       0
     Au         2       2       0       0       0       0
     B1u       11      11       2       2       2       0
     B2u        7       7       1       1       1       0
     B3u        4       4       1       1       1       0
   -------------------------------------------------------
    Total      48      48       8       8       8       0
   -------------------------------------------------------

  ==> Integral Setup <==

  ==> DiskJK: Disk-Based J/K Matrices <==

    J tasked:                  Yes
    K tasked:                  Yes
    wK tasked:                  No
    Memory (MB):               183
    Schwarz Cutoff:          1E-12

  Minimum eigenvalue in the overlap matrix is 4.8552890517E-03.
  Using Symmetric Orthogonalization.
  SCF Guess: Superposition of Atomic Densities via on-the-fly atomic UHF.

  ==> Iterations <==

                        Total Energy        Delta E     RMS |[F,P]|

   @RHF iter   0:   -79.04381720078626   -7.90438e+01   1.31711e-01 
   @RHF iter   1:   -78.01228708327071    1.03153e+00   9.56211e-03 
   @RHF iter   2:   -78.03778628612395   -2.54992e-02   2.39139e-03 DIIS
   @RHF iter   3:   -78.03967816426203   -1.89188e-03   7.79446e-04 DIIS
   @RHF iter   4:   -78.03984182578435   -1.63662e-04   1.25945e-04 DIIS
   @RHF iter   5:   -78.03984821119295   -6.38541e-06   1.85377e-05 DIIS
   @RHF iter   6:   -78.03984838307969   -1.71887e-07   3.51347e-06 DIIS
   @RHF iter   7:   -78.03984838918410   -6.10441e-09   3.13710e-07 DIIS
   @RHF iter   8:   -78.03984838922557   -4.14673e-11   2.73968e-08 DIIS
   @RHF iter   9:   -78.03984838922585   -2.84217e-13   4.07672e-09 DIIS
   @RHF iter  10:   -78.03984838922588   -2.84217e-14   3.51325e-10 DIIS
   @RHF iter  11:   -78.03984838922588    0.00000e+00   2.03527e-11 DIIS
   @RHF iter  12:   -78.03984838922588    0.00000e+00   3.17494e-12 DIIS
   @RHF iter  13:   -78.03984838922585    2.84217e-14   6.53001e-13 DIIS

  ==> Post-Iterations <==

    Orbital Energies (a.u.)
    -----------------------

    Doubly Occupied:                                                      

       1Ag   -11.237132     1B1u  -11.235505     2Ag    -1.030189  
       2B1u   -0.789942     1B2u   -0.637452     3Ag    -0.583297  
       1B3g   -0.502717     1B3u   -0.373390  

    Virtual:                                                              

       1B2g    0.167257     4Ag     0.203559     2B2u    0.232823  
       3B1u    0.237644     2B3g    0.303090     4B1u    0.463083  
       5Ag     0.580387     3B2u    0.609438     2B3u    0.689610  
       6Ag     0.709028     5B1u    0.779796     2B2g    0.807307  
       4B2u    0.861157     3B3g    0.932382     6B1u    0.970837  
       7Ag     1.008640     1B1g    1.131643     7B1u    1.234271  
       4B3g    1.240802     3B3u    1.261600     1Au     1.292745  
       8Ag     1.599391     5B3g    1.737713     5B2u    1.752975  
       3B2g    1.814177     9Ag     1.849372     8B1u    1.860320  
       6B2u    1.907415     2B1g    1.968897     4B3u    1.979535  
       4B2g    2.226403     9B1u    2.250735     2Au     2.363897  
       6B3g    2.439418    10Ag     2.507675    10B1u    2.637327  
      11Ag     2.702843     7B2u    2.814595    11B1u    3.116593  
       7B3g    3.390147  

    Final Occupation by Irrep:
             Ag   B1g   B2g   B3g    Au   B1u   B2u   B3u 
    DOCC [     3,    0,    0,    1,    0,    2,    1,    1 ]

  Energy converged.

  @RHF Final Energy:   -78.03984838922585

   => Energetics <=

    Nuclear Repulsion Energy =             33.2980976622856915
    One-Electron Energy =                -169.8966436681406265
    Two-Electron Energy =                  58.5586976166290398
    DFT Exchange-Correlation Energy =       0.0000000000000000
    Empirical Dispersion Energy =           0.0000000000000000
    PCM Polarization Energy =               0.0000000000000000
    EFP Energy =                            0.0000000000000000
    Total Energy =                        -78.0398483892258810


  Saving occupied orbitals to File 180.

*** tstop() called on che-zxu66-01i at Tue Aug  2 19:50:30 2016
Module time:
	user time   =       0.60 seconds =       0.01 minutes
	system time =       0.06 seconds =       0.00 minutes
	total time  =          2 seconds =       0.03 minutes
Total time:
	user time   =       0.60 seconds =       0.01 minutes
	system time =       0.06 seconds =       0.00 minutes
	total time  =          2 seconds =       0.03 minutes


Properties will be evaluated at   0.000000,   0.000000,   0.000000 Bohr

Properties computed using the SCF density matrix

  Nuclear Dipole Moment: (a.u.)
     X:     0.0000      Y:     0.0000      Z:     0.0000

  Electronic Dipole Moment: (a.u.)
     X:     0.0000      Y:     0.0000      Z:     0.0000

  Dipole Moment: (a.u.)
     X:     0.0000      Y:     0.0000      Z:     0.0000     Total:     0.0000

  Dipole Moment: (Debye)
     X:     0.0000      Y:     0.0000      Z:     0.0000     Total:     0.0000


Reading options from the FORTE block
Calling plugin /Users/zxu66/src/forte/forte.so.




  ==> MO Space Information <==

  Read options for space FROZEN_DOCC
  Read options for space RESTRICTED_DOCC
  Read options for space ACTIVE
 Removing orbital 0
 Removing orbital 26
  -------------------------------------------------------------------------
                       Ag   B1g   B2g   B3g    Au   B1u   B2u   B3u   Sum
  -------------------------------------------------------------------------
    FROZEN_DOCC         1     0     0     0     0     1     0     0     2
    RESTRICTED_DOCC     1     0     0     1     0     1     1     0     4
    ACTIVE              1     0     1     1     0     1     1     1     6
    RESTRICTED_UOCC     8     2     3     5     2     8     5     3    36
    FROZEN_UOCC         0     0     0     0     0     0     0     0     0
    Total              11     2     4     7     2    11     7     4    48
  -------------------------------------------------------------------------

  ==> Integral Transformation <==

  Number of molecular orbitals:               48
  Number of correlated molecular orbitals:    46
  Number of frozen occupied orbitals:          2
  Number of frozen unoccupied orbitals:        0


  Overall Conventional Integrals timings

	Presorting SO-basis two-electron integrals.
	Sorting File: SO Ints (nn|nn) nbuckets = 1
	Transforming the one-electron integrals and constructing Fock matrices
	Starting first half-transformation.
	Sorting half-transformed integrals.
	First half integral transformation complete.
	Starting second half-transformation.
	Two-electron integral transformation complete.

  Integral transformation done. 0.36641400 s
  Reading the two-electron integrals from disk
  Size of two-electron integrals:   0.118652 GB
  Frozen-core energy            -78.536477401560 a.u.

  FrozenOneBody Operator takes  0.50643400 s
  Resorting integrals after freezing core.
  Conventional integrals take 1.82958100 s

                               ------------------
                                 ACTIVE-DSRGPT2
                                  Chenyang Li
                               ------------------

    The orbitals are fixed throughout the process.
    If different orbitals (or reference) are desired for different roots,
    you need to run those separately using the regular DSRG-MRPT2 / MRPT3 (or DF/CD) code.

                Ag   B1g   B2g   B3g    Au   B1u   B2u   B3u
    ----------------------------------------------------------
      NROOTS     1     0     0     0     0     1     0     0
    ----------------------------------------------------------

              ---------------------------------------------------
                Complete Active Space Configuration Interaction
                                  Chenyang Li
              ---------------------------------------------------


  ==> Input Summary <==

    number of atoms                =     6
    number of electrons            =    16
    molecular charge               =     0
    number of alpha electrons      =     8
    number of beta electrons       =     8
    multiplicity                   =     1
    ms (2 * Sz)                    =     0
    number of molecular orbitals   =    48

  ==> Orbital Spaces <==

    TOTAL MO                      [   11     2     4     7     2    11     7     4 ]
    FROZEN CORE                   [    1     0     0     0     0     1     0     0 ]
    FROZEN VIRTUAL                [    0     0     0     0     0     0     0     0 ]
    CORRELATED MO                 [   10     2     4     7     2    10     7     4 ]
    CORE                          [    1     0     0     1     0     1     1     0 ]
    ACTIVE                        [    1     0     1     1     0     1     1     1 ]
    VIRTUAL                       [    8     2     3     5     2     8     5     3 ]

  ==> Correlated Subspace Indices <==

    CORE                             0   16   25   35 
    ACTIVE                           1   12   17   26   36   42 
    HOLE                             1   12   17   26   36   42    0   16   25   35 
    VIRTUAL                          2    3    4    5    6    7    8    9   10   11   13   14   15   18   19 
                                    20   21   22   23   24   27   28   29   30   31   32   33   34   37   38 
                                    39   40   41   43   44   45 
    PARTICLE                         1   12   17   26   36   42    2    3    4    5    6    7    8    9   10 
                                    11   13   14   15   18   19   20   21   22   23   24   27   28   29   30 
                                    31   32   33   34   37   38   39   40   41   43   44   45 

    Looping over all roots to determine excitation type.

  ==> Determinants Summary <==

    number of alpha active electrons    =     2
    number of beta active electrons     =     2
    root symmetry (zero based)          =     0
    number of determinants              =     1

  ==> Determinants |alpha|beta> <==
  
  |200002>


  Diagonalizing Hamiltonian           ...

  Reference type: RHF
  Threshold for spin check: 0.10

  Spin State: S^2 = 0.000, S = 0.000, singlet (from 1 determinants)  Done. Timing        0.000464 s

  * * * * * * * * * * * * * * * * *
  *  CI Vectors & Configurations  *
  * * * * * * * * * * * * * * * * *

  ==> Root No. 0 <==

    2 0 0 0 0 2          1.0000000000

    Total Energy:   -78.039848389225966


  Forming one-particle density        ...  Done. Timing        0.000106 s
  Forming generalized Fock matrix     ...  Done. Timing        0.000942 s
  Checking Fock matrices (Fa, Fb)     ...
  Nonzero criteria: > 1.00E-10
  Fa_CORE    block is diagonal.
  Fb_CORE    block is diagonal.
  Fa_ACT_O   block is diagonal.
  Fb_ACT_O   block is diagonal.
  Fa_ACT_V   block is diagonal.
  Fb_ACT_V   block is diagonal.
  Fa_VIRTUAL block is diagonal.
  Fb_VIRTUAL block is diagonal.
  Done checking Fock matrices.                   Timing        0.000950 s

  Forming determinants                ...  Done. Timing        0.000198 s

  ==> Determinants Summary <==

    number of alpha active electrons    =     2
    number of beta active electrons     =     2
    root symmetry (zero based)          =     5
    number of determinants              =     8

  ==> Determinants |alpha|beta> <==
  
  |2+000->  
  |2-000+>  
  |-00+02>  
  |+00-02>  
  |00-0+2>  
  |20+0-0>  
  |00+0-2>  
  |20-0+0>


  Diagonalizing Hamiltonian           ...

  Reference type: RHF
  Threshold for spin check: 0.10

  Ask for S^2 = 0.0000, this S^2 = 2.0000, continue searching...

  Spin State: S^2 = -0.000, S = 0.000, singlet (from 8 determinants)  Done. Timing        0.001005 s

  * * * * * * * * * * * * * * * * *
  *  CI Vectors & Configurations  *
  * * * * * * * * * * * * * * * * *

  ==> Root No. 0 <==

    2 b 0 0 0 a          0.7064377598
    2 a 0 0 0 b          0.7064377598

    Total Energy:   -77.686323936645096


  Forming one-particle density        ...  Done. Timing        0.000114 s
  Forming generalized Fock matrix     ...  Done. Timing        0.001487 s
  Checking Fock matrices (Fa, Fb)     ...
  Nonzero criteria: > 1.00E-10
  Fa_CORE    block is diagonal.
  Fb_CORE    block is diagonal.
  Fa_ACT_O   block is diagonal.
  Fb_ACT_O   block is diagonal.
  Fa_ACT_V   block is diagonal.
  Fb_ACT_V   block is diagonal.
  Warning: Fa_VIRTUAL NOT diagonal!
  Nonzero off-diagonal:   168. Largest value:  0.022657862134083
  Warning: Fb_VIRTUAL NOT diagonal!
  Nonzero off-diagonal:   168. Largest value:  0.022657862134083
  Done checking Fock matrices.                   Timing        0.001124 s


  ===================================
    Current Job:  Ag state, root  0
  ===================================


  ==> Determinants Summary <==

    number of alpha active electrons    =     2
    number of beta active electrons     =     2
    root symmetry (zero based)          =     0
    number of determinants              =     1

  ==> Determinants |alpha|beta> <==
  
  |200002>


  Diagonalizing Hamiltonian           ...

  Reference type: RHF
  Threshold for spin check: 0.10

  Spin State: S^2 = 0.000, S = 0.000, singlet (from 1 determinants)  Done. Timing        0.000286 s

  * * * * * * * * * * * * * * * * *
  *  CI Vectors & Configurations  *
  * * * * * * * * * * * * * * * * *

  ==> Root No. 0 <==

    2 0 0 0 0 2          1.0000000000

    Total Energy:   -78.039848389225966


  Forming one-particle density        ...  Done. Timing        0.000082 s
  Forming generalized Fock matrix     ...  Done. Timing        0.001035 s
  Checking Fock matrices (Fa, Fb)     ...
  Nonzero criteria: > 1.00E-10
  Fa_CORE    block is diagonal.
  Fb_CORE    block is diagonal.
  Fa_ACT_O   block is diagonal.
  Fb_ACT_O   block is diagonal.
  Fa_ACT_V   block is diagonal.
  Fb_ACT_V   block is diagonal.
  Fa_VIRTUAL block is diagonal.
  Fb_VIRTUAL block is diagonal.
  Done checking Fock matrices.                   Timing        0.001050 s

  Forming Lambda2                     ...  Done. Timing        0.000529 s
  Forming Lambda3                     ...  Done. Timing        0.029111 s

              ----------------------------------------------------
                 Driven Similarity Renormalization Group MBPT2
                Chenyang Li, Kevin Hannon, Francesco Evangelista
              ----------------------------------------------------

    Reference:
      J. Chem. Theory Comput. 2015, 11, 2097-2108.

  ==> Calculation Information <==

    ntamp                                                 15
    flow parameter                                 5.000e-01
    taylor expansion threshold                     1.000e-03
    intruder_tamp                                  1.000e-01
    int_type                                    CONVENTIONAL
    source operator                                 STANDARD
    reference relaxation                                NONE

  ==> Checking Orbitals <==

    Checking if orbitals are semi-canonicalized ...     OK.
    Orbitals are semi-canonicalized.

  ==> Computing DSRG-MRPT2 ... <==

    Computing T2 amplitudes                  ...  Done. Timing        0.087158 s
    Computing T1 amplitudes                  ...  Done. Timing        0.003075 s
    Renormalizing two-electron integrals     ...  Done. Timing        0.076881 s
    Renormalizing Fock matrix elements       ...  Done. Timing        0.003492 s
    Computing <[F, T1]>                      ...  Done. Timing        0.002687 s
    Computing <[F, T2]>                      ...  Done. Timing        0.007991 s
    Computing <[V, T1]>                      ...  Done. Timing        0.005762 s
    Computing <[V, T2]> (C_2)^4              ...  Done. Timing        0.029638 s
    Computing <[V, T2]> C_4 (C_2)^2 HH       ...  Done. Timing        0.006504 s
    Computing <[V, T2]> C_4 (C_2)^2 PP       ...  Done. Timing        0.007149 s
    Computing <[V, T2]> C_4 (C_2)^2 PH       ...  Done. Timing        0.023477 s
    Computing <[V, T2]> C_6 C_2              ...  Done. Timing        0.033326 s

  ==> Excitation Amplitudes Summary <==

    Active Indices:    1   12   17   26   36   42 


    Largest T2 amplitudes for spin case AA:
       i   j   a   b              i   j   a   b              i   j   a   b           
    --------------------------------------------------------------------------------
    [  1  42   1  43]-0.034328 [  1  16   1  18] 0.029116 [  1  12   1  13]-0.026893 
    [  1  35   1  38] 0.026539 [ 16  42  18  42] 0.025500 [  1  42   3  42]-0.025140 
    [  1  35   1  36] 0.024572 [ 12  42  12  44] 0.024161 [ 25  42   1  12]-0.023316 
    [ 35  42  38  42] 0.023123 [ 35  42  36  42] 0.022124 [ 12  25   1  44] 0.021303 
    [  1  42  12  29]-0.020664 [  1  17   1  18] 0.020654 [  1  25   1  28] 0.020535 
    --------------------------------------------------------------------------------
    Norm of T2AA vector: (nonzero elements: 20356)                0.470183318073809.
    --------------------------------------------------------------------------------
    Largest T2 amplitudes for spin case AB:
           _       _                  _       _                  _       _           
       i   j   a   b              i   j   a   b              i   j   a   b           
    --------------------------------------------------------------------------------
    [ 42  42  12  12]-0.041280 [  1  42   1  43]-0.038632 [ 42  42  42  43]-0.035641 
    [  0   0   1   1]-0.034557 [  0   0  42  42]-0.030838 [ 12  12  13  13]-0.029320 
    [  1   1   1   3]-0.029260 [ 12  42  13  42]-0.028188 [  1  12   1  13]-0.028044 
    [ 12  42  13  43]-0.027763 [ 42  42  43  43]-0.027516 [ 16  42  18  42] 0.027111 
    [  1  35   1  38] 0.026249 [  1  42   3  42]-0.025144 [ 12  42  12  43]-0.025036 
    --------------------------------------------------------------------------------
    Norm of T2AB vector: (nonzero elements: 23404)                0.473201317873898.
    --------------------------------------------------------------------------------
    Largest T2 amplitudes for spin case BB:
       _   _   _   _              _   _   _   _              _   _   _   _           
       i   j   a   b              i   j   a   b              i   j   a   b           
    --------------------------------------------------------------------------------
    [  1  42   1  43]-0.034328 [  1  16   1  18] 0.029116 [  1  12   1  13]-0.026893 
    [  1  35   1  38] 0.026539 [ 16  42  18  42] 0.025500 [  1  42   3  42]-0.025140 
    [  1  35   1  36] 0.024572 [ 12  42  12  44] 0.024161 [ 25  42   1  12]-0.023316 
    [ 35  42  38  42] 0.023123 [ 35  42  36  42] 0.022124 [ 12  25   1  44] 0.021303 
    [  1  42  12  29]-0.020664 [  1  17   1  18] 0.020654 [  1  25   1  28] 0.020535 
    --------------------------------------------------------------------------------
    Norm of T2BB vector: (nonzero elements: 20356)                0.470183318073809.
    --------------------------------------------------------------------------------

  ==> Possible Intruders <==

    T1 amplitudes larger than 0.1000 for spin case A: NULL
    T1 amplitudes larger than 0.1000 for spin case B: NULL
    T2 amplitudes larger than 0.1000 for spin case AA: NULL
    T2 amplitudes larger than 0.1000 for spin case AB: NULL
    T2 amplitudes larger than 0.1000 for spin case BB: NULL

  ==> DSRG-MRPT2 Energy Summary <==

    E0 (reference)                 =    -78.039848389225966
    <[F, T1]>                      =      0.000000000000000
    <[F, T2]>                      =      0.000000000000000
    <[V, T1]>                      =      0.000000000000000
    <[V, T2]> (C_2)^4              =     -0.270170133476912
    <[V, T2]> C_4 (C_2)^2 HH       =      0.000000000000000
    <[V, T2]> C_4 (C_2)^2 PP       =      0.000000000000000
    <[V, T2]> C_4 (C_2)^2 PH       =      0.000000000000000
    <[V, T2]> C_6 C_2              =      0.000000000000000
    <[V, T2]>                      =     -0.270170133476912
    DSRG-MRPT2 correlation energy  =     -0.270170133476912
    DSRG-MRPT2 total energy        =    -78.310018522702876
    max(T1)                        =      0.000000000000000
    max(T2)                        =      0.041279815862981
    ||T1||                         =      0.000000000000000
    ||T2||                         =      1.156642837759422

  Energy took 0.35097400 s

  ==> Total Timings (s) for Computing Commutators <==

             [H1, T1]    [H1, T2]    [H2, T1]    [H2, T2]
    -----------------------------------------------------
    -> C0       0.003       0.008       0.006       0.100
    -> C1       0.000       0.000       0.000       0.000
    -> C2                   0.000       0.000       0.000
    -----------------------------------------------------


  ===================================
    Current Job: B1u state, root  0
  ===================================

  Forming determinants                ...  Done. Timing        0.000015 s

  ==> Determinants Summary <==

    number of alpha active electrons    =     2
    number of beta active electrons     =     2
    root symmetry (zero based)          =     5
    number of determinants              =     8

  ==> Determinants |alpha|beta> <==
  
  |2+000->  
  |2-000+>  
  |-00+02>  
  |+00-02>  
  |00-0+2>  
  |20+0-0>  
  |00+0-2>  
  |20-0+0>


  Diagonalizing Hamiltonian           ...

  Reference type: RHF
  Threshold for spin check: 0.10

  Ask for S^2 = 0.0000, this S^2 = 2.0000, continue searching...

  Spin State: S^2 = -0.000, S = 0.000, singlet (from 8 determinants)  Done. Timing        0.000148 s

  * * * * * * * * * * * * * * * * *
  *  CI Vectors & Configurations  *
  * * * * * * * * * * * * * * * * *

  ==> Root No. 0 <==

    2 b 0 0 0 a          0.7064377598
    2 a 0 0 0 b          0.7064377598

    Total Energy:   -77.686323936645096


  Forming one-particle density        ...  Done. Timing        0.000051 s
  Forming generalized Fock matrix     ...  Done. Timing        0.001406 s
  Checking Fock matrices (Fa, Fb)     ...
  Nonzero criteria: > 1.00E-10
  Fa_CORE    block is diagonal.
  Fb_CORE    block is diagonal.
  Fa_ACT_O   block is diagonal.
  Fb_ACT_O   block is diagonal.
  Fa_ACT_V   block is diagonal.
  Fb_ACT_V   block is diagonal.
  Warning: Fa_VIRTUAL NOT diagonal!
  Nonzero off-diagonal:   168. Largest value:  0.022657862134083
  Warning: Fb_VIRTUAL NOT diagonal!
  Nonzero off-diagonal:   168. Largest value:  0.022657862134083
  Done checking Fock matrices.                   Timing        0.000175 s

  Use semi-canonical orbitals.

  Diagonalizing Fock                  ...  Done. Timing        0.000406 s


	Presorting SO-basis two-electron integrals.
	Sorting File: SO Ints (nn|nn) nbuckets = 1
	Transforming the one-electron integrals and constructing Fock matrices
	Starting first half-transformation.
	Sorting half-transformed integrals.
	First half integral transformation complete.
	Starting second half-transformation.
	Two-electron integral transformation complete.

  Integral transformation done. 0.30119500 s
  Reading the two-electron integrals from disk
  Size of two-electron integrals:   0.118652 GB
  Frozen-core energy            -78.536477401560 a.u.

  FrozenOneBody Operator takes  0.46222400 s
  Resorting integrals after freezing core.
  Frozen Orbitals takes     0.566 s.
  Diagonalizing Hamiltonian           ...

  Reference type: RHF
  Threshold for spin check: 0.10

  Ask for S^2 = 0.0000, this S^2 = 2.0000, continue searching...

  Spin State: S^2 = -0.000, S = 0.000, singlet (from 8 determinants)  Done. Timing        0.000690 s

  * * * * * * * * * * * * * * * * *
  *  CI Vectors & Configurations  *
  * * * * * * * * * * * * * * * * *

  ==> Root No. 0 <==

    2 b 0 0 0 a          0.7064377598
    2 a 0 0 0 b          0.7064377598

    Total Energy:   -77.686323936645096


  Forming one-particle density        ...  Done. Timing        0.000148 s
  Forming generalized Fock matrix     ...  Done. Timing        0.001889 s
  Checking Fock matrices (Fa, Fb)     ...
  Nonzero criteria: > 1.00E-10
  Fa_CORE    block is diagonal.
  Fb_CORE    block is diagonal.
  Fa_ACT_O   block is diagonal.
  Fb_ACT_O   block is diagonal.
  Fa_ACT_V   block is diagonal.
  Fb_ACT_V   block is diagonal.
  Fa_VIRTUAL block is diagonal.
  Fb_VIRTUAL block is diagonal.
  Done checking Fock matrices.                   Timing        0.001326 s

  Forming Lambda2                     ...  Done. Timing        0.000690 s
  Forming Lambda3                     ...  Done. Timing        0.031858 s

              ----------------------------------------------------
                 Driven Similarity Renormalization Group MBPT2
                Chenyang Li, Kevin Hannon, Francesco Evangelista
              ----------------------------------------------------

    Reference:
      J. Chem. Theory Comput. 2015, 11, 2097-2108.

  ==> Calculation Information <==

    ntamp                                                 15
    flow parameter                                 5.000e-01
    taylor expansion threshold                     1.000e-03
    intruder_tamp                                  1.000e-01
    int_type                                    CONVENTIONAL
    source operator                                 STANDARD
    reference relaxation                                NONE

  ==> Checking Orbitals <==

    Checking if orbitals are semi-canonicalized ...     OK.
    Orbitals are semi-canonicalized.

  ==> Computing DSRG-MRPT2 ... <==

    Computing T2 amplitudes                  ...  Done. Timing        0.079309 s
    Computing T1 amplitudes                  ...  Done. Timing        0.003186 s
    Renormalizing two-electron integrals     ...  Done. Timing        0.079602 s
    Renormalizing Fock matrix elements       ...  Done. Timing        0.002491 s
    Computing <[F, T1]>                      ...  Done. Timing        0.001884 s
    Computing <[F, T2]>                      ...  Done. Timing        0.006108 s
    Computing <[V, T1]>                      ...  Done. Timing        0.004631 s
    Computing <[V, T2]> (C_2)^4              ...  Done. Timing        0.031689 s
    Computing <[V, T2]> C_4 (C_2)^2 HH       ...  Done. Timing        0.008111 s
    Computing <[V, T2]> C_4 (C_2)^2 PP       ...  Done. Timing        0.007996 s
    Computing <[V, T2]> C_4 (C_2)^2 PH       ...  Done. Timing        0.033987 s
    Computing <[V, T2]> C_6 C_2              ...  Done. Timing        0.033317 s

  ==> Excitation Amplitudes Summary <==

    Active Indices:    1   12   17   26   36   42 
    Largest T1 amplitudes for spin case A:
       i       a                  i       a                  i       a               
    --------------------------------------------------------------------------------
    [ 12      13    ] 0.011325 [  1       3    ]-0.009715 [ 16      18    ]-0.008108 
    [ 25      28    ] 0.007546 [ 35      38    ]-0.006903 [  1       7    ] 0.006824 
    [ 35      37    ]-0.006760 [  0       1    ]-0.006597 [ 35      36    ]-0.006328 
    [ 12      14    ]-0.006115 [  0       4    ]-0.006017 [ 12      15    ] 0.005988 
    [ 25      27    ] 0.005778 [  1       4    ] 0.005491 [ 36      40    ] 0.004973 
    --------------------------------------------------------------------------------
    Norm of T1A vector: (nonzero elements: 62)                    0.032171876573437.
    --------------------------------------------------------------------------------
    Largest T1 amplitudes for spin case B:
       _       _                  _       _                  _       _               
       i       a                  i       a                  i       a               
    --------------------------------------------------------------------------------
    [ 12      13    ] 0.011325 [  1       3    ]-0.009715 [ 16      18    ]-0.008108 
    [ 25      28    ] 0.007546 [ 35      38    ]-0.006903 [  1       7    ] 0.006824 
    [ 35      37    ]-0.006760 [  0       1    ]-0.006597 [ 35      36    ]-0.006328 
    [ 12      14    ]-0.006115 [  0       4    ]-0.006017 [ 12      15    ] 0.005988 
    [ 25      27    ] 0.005778 [  1       4    ] 0.005491 [ 36      40    ] 0.004973 
    --------------------------------------------------------------------------------
    Norm of T1B vector: (nonzero elements: 62)                    0.032171876573437.
    --------------------------------------------------------------------------------
    Largest T2 amplitudes for spin case AA:
       i   j   a   b              i   j   a   b              i   j   a   b           
    --------------------------------------------------------------------------------
    [  1  42   1  43]-0.031726 [  1  12   1  13]-0.030679 [  1  16   1  18] 0.029176 
    [  1  42   3  42] 0.026615 [  1  35   1  38] 0.026547 [ 16  42  18  42] 0.025519 
    [  1  35   1  36] 0.024894 [ 12  42  12  44] 0.024218 [ 35  42  38  42] 0.023119 
    [ 35  42  36  42] 0.022414 [ 12  25   1  44] 0.021762 [  1  42  12  29]-0.020350 
    [  1  25   1  28]-0.020245 [  1  25   1  27]-0.020166 [  1  16   1  17]-0.020089 
    --------------------------------------------------------------------------------
    Norm of T2AA vector: (nonzero elements: 20356)                0.470301339969923.
    --------------------------------------------------------------------------------
    Largest T2 amplitudes for spin case AB:
           _       _                  _       _                  _       _           
       i   j   a   b              i   j   a   b              i   j   a   b           
    --------------------------------------------------------------------------------
    [  1  42   1  43]-0.035705 [  0   0   1   1]-0.034824 [ 42  42  42  43]-0.032940 
    [ 12  42  13  42]-0.032217 [  1  12   1  13]-0.031933 [  0   0  42  42]-0.031603 
    [  1   1   1   3] 0.030887 [ 12  12  13  13]-0.030368 [ 42  42  43  43]-0.028959 
    [ 12  42  13  43]-0.027894 [ 16  42  18  42] 0.027144 [  1  42   3  42] 0.026513 
    [  1  35   1  38] 0.026242 [ 42  42  12  12]-0.025411 [ 42  42  13  13]-0.024738 
    --------------------------------------------------------------------------------
    Norm of T2AB vector: (nonzero elements: 23404)                0.473991158098703.
    --------------------------------------------------------------------------------
    Largest T2 amplitudes for spin case BB:
       _   _   _   _              _   _   _   _              _   _   _   _           
       i   j   a   b              i   j   a   b              i   j   a   b           
    --------------------------------------------------------------------------------
    [  1  42   1  43]-0.031726 [  1  12   1  13]-0.030679 [  1  16   1  18] 0.029176 
    [  1  42   3  42] 0.026615 [  1  35   1  38] 0.026547 [ 16  42  18  42] 0.025519 
    [  1  35   1  36] 0.024894 [ 12  42  12  44] 0.024218 [ 35  42  38  42] 0.023119 
    [ 35  42  36  42] 0.022414 [ 12  25   1  44] 0.021762 [  1  42  12  29]-0.020350 
    [  1  25   1  28]-0.020245 [  1  25   1  27]-0.020166 [  1  16   1  17]-0.020089 
    --------------------------------------------------------------------------------
    Norm of T2BB vector: (nonzero elements: 20356)                0.470301339969923.
    --------------------------------------------------------------------------------

  ==> Possible Intruders <==

    T1 amplitudes larger than 0.1000 for spin case A: NULL
    T1 amplitudes larger than 0.1000 for spin case B: NULL
    T2 amplitudes larger than 0.1000 for spin case AA: NULL
    T2 amplitudes larger than 0.1000 for spin case AB: NULL
    T2 amplitudes larger than 0.1000 for spin case BB: NULL

  ==> DSRG-MRPT2 Energy Summary <==

    E0 (reference)                 =    -77.686323936645096
    <[F, T1]>                      =     -0.005202272428755
    <[F, T2]>                      =      0.001771414954147
    <[V, T1]>                      =      0.001762570146515
    <[V, T2]> (C_2)^4              =     -0.293446510003117
    <[V, T2]> C_4 (C_2)^2 HH       =     -0.000629646669611
    <[V, T2]> C_4 (C_2)^2 PP       =     -0.008852670173335
    <[V, T2]> C_4 (C_2)^2 PH       =     -0.004276573419821
    <[V, T2]> C_6 C_2              =      0.000026664293787
    <[V, T2]>                      =     -0.307178735972097
    DSRG-MRPT2 correlation energy  =     -0.308847023300191
    DSRG-MRPT2 total energy        =    -77.995170959945284
    max(T1)                        =      0.011325070317919
    max(T2)                        =      0.035705147573413
    ||T1||                         =      0.045497904177148
    ||T2||                         =      1.158031593946387

  Energy took 0.37089600 s

  ==> Total Timings (s) for Computing Commutators <==

             [H1, T1]    [H1, T2]    [H2, T1]    [H2, T2]
    -----------------------------------------------------
    -> C0       0.002       0.006       0.005       0.115
    -> C1       0.000       0.000       0.000       0.000
    -> C2                   0.000       0.000       0.000
    -----------------------------------------------------


  ==> ACTIVE-DSRGPT2 Summary <==

    Sym.    ROOT         CISD                 PT2
    ----------------------------------------------------
      Ag       0      -78.0398483892      -78.3100185227
    ----------------------------------------------------
     B1u       0      -77.6863239366      -77.9951709599
    ----------------------------------------------------

  ==> Relative Energy WRT Totally Symmetric Ground State (eV) <==

    Sym.    ROOT    CISD       PT2                             Excitation Type
    --------------------------------------------------------------------------
     B1u       0     9.620     8.567                0B3u -> 0B2g (  19.39) (S)
    --------------------------------------------------------------------------
    Excitation type: orbitals are zero-based (active only).
    <r^2> (in a.u.) is given in parentheses. "Diffuse" when <r^2> > 1.0e6.
    (S) for singles; (D) for doubles.

  Your calculation took 4.49357700 seconds

Reading options from the FORTE block
Calling plugin /Users/zxu66/src/forte/forte.so.




  ==> MO Space Information <==

  Read options for space FROZEN_DOCC
  Read options for space RESTRICTED_DOCC
  Read options for space ACTIVE
 Removing orbital 0
 Removing orbital 26
  -------------------------------------------------------------------------
                       Ag   B1g   B2g   B3g    Au   B1u   B2u   B3u   Sum
  -------------------------------------------------------------------------
    FROZEN_DOCC         1     0     0     0     0     1     0     0     2
    RESTRICTED_DOCC     1     0     0     1     0     1     1     0     4
    ACTIVE              1     0     1     1     0     1     1     1     6
    RESTRICTED_UOCC     8     2     3     5     2     8     5     3    36
    FROZEN_UOCC         0     0     0     0     0     0     0     0     0
    Total              11     2     4     7     2    11     7     4    48
  -------------------------------------------------------------------------

  ==> Integral Transformation <==

  Number of molecular orbitals:               48
  Number of correlated molecular orbitals:    46
  Number of frozen occupied orbitals:          2
  Number of frozen unoccupied orbitals:        0


  Overall Conventional Integrals timings

	Presorting SO-basis two-electron integrals.
	Sorting File: SO Ints (nn|nn) nbuckets = 1
	Transforming the one-electron integrals and constructing Fock matrices
	Starting first half-transformation.
	Sorting half-transformed integrals.
	First half integral transformation complete.
	Starting second half-transformation.
	Two-electron integral transformation complete.

  Integral transformation done. 0.27685100 s
  Reading the two-electron integrals from disk
  Size of two-electron integrals:   0.118652 GB
  Frozen-core energy            -78.536477401560 a.u.

  FrozenOneBody Operator takes  0.45851500 s
  Resorting integrals after freezing core.
  Conventional integrals take 1.40373900 s

                               ------------------
                                 ACTIVE-DSRGPT2
                                  Chenyang Li
                               ------------------

    The orbitals are fixed throughout the process.
    If different orbitals (or reference) are desired for different roots,
    you need to run those separately using the regular DSRG-MRPT2 / MRPT3 (or DF/CD) code.

                Ag   B1g   B2g   B3g    Au   B1u   B2u   B3u
    ----------------------------------------------------------
      NROOTS     1     0     0     0     0     1     0     0
    ----------------------------------------------------------

              ---------------------------------------------------
                Complete Active Space Configuration Interaction
                                  Chenyang Li
              ---------------------------------------------------


  ==> Input Summary <==

    number of atoms                =     6
    number of electrons            =    16
    molecular charge               =     0
    number of alpha electrons      =     8
    number of beta electrons       =     8
    multiplicity                   =     1
    ms (2 * Sz)                    =     0
    number of molecular orbitals   =    48

  ==> Orbital Spaces <==

    TOTAL MO                      [   11     2     4     7     2    11     7     4 ]
    FROZEN CORE                   [    1     0     0     0     0     1     0     0 ]
    FROZEN VIRTUAL                [    0     0     0     0     0     0     0     0 ]
    CORRELATED MO                 [   10     2     4     7     2    10     7     4 ]
    CORE                          [    1     0     0     1     0     1     1     0 ]
    ACTIVE                        [    1     0     1     1     0     1     1     1 ]
    VIRTUAL                       [    8     2     3     5     2     8     5     3 ]

  ==> Correlated Subspace Indices <==

    CORE                             0   16   25   35 
    ACTIVE                           1   12   17   26   36   42 
    HOLE                             1   12   17   26   36   42    0   16   25   35 
    VIRTUAL                          2    3    4    5    6    7    8    9   10   11   13   14   15   18   19 
                                    20   21   22   23   24   27   28   29   30   31   32   33   34   37   38 
                                    39   40   41   43   44   45 
    PARTICLE                         1   12   17   26   36   42    2    3    4    5    6    7    8    9   10 
                                    11   13   14   15   18   19   20   21   22   23   24   27   28   29   30 
                                    31   32   33   34   37   38   39   40   41   43   44   45 

    Looping over all roots to determine excitation type.

  ==> Determinants Summary <==

    number of alpha active electrons    =     2
    number of beta active electrons     =     2
    root symmetry (zero based)          =     0
    number of determinants              =     1

  ==> Determinants |alpha|beta> <==
  
  |200002>


  Diagonalizing Hamiltonian           ...

  Reference type: RHF
  Threshold for spin check: 0.10

  Spin State: S^2 = 0.000, S = 0.000, singlet (from 1 determinants)  Done. Timing        0.000495 s

  * * * * * * * * * * * * * * * * *
  *  CI Vectors & Configurations  *
  * * * * * * * * * * * * * * * * *

  ==> Root No. 0 <==

    2 0 0 0 0 2          1.0000000000

    Total Energy:   -78.039848389225966


  Forming one-particle density        ...  Done. Timing        0.000114 s
  Forming generalized Fock matrix     ...  Done. Timing        0.001060 s
  Checking Fock matrices (Fa, Fb)     ...
  Nonzero criteria: > 1.00E-10
  Fa_CORE    block is diagonal.
  Fb_CORE    block is diagonal.
  Fa_ACT_O   block is diagonal.
  Fb_ACT_O   block is diagonal.
  Fa_ACT_V   block is diagonal.
  Fb_ACT_V   block is diagonal.
  Warning: Fa_VIRTUAL NOT diagonal!
  Nonzero off-diagonal:   168. Largest value:  0.022645882889950
  Warning: Fb_VIRTUAL NOT diagonal!
  Nonzero off-diagonal:   168. Largest value:  0.022645882889950
  Done checking Fock matrices.                   Timing        0.001322 s

  Forming determinants                ...  Done. Timing        0.000098 s

  ==> Determinants Summary <==

    number of alpha active electrons    =     2
    number of beta active electrons     =     2
    root symmetry (zero based)          =     5
    number of determinants              =     8

  ==> Determinants |alpha|beta> <==
  
  |2+000->  
  |2-000+>  
  |-00+02>  
  |+00-02>  
  |00-0+2>  
  |20+0-0>  
  |00+0-2>  
  |20-0+0>


  Diagonalizing Hamiltonian           ...

  Reference type: RHF
  Threshold for spin check: 0.10

  Ask for S^2 = 0.0000, this S^2 = 2.0000, continue searching...

  Spin State: S^2 = -0.000, S = 0.000, singlet (from 8 determinants)  Done. Timing        0.000607 s

  * * * * * * * * * * * * * * * * *
  *  CI Vectors & Configurations  *
  * * * * * * * * * * * * * * * * *

  ==> Root No. 0 <==

    2 b 0 0 0 a          0.7064377598
    2 a 0 0 0 b          0.7064377598

    Total Energy:   -77.686323936645096


  Forming one-particle density        ...  Done. Timing        0.000133 s
  Forming generalized Fock matrix     ...  Done. Timing        0.001697 s
  Checking Fock matrices (Fa, Fb)     ...
  Nonzero criteria: > 1.00E-10
  Fa_CORE    block is diagonal.
  Fb_CORE    block is diagonal.
  Fa_ACT_O   block is diagonal.
  Fb_ACT_O   block is diagonal.
  Fa_ACT_V   block is diagonal.
  Fb_ACT_V   block is diagonal.
  Fa_VIRTUAL block is diagonal.
  Fb_VIRTUAL block is diagonal.
  Done checking Fock matrices.                   Timing        0.001352 s


  ===================================
    Current Job:  Ag state, root  0
  ===================================


  ==> Determinants Summary <==

    number of alpha active electrons    =     2
    number of beta active electrons     =     2
    root symmetry (zero based)          =     0
    number of determinants              =     1

  ==> Determinants |alpha|beta> <==
  
  |200002>


  Diagonalizing Hamiltonian           ...

  Reference type: RHF
  Threshold for spin check: 0.10

  Spin State: S^2 = 0.000, S = 0.000, singlet (from 1 determinants)  Done. Timing        0.000531 s

  * * * * * * * * * * * * * * * * *
  *  CI Vectors & Configurations  *
  * * * * * * * * * * * * * * * * *

  ==> Root No. 0 <==

    2 0 0 0 0 2          1.0000000000

    Total Energy:   -78.039848389225966


  Forming one-particle density        ...  Done. Timing        0.000080 s
  Forming generalized Fock matrix     ...  Done. Timing        0.000931 s
  Checking Fock matrices (Fa, Fb)     ...
  Nonzero criteria: > 1.00E-10
  Fa_CORE    block is diagonal.
  Fb_CORE    block is diagonal.
  Fa_ACT_O   block is diagonal.
  Fb_ACT_O   block is diagonal.
  Fa_ACT_V   block is diagonal.
  Fb_ACT_V   block is diagonal.
  Warning: Fa_VIRTUAL NOT diagonal!
  Nonzero off-diagonal:   168. Largest value:  0.022645882889950
  Warning: Fb_VIRTUAL NOT diagonal!
  Nonzero off-diagonal:   168. Largest value:  0.022645882889950
  Done checking Fock matrices.                   Timing        0.000890 s

  Use semi-canonical orbitals.

  Diagonalizing Fock                  ...  Done. Timing        0.000282 s


	Presorting SO-basis two-electron integrals.
	Sorting File: SO Ints (nn|nn) nbuckets = 1
	Transforming the one-electron integrals and constructing Fock matrices
	Starting first half-transformation.
	Sorting half-transformed integrals.
	First half integral transformation complete.
	Starting second half-transformation.
	Two-electron integral transformation complete.

  Integral transformation done. 0.26289300 s
  Reading the two-electron integrals from disk
  Size of two-electron integrals:   0.118652 GB
  Frozen-core energy            -78.536477401560 a.u.

  FrozenOneBody Operator takes  0.44218900 s
  Resorting integrals after freezing core.
  Frozen Orbitals takes     0.524 s.
  Diagonalizing Hamiltonian           ...

  Reference type: RHF
  Threshold for spin check: 0.10

  Spin State: S^2 = 0.000, S = 0.000, singlet (from 1 determinants)  Done. Timing        0.000492 s

  * * * * * * * * * * * * * * * * *
  *  CI Vectors & Configurations  *
  * * * * * * * * * * * * * * * * *

  ==> Root No. 0 <==

    2 0 0 0 0 2          1.0000000000

    Total Energy:   -78.039848389225966


  Forming one-particle density        ...  Done. Timing        0.000127 s
  Forming generalized Fock matrix     ...  Done. Timing        0.001161 s
  Checking Fock matrices (Fa, Fb)     ...
  Nonzero criteria: > 1.00E-10
  Fa_CORE    block is diagonal.
  Fb_CORE    block is diagonal.
  Fa_ACT_O   block is diagonal.
  Fb_ACT_O   block is diagonal.
  Fa_ACT_V   block is diagonal.
  Fb_ACT_V   block is diagonal.
  Fa_VIRTUAL block is diagonal.
  Fb_VIRTUAL block is diagonal.
  Done checking Fock matrices.                   Timing        0.001001 s

  Forming Lambda2                     ...  Done. Timing        0.000641 s
  Forming Lambda3                     ...  Done. Timing        0.044135 s

              ----------------------------------------------------
                 Driven Similarity Renormalization Group MBPT2
                Chenyang Li, Kevin Hannon, Francesco Evangelista
              ----------------------------------------------------

    Reference:
      J. Chem. Theory Comput. 2015, 11, 2097-2108.

  ==> Calculation Information <==

    ntamp                                                 15
    flow parameter                                 5.000e-01
    taylor expansion threshold                     1.000e-03
    intruder_tamp                                  1.000e-01
    int_type                                    CONVENTIONAL
    source operator                                 STANDARD
    reference relaxation                                NONE

  ==> Checking Orbitals <==

    Checking if orbitals are semi-canonicalized ...     OK.
    Orbitals are semi-canonicalized.

  ==> Computing DSRG-MRPT2 ... <==

    Computing T2 amplitudes                  ...  Done. Timing        0.085844 s
    Computing T1 amplitudes                  ...  Done. Timing        0.002202 s
    Renormalizing two-electron integrals     ...  Done. Timing        0.076468 s
    Renormalizing Fock matrix elements       ...  Done. Timing        0.002343 s
    Computing <[F, T1]>                      ...  Done. Timing        0.001896 s
    Computing <[F, T2]>                      ...  Done. Timing        0.004954 s
    Computing <[V, T1]>                      ...  Done. Timing        0.005776 s
    Computing <[V, T2]> (C_2)^4              ...  Done. Timing        0.027792 s
    Computing <[V, T2]> C_4 (C_2)^2 HH       ...  Done. Timing        0.006861 s
    Computing <[V, T2]> C_4 (C_2)^2 PP       ...  Done. Timing        0.007686 s
    Computing <[V, T2]> C_4 (C_2)^2 PH       ...  Done. Timing        0.027910 s
    Computing <[V, T2]> C_6 C_2              ...  Done. Timing        0.034804 s

  ==> Excitation Amplitudes Summary <==

    Active Indices:    1   12   17   26   36   42 


    Largest T2 amplitudes for spin case AA:
       i   j   a   b              i   j   a   b              i   j   a   b           
    --------------------------------------------------------------------------------
    [  1  42   1  43]-0.034328 [  1  16   1  18] 0.029116 [  1  12   1  13]-0.026893 
    [  1  35   1  38]-0.026539 [ 16  42  18  42] 0.025500 [  1  42   3  42]-0.025140 
    [  1  35   1  36] 0.024572 [ 12  42  12  44] 0.024161 [ 25  42   1  12]-0.023316 
    [ 35  42  38  42]-0.023123 [ 35  42  36  42] 0.022124 [ 12  25   1  44] 0.021303 
    [  1  42  12  29] 0.020664 [  1  17   1  18] 0.020654 [  1  25   1  28]-0.020535 
    --------------------------------------------------------------------------------
    Norm of T2AA vector: (nonzero elements: 20390)                0.471091018836309.
    --------------------------------------------------------------------------------
    Largest T2 amplitudes for spin case AB:
           _       _                  _       _                  _       _           
       i   j   a   b              i   j   a   b              i   j   a   b           
    --------------------------------------------------------------------------------
    [ 12  12  42  42] 0.041280 [  1  42   1  43]-0.038632 [ 42  42  42  43]-0.035641 
    [  0   0   1   1]-0.034557 [  0   0  42  42]-0.030838 [ 12  12  13  13]-0.029320 
    [  1   1   1   3]-0.029260 [ 12  42  13  42]-0.028188 [  1  12   1  13]-0.028044 
    [ 12  42  13  43]-0.027763 [ 42  42  43  43]-0.027516 [ 16  42  18  42] 0.027111 
    [  1  35   1  38]-0.026249 [  1  42   3  42]-0.025144 [ 12  42  12  43]-0.025036 
    --------------------------------------------------------------------------------
    Norm of T2AB vector: (nonzero elements: 23454)                0.473975624706708.
    --------------------------------------------------------------------------------
    Largest T2 amplitudes for spin case BB:
       _   _   _   _              _   _   _   _              _   _   _   _           
       i   j   a   b              i   j   a   b              i   j   a   b           
    --------------------------------------------------------------------------------
    [  1  42   1  43]-0.034328 [  1  16   1  18] 0.029116 [  1  12   1  13]-0.026893 
    [  1  35   1  38]-0.026539 [ 16  42  18  42] 0.025500 [  1  42   3  42]-0.025140 
    [  1  35   1  36] 0.024572 [ 12  42  12  44] 0.024161 [ 25  42   1  12]-0.023316 
    [ 35  42  38  42]-0.023123 [ 35  42  36  42] 0.022124 [ 12  25   1  44] 0.021303 
    [  1  42  12  29] 0.020664 [  1  17   1  18] 0.020654 [  1  25   1  28]-0.020535 
    --------------------------------------------------------------------------------
    Norm of T2BB vector: (nonzero elements: 20390)                0.471091018836309.
    --------------------------------------------------------------------------------

  ==> Possible Intruders <==

    T1 amplitudes larger than 0.1000 for spin case A: NULL
    T1 amplitudes larger than 0.1000 for spin case B: NULL
    T2 amplitudes larger than 0.1000 for spin case AA: NULL
    T2 amplitudes larger than 0.1000 for spin case AB: NULL
    T2 amplitudes larger than 0.1000 for spin case BB: NULL

  ==> DSRG-MRPT2 Energy Summary <==

    E0 (reference)                 =    -78.039848389225966
    <[F, T1]>                      =      0.000000000000000
    <[F, T2]>                      =      0.000000000000000
    <[V, T1]>                      =      0.000000000000000
    <[V, T2]> (C_2)^4              =     -0.270170133476951
    <[V, T2]> C_4 (C_2)^2 HH       =      0.000000000000000
    <[V, T2]> C_4 (C_2)^2 PP       =      0.000000000000000
    <[V, T2]> C_4 (C_2)^2 PH       =      0.000000000000000
    <[V, T2]> C_6 C_2              =      0.000000000000000
    <[V, T2]>                      =     -0.270170133476951
    DSRG-MRPT2 correlation energy  =     -0.270170133476951
    DSRG-MRPT2 total energy        =    -78.310018522702919
    max(T1)                        =      0.000000000000000
    max(T2)                        =      0.041279815862981
    ||T1||                         =      0.000000000000000
    ||T2||                         =      1.158647947963884

  Energy took 0.36602100 s

  ==> Total Timings (s) for Computing Commutators <==

             [H1, T1]    [H1, T2]    [H2, T1]    [H2, T2]
    -----------------------------------------------------
    -> C0       0.002       0.005       0.006       0.105
    -> C1       0.000       0.000       0.000       0.000
    -> C2                   0.000       0.000       0.000
    -----------------------------------------------------


  ===================================
    Current Job: B1u state, root  0
  ===================================

  Forming determinants                ...  Done. Timing        0.000028 s

  ==> Determinants Summary <==

    number of alpha active electrons    =     2
    number of beta active electrons     =     2
    root symmetry (zero based)          =     5
    number of determinants              =     8

  ==> Determinants |alpha|beta> <==
  
  |2+000->  
  |2-000+>  
  |-00+02>  
  |+00-02>  
  |00-0+2>  
  |20+0-0>  
  |00+0-2>  
  |20-0+0>


  Diagonalizing Hamiltonian           ...

  Reference type: RHF
  Threshold for spin check: 0.10

  Ask for S^2 = 0.0000, this S^2 = 2.0000, continue searching...

  Spin State: S^2 = -0.000, S = 0.000, singlet (from 8 determinants)  Done. Timing        0.000143 s

  * * * * * * * * * * * * * * * * *
  *  CI Vectors & Configurations  *
  * * * * * * * * * * * * * * * * *

  ==> Root No. 0 <==

    2 b 0 0 0 a          0.7064377598
    2 a 0 0 0 b          0.7064377598

    Total Energy:   -77.686323936645096


  Forming one-particle density        ...  Done. Timing        0.000052 s
  Forming generalized Fock matrix     ...  Done. Timing        0.002281 s
  Checking Fock matrices (Fa, Fb)     ...
  Nonzero criteria: > 1.00E-10
  Fa_CORE    block is diagonal.
  Fb_CORE    block is diagonal.
  Fa_ACT_O   block is diagonal.
  Fb_ACT_O   block is diagonal.
  Fa_ACT_V   block is diagonal.
  Fb_ACT_V   block is diagonal.
  Warning: Fa_VIRTUAL NOT diagonal!
  Nonzero off-diagonal:   168. Largest value:  0.022657862133519
  Warning: Fb_VIRTUAL NOT diagonal!
  Nonzero off-diagonal:   168. Largest value:  0.022657862133519
  Done checking Fock matrices.                   Timing        0.000247 s

  Use semi-canonical orbitals.

  Diagonalizing Fock                  ...  Done. Timing        0.000214 s


	Presorting SO-basis two-electron integrals.
	Sorting File: SO Ints (nn|nn) nbuckets = 1
	Transforming the one-electron integrals and constructing Fock matrices
	Starting first half-transformation.
	Sorting half-transformed integrals.
	First half integral transformation complete.
	Starting second half-transformation.
	Two-electron integral transformation complete.

  Integral transformation done. 0.52561400 s
  Reading the two-electron integrals from disk
  Size of two-electron integrals:   0.118652 GB
  Frozen-core energy            -78.536477401560 a.u.

  FrozenOneBody Operator takes  0.48411600 s
  Resorting integrals after freezing core.
  Frozen Orbitals takes     0.591 s.
  Diagonalizing Hamiltonian           ...

  Reference type: RHF
  Threshold for spin check: 0.10

  Ask for S^2 = 0.0000, this S^2 = 2.0000, continue searching...

  Spin State: S^2 = -0.000, S = 0.000, singlet (from 8 determinants)  Done. Timing        0.000635 s

  * * * * * * * * * * * * * * * * *
  *  CI Vectors & Configurations  *
  * * * * * * * * * * * * * * * * *

  ==> Root No. 0 <==

    2 b 0 0 0 a          0.7064377598
    2 a 0 0 0 b          0.7064377598

    Total Energy:   -77.686323936645096


  Forming one-particle density        ...  Done. Timing        0.000177 s
  Forming generalized Fock matrix     ...  Done. Timing        0.001544 s
  Checking Fock matrices (Fa, Fb)     ...
  Nonzero criteria: > 1.00E-10
  Fa_CORE    block is diagonal.
  Fb_CORE    block is diagonal.
  Fa_ACT_O   block is diagonal.
  Fb_ACT_O   block is diagonal.
  Fa_ACT_V   block is diagonal.
  Fb_ACT_V   block is diagonal.
  Fa_VIRTUAL block is diagonal.
  Fb_VIRTUAL block is diagonal.
  Done checking Fock matrices.                   Timing        0.001026 s

  Forming Lambda2                     ...  Done. Timing        0.000600 s
  Forming Lambda3                     ...  Done. Timing        0.032713 s

              ----------------------------------------------------
                 Driven Similarity Renormalization Group MBPT2
                Chenyang Li, Kevin Hannon, Francesco Evangelista
              ----------------------------------------------------

    Reference:
      J. Chem. Theory Comput. 2015, 11, 2097-2108.

  ==> Calculation Information <==

    ntamp                                                 15
    flow parameter                                 5.000e-01
    taylor expansion threshold                     1.000e-03
    intruder_tamp                                  1.000e-01
    int_type                                    CONVENTIONAL
    source operator                                 STANDARD
    reference relaxation                                NONE

  ==> Checking Orbitals <==

    Checking if orbitals are semi-canonicalized ...     OK.
    Orbitals are semi-canonicalized.

  ==> Computing DSRG-MRPT2 ... <==

    Computing T2 amplitudes                  ...  Done. Timing        0.105082 s
    Computing T1 amplitudes                  ...  Done. Timing        0.002800 s
    Renormalizing two-electron integrals     ...  Done. Timing        0.075884 s
    Renormalizing Fock matrix elements       ...  Done. Timing        0.002850 s
    Computing <[F, T1]>                      ...  Done. Timing        0.001694 s
    Computing <[F, T2]>                      ...  Done. Timing        0.004750 s
    Computing <[V, T1]>                      ...  Done. Timing        0.006911 s
    Computing <[V, T2]> (C_2)^4              ...  Done. Timing        0.032881 s
    Computing <[V, T2]> C_4 (C_2)^2 HH       ...  Done. Timing        0.008785 s
    Computing <[V, T2]> C_4 (C_2)^2 PP       ...  Done. Timing        0.012182 s
    Computing <[V, T2]> C_4 (C_2)^2 PH       ...  Done. Timing        0.031414 s
    Computing <[V, T2]> C_6 C_2              ...  Done. Timing        0.033039 s

  ==> Excitation Amplitudes Summary <==

    Active Indices:    1   12   17   26   36   42 
    Largest T1 amplitudes for spin case A:
       i       a                  i       a                  i       a               
    --------------------------------------------------------------------------------
    [ 12      13    ] 0.011325 [  1       3    ]-0.009715 [ 16      18    ]-0.008108 
    [ 25      28    ]-0.007546 [ 35      38    ]-0.006903 [  1       7    ] 0.006824 
    [ 35      37    ]-0.006760 [  0       1    ]-0.006597 [ 35      36    ]-0.006328 
    [ 12      14    ]-0.006115 [  0       4    ]-0.006017 [ 12      15    ] 0.005988 
    [ 25      27    ] 0.005778 [  1       4    ] 0.005491 [ 36      40    ] 0.004973 
    --------------------------------------------------------------------------------
    Norm of T1A vector: (nonzero elements: 62)                    0.032171876573436.
    --------------------------------------------------------------------------------
    Largest T1 amplitudes for spin case B:
       _       _                  _       _                  _       _               
       i       a                  i       a                  i       a               
    --------------------------------------------------------------------------------
    [ 12      13    ] 0.011325 [  1       3    ]-0.009715 [ 16      18    ]-0.008108 
    [ 25      28    ]-0.007546 [ 35      38    ]-0.006903 [  1       7    ] 0.006824 
    [ 35      37    ]-0.006760 [  0       1    ]-0.006597 [ 35      36    ]-0.006328 
    [ 12      14    ]-0.006115 [  0       4    ]-0.006017 [ 12      15    ] 0.005988 
    [ 25      27    ] 0.005778 [  1       4    ] 0.005491 [ 36      40    ] 0.004973 
    --------------------------------------------------------------------------------
    Norm of T1B vector: (nonzero elements: 62)                    0.032171876573436.
    --------------------------------------------------------------------------------
    Largest T2 amplitudes for spin case AA:
       i   j   a   b              i   j   a   b              i   j   a   b           
    --------------------------------------------------------------------------------
    [  1  42   1  43]-0.031726 [  1  12   1  13]-0.030679 [  1  16   1  18] 0.029176 
    [  1  42   3  42] 0.026615 [  1  35   1  38] 0.026547 [ 16  42  18  42] 0.025519 
    [  1  35   1  36] 0.024894 [ 12  42  12  44] 0.024218 [ 35  42  38  42] 0.023119 
    [ 35  42  36  42] 0.022414 [ 12  25   1  44] 0.021762 [  1  42  12  29] 0.020350 
    [  1  25   1  28] 0.020245 [  1  25   1  27]-0.020166 [  1  16   1  17]-0.020089 
    --------------------------------------------------------------------------------
    Norm of T2AA vector: (nonzero elements: 20388)                0.470651859712690.
    --------------------------------------------------------------------------------
    Largest T2 amplitudes for spin case AB:
           _       _                  _       _                  _       _           
       i   j   a   b              i   j   a   b              i   j   a   b           
    --------------------------------------------------------------------------------
    [  1  42   1  43]-0.035705 [  0   0   1   1]-0.034824 [ 42  42  42  43]-0.032940 
    [ 12  42  13  42]-0.032217 [  1  12   1  13]-0.031933 [  0   0  42  42]-0.031603 
    [  1   1   1   3] 0.030887 [ 12  12  13  13]-0.030368 [ 42  42  43  43]-0.028959 
    [ 12  42  13  43]-0.027894 [ 16  42  18  42] 0.027144 [  1  42   3  42] 0.026513 
    [  1  35   1  38] 0.026242 [ 12  12  42  42] 0.025411 [ 42  42  13  13]-0.024738 
    --------------------------------------------------------------------------------
    Norm of T2AB vector: (nonzero elements: 23452)                0.474491736750032.
    --------------------------------------------------------------------------------
    Largest T2 amplitudes for spin case BB:
       _   _   _   _              _   _   _   _              _   _   _   _           
       i   j   a   b              i   j   a   b              i   j   a   b           
    --------------------------------------------------------------------------------
    [  1  42   1  43]-0.031726 [  1  12   1  13]-0.030679 [  1  16   1  18] 0.029176 
    [  1  42   3  42] 0.026615 [  1  35   1  38] 0.026547 [ 16  42  18  42] 0.025519 
    [  1  35   1  36] 0.024894 [ 12  42  12  44] 0.024218 [ 35  42  38  42] 0.023119 
    [ 35  42  36  42] 0.022414 [ 12  25   1  44] 0.021762 [  1  42  12  29] 0.020350 
    [  1  25   1  28] 0.020245 [  1  25   1  27]-0.020166 [  1  16   1  17]-0.020089 
    --------------------------------------------------------------------------------
    Norm of T2BB vector: (nonzero elements: 20388)                0.470651859712690.
    --------------------------------------------------------------------------------

  ==> Possible Intruders <==

    T1 amplitudes larger than 0.1000 for spin case A: NULL
    T1 amplitudes larger than 0.1000 for spin case B: NULL
    T2 amplitudes larger than 0.1000 for spin case AA: NULL
    T2 amplitudes larger than 0.1000 for spin case AB: NULL
    T2 amplitudes larger than 0.1000 for spin case BB: NULL

  ==> DSRG-MRPT2 Energy Summary <==

    E0 (reference)                 =    -77.686323936645096
    <[F, T1]>                      =     -0.005202272428755
    <[F, T2]>                      =      0.001926321522094
    <[V, T1]>                      =      0.001762570146515
    <[V, T2]> (C_2)^4              =     -0.293517182147699
    <[V, T2]> C_4 (C_2)^2 HH       =     -0.000534259631783
    <[V, T2]> C_4 (C_2)^2 PP       =     -0.008828042207054
    <[V, T2]> C_4 (C_2)^2 PH       =     -0.004454356180775
    <[V, T2]> C_6 C_2              =      0.000006721975998
    <[V, T2]>                      =     -0.307327118191313
    DSRG-MRPT2 correlation energy  =     -0.308840498951458
    DSRG-MRPT2 total energy        =    -77.995164435596550
    max(T1)                        =      0.011325070317919
    max(T2)                        =      0.035705147573413
    ||T1||                         =      0.045497904177147
    ||T2||                         =      1.159135876020699

  Energy took 0.40855100 s

  ==> Total Timings (s) for Computing Commutators <==

             [H1, T1]    [H1, T2]    [H2, T1]    [H2, T2]
    -----------------------------------------------------
    -> C0       0.002       0.005       0.007       0.118
    -> C1       0.000       0.000       0.000       0.000
    -> C2                   0.000       0.000       0.000
    -----------------------------------------------------


  ==> ACTIVE-DSRGPT2 Summary <==

    Sym.    ROOT         CISD                 PT2
    ----------------------------------------------------
      Ag       0      -78.0398483892      -78.3100185227
    ----------------------------------------------------
     B1u       0      -77.6863239366      -77.9951644356
    ----------------------------------------------------

  ==> Relative Energy WRT Totally Symmetric Ground State (eV) <==

    Sym.    ROOT    CISD       PT2                             Excitation Type
    --------------------------------------------------------------------------
     B1u       0     9.620     8.568                0B3u -> 0B2g (  27.49) (S)
    --------------------------------------------------------------------------
    Excitation type: orbitals are zero-based (active only).
    <r^2> (in a.u.) is given in parentheses. "Diffuse" when <r^2> > 1.0e6.
    (S) for singles; (D) for doubles.

  Your calculation took 5.78564100 seconds

Reading options from the FORTE block
Calling plugin /Users/zxu66/src/forte/forte.so.




  ==> MO Space Information <==

  Read options for space FROZEN_DOCC
  Read options for space RESTRICTED_DOCC
  Read options for space ACTIVE
 Removing orbital 0
 Removing orbital 26
  -------------------------------------------------------------------------
                       Ag   B1g   B2g   B3g    Au   B1u   B2u   B3u   Sum
  -------------------------------------------------------------------------
    FROZEN_DOCC         1     0     0     0     0     1     0     0     2
    RESTRICTED_DOCC     1     0     0     1     0     1     1     0     4
    ACTIVE              1     0     1     1     0     1     1     1     6
    RESTRICTED_UOCC     8     2     3     5     2     8     5     3    36
    FROZEN_UOCC         0     0     0     0     0     0     0     0     0
    Total              11     2     4     7     2    11     7     4    48
  -------------------------------------------------------------------------

  ==> Integral Transformation <==

  Number of molecular orbitals:               48
  Number of correlated molecular orbitals:    46
  Number of frozen occupied orbitals:          2
  Number of frozen unoccupied orbitals:        0


  Overall Conventional Integrals timings

	Presorting SO-basis two-electron integrals.
	Sorting File: SO Ints (nn|nn) nbuckets = 1
	Transforming the one-electron integrals and constructing Fock matrices
	Starting first half-transformation.
	Sorting half-transformed integrals.
	First half integral transformation complete.
	Starting second half-transformation.
	Two-electron integral transformation complete.

  Integral transformation done. 0.26619000 s
  Reading the two-electron integrals from disk
  Size of two-electron integrals:   0.118652 GB
  Frozen-core energy            -78.536477401560 a.u.

  FrozenOneBody Operator takes  0.47877500 s
  Resorting integrals after freezing core.
  Conventional integrals take 1.43912100 s

                               ------------------
                                 ACTIVE-DSRGPT2
                                  Chenyang Li
                               ------------------

    The orbitals are fixed throughout the process.
    If different orbitals (or reference) are desired for different roots,
    you need to run those separately using the regular DSRG-MRPT2 / MRPT3 (or DF/CD) code.

                Ag   B1g   B2g   B3g    Au   B1u   B2u   B3u
    ----------------------------------------------------------
      NROOTS     1     0     0     0     0     1     0     0
    ----------------------------------------------------------

              ---------------------------------------------------
                Complete Active Space Configuration Interaction
                                  Chenyang Li
              ---------------------------------------------------


  ==> Input Summary <==

    number of atoms                =     6
    number of electrons            =    16
    molecular charge               =     0
    number of alpha electrons      =     8
    number of beta electrons       =     8
    multiplicity                   =     1
    ms (2 * Sz)                    =     0
    number of molecular orbitals   =    48

  ==> Orbital Spaces <==

    TOTAL MO                      [   11     2     4     7     2    11     7     4 ]
    FROZEN CORE                   [    1     0     0     0     0     1     0     0 ]
    FROZEN VIRTUAL                [    0     0     0     0     0     0     0     0 ]
    CORRELATED MO                 [   10     2     4     7     2    10     7     4 ]
    CORE                          [    1     0     0     1     0     1     1     0 ]
    ACTIVE                        [    1     0     1     1     0     1     1     1 ]
    VIRTUAL                       [    8     2     3     5     2     8     5     3 ]

  ==> Correlated Subspace Indices <==

    CORE                             0   16   25   35 
    ACTIVE                           1   12   17   26   36   42 
    HOLE                             1   12   17   26   36   42    0   16   25   35 
    VIRTUAL                          2    3    4    5    6    7    8    9   10   11   13   14   15   18   19 
                                    20   21   22   23   24   27   28   29   30   31   32   33   34   37   38 
                                    39   40   41   43   44   45 
    PARTICLE                         1   12   17   26   36   42    2    3    4    5    6    7    8    9   10 
                                    11   13   14   15   18   19   20   21   22   23   24   27   28   29   30 
                                    31   32   33   34   37   38   39   40   41   43   44   45 

    Looping over all roots to determine excitation type.

  ==> Determinants Summary <==

    number of alpha active electrons    =     2
    number of beta active electrons     =     2
    root symmetry (zero based)          =     0
    number of determinants              =     1

  ==> Determinants |alpha|beta> <==
  
  |200002>


  Diagonalizing Hamiltonian           ...

  Reference type: RHF
  Threshold for spin check: 0.10

  Spin State: S^2 = 0.000, S = 0.000, singlet (from 1 determinants)  Done. Timing        0.000361 s

  * * * * * * * * * * * * * * * * *
  *  CI Vectors & Configurations  *
  * * * * * * * * * * * * * * * * *

  ==> Root No. 0 <==

    2 0 0 0 0 2          1.0000000000

    Total Energy:   -78.039848389225966


  Forming one-particle density        ...  Done. Timing        0.000097 s
  Forming generalized Fock matrix     ...  Done. Timing        0.000921 s
  Checking Fock matrices (Fa, Fb)     ...
  Nonzero criteria: > 1.00E-10
  Fa_CORE    block is diagonal.
  Fb_CORE    block is diagonal.
  Fa_ACT_O   block is diagonal.
  Fb_ACT_O   block is diagonal.
  Fa_ACT_V   block is diagonal.
  Fb_ACT_V   block is diagonal.
  Warning: Fa_VIRTUAL NOT diagonal!
  Nonzero off-diagonal:   168. Largest value:  0.022645882889952
  Warning: Fb_VIRTUAL NOT diagonal!
  Nonzero off-diagonal:   168. Largest value:  0.022645882889952
  Done checking Fock matrices.                   Timing        0.001128 s

  Forming determinants                ...  Done. Timing        0.000103 s

  ==> Determinants Summary <==

    number of alpha active electrons    =     2
    number of beta active electrons     =     2
    root symmetry (zero based)          =     5
    number of determinants              =     8

  ==> Determinants |alpha|beta> <==
  
  |2+000->  
  |2-000+>  
  |-00+02>  
  |+00-02>  
  |00-0+2>  
  |20+0-0>  
  |00+0-2>  
  |20-0+0>


  Diagonalizing Hamiltonian           ...

  Reference type: RHF
  Threshold for spin check: 0.10

  Ask for S^2 = 0.0000, this S^2 = 2.0000, continue searching...

  Spin State: S^2 = -0.000, S = 0.000, singlet (from 8 determinants)  Done. Timing        0.000541 s

  * * * * * * * * * * * * * * * * *
  *  CI Vectors & Configurations  *
  * * * * * * * * * * * * * * * * *

  ==> Root No. 0 <==

    2 b 0 0 0 a          0.7064377598
    2 a 0 0 0 b          0.7064377598

    Total Energy:   -77.686323936645096


  Forming one-particle density        ...  Done. Timing        0.000128 s
  Forming generalized Fock matrix     ...  Done. Timing        0.001623 s
  Checking Fock matrices (Fa, Fb)     ...
  Nonzero criteria: > 1.00E-10
  Fa_CORE    block is diagonal.
  Fb_CORE    block is diagonal.
  Fa_ACT_O   block is diagonal.
  Fb_ACT_O   block is diagonal.
  Fa_ACT_V   block is diagonal.
  Fb_ACT_V   block is diagonal.
  Fa_VIRTUAL block is diagonal.
  Fb_VIRTUAL block is diagonal.
  Done checking Fock matrices.                   Timing        0.001093 s


  ===================================
    Current Job:  Ag state, root  0
  ===================================


  ==> Determinants Summary <==

    number of alpha active electrons    =     2
    number of beta active electrons     =     2
    root symmetry (zero based)          =     0
    number of determinants              =     1

  ==> Determinants |alpha|beta> <==
  
  |200002>


  Diagonalizing Hamiltonian           ...

  Reference type: RHF
  Threshold for spin check: 0.10

  Spin State: S^2 = 0.000, S = 0.000, singlet (from 1 determinants)  Done. Timing        0.000343 s

  * * * * * * * * * * * * * * * * *
  *  CI Vectors & Configurations  *
  * * * * * * * * * * * * * * * * *

  ==> Root No. 0 <==

    2 0 0 0 0 2          1.0000000000

    Total Energy:   -78.039848389225966


  Forming one-particle density        ...  Done. Timing        0.000098 s
  Forming generalized Fock matrix     ...  Done. Timing        0.000976 s
  Checking Fock matrices (Fa, Fb)     ...
  Nonzero criteria: > 1.00E-10
  Fa_CORE    block is diagonal.
  Fb_CORE    block is diagonal.
  Fa_ACT_O   block is diagonal.
  Fb_ACT_O   block is diagonal.
  Fa_ACT_V   block is diagonal.
  Fb_ACT_V   block is diagonal.
  Warning: Fa_VIRTUAL NOT diagonal!
  Nonzero off-diagonal:   168. Largest value:  0.022645882889952
  Warning: Fb_VIRTUAL NOT diagonal!
  Nonzero off-diagonal:   168. Largest value:  0.022645882889952
  Done checking Fock matrices.                   Timing        0.001136 s

  Use semi-canonical orbitals.

  Diagonalizing Fock                  ...  Done. Timing        0.000427 s


	Presorting SO-basis two-electron integrals.
	Sorting File: SO Ints (nn|nn) nbuckets = 1
	Transforming the one-electron integrals and constructing Fock matrices
	Starting first half-transformation.
[...]

    Reference:
      J. Chem. Theory Comput. 2015, 11, 2097-2108.

  ==> Calculation Information <==

    ntamp                                                 15
    flow parameter                                 5.000e-01
    taylor expansion threshold                     1.000e-03
    intruder_tamp                                  1.000e-01
    int_type                                    CONVENTIONAL
    source operator                                 STANDARD
    reference relaxation                                NONE

  ==> Checking Orbitals <==

    Checking if orbitals are semi-canonicalized ...     OK.
    Orbitals are semi-canonicalized.

  ==> Computing DSRG-MRPT2 ... <==

    Computing T2 amplitudes                  ...  Done. Timing        0.086478 s
    Computing T1 amplitudes                  ...  Done. Timing        0.003087 s
    Renormalizing two-electron integrals     ...  Done. Timing        0.071054 s
    Renormalizing Fock matrix elements       ...  Done. Timing        0.002792 s
    Computing <[F, T1]>                      ...  Done. Timing        0.001872 s
    Computing <[F, T2]>                      ...  Done. Timing        0.005131 s
    Computing <[V, T1]>                      ...  Done. Timing        0.004915 s
    Computing <[V, T2]> (C_2)^4              ...  Done. Timing        0.028577 s
    Computing <[V, T2]> C_4 (C_2)^2 HH       ...  Done. Timing        0.008578 s
    Computing <[V, T2]> C_4 (C_2)^2 PP       ...  Done. Timing        0.007629 s
    Computing <[V, T2]> C_4 (C_2)^2 PH       ...  Done. Timing        0.032811 s
    Computing <[V, T2]> C_6 C_2              ...  Done. Timing        0.038200 s

  ==> Excitation Amplitudes Summary <==

    Active Indices:    1   12   17   26   36   42 


    Largest T2 amplitudes for spin case AA:
       i   j   a   b              i   j   a   b              i   j   a   b           
    --------------------------------------------------------------------------------
    [  1  42   1  43]-0.034328 [  1  16   1  18] 0.029116 [  1  12   1  13]-0.026893 
    [  1  35   1  38]-0.026539 [ 16  42  18  42] 0.025500 [  1  42   3  42]-0.025140 
    [  1  35   1  36] 0.024572 [ 12  42  12  44] 0.024161 [ 25  42   1  12]-0.023316 
    [ 35  42  38  42]-0.023123 [ 35  42  36  42] 0.022124 [ 12  25   1  44] 0.021303 
    [  1  42  12  29] 0.020664 [  1  17   1  18] 0.020654 [  1  25   1  28] 0.020535 
    --------------------------------------------------------------------------------
    Norm of T2AA vector: (nonzero elements: 20380)                0.471088031830128.
    --------------------------------------------------------------------------------
    Largest T2 amplitudes for spin case AB:
           _       _                  _       _                  _       _           
       i   j   a   b              i   j   a   b              i   j   a   b           
    --------------------------------------------------------------------------------
    [ 42  42  12  12]-0.041280 [  1  42   1  43]-0.038632 [ 42  42  42  43]-0.035641 
    [  0   0   1   1]-0.034557 [  0   0  42  42]-0.030838 [ 12  12  13  13]-0.029320 
    [  1   1   1   3]-0.029260 [ 12  42  13  42]-0.028188 [  1  12   1  13]-0.028044 
    [ 12  42  13  43]-0.027763 [ 42  42  43  43]-0.027516 [ 16  42  18  42] 0.027111 
    [  1  35   1  38]-0.026249 [  1  42   3  42]-0.025144 [ 12  42  12  43]-0.025036 
    --------------------------------------------------------------------------------
    Norm of T2AB vector: (nonzero elements: 23428)                0.473925272046517.
    --------------------------------------------------------------------------------
    Largest T2 amplitudes for spin case BB:
       _   _   _   _              _   _   _   _              _   _   _   _           
       i   j   a   b              i   j   a   b              i   j   a   b           
    --------------------------------------------------------------------------------
    [  1  42   1  43]-0.034328 [  1  16   1  18] 0.029116 [  1  12   1  13]-0.026893 
    [  1  35   1  38]-0.026539 [ 16  42  18  42] 0.025500 [  1  42   3  42]-0.025140 
    [  1  35   1  36] 0.024572 [ 12  42  12  44] 0.024161 [ 25  42   1  12]-0.023316 
    [ 35  42  38  42]-0.023123 [ 35  42  36  42] 0.022124 [ 12  25   1  44] 0.021303 
    [  1  42  12  29] 0.020664 [  1  17   1  18] 0.020654 [  1  25   1  28] 0.020535 
    --------------------------------------------------------------------------------
    Norm of T2BB vector: (nonzero elements: 20380)                0.471088031830128.
    --------------------------------------------------------------------------------

  ==> Possible Intruders <==

    T1 amplitudes larger than 0.1000 for spin case A: NULL
    T1 amplitudes larger than 0.1000 for spin case B: NULL
    T2 amplitudes larger than 0.1000 for spin case AA: NULL
    T2 amplitudes larger than 0.1000 for spin case AB: NULL
    T2 amplitudes larger than 0.1000 for spin case BB: NULL

  ==> DSRG-MRPT2 Energy Summary <==

    E0 (reference)                 =    -78.039848389225966
    <[F, T1]>                      =      0.000000000000000
    <[F, T2]>                      =      0.000000000000000
    <[V, T1]>                      =      0.000000000000000
    <[V, T2]> (C_2)^4              =     -0.270170133476951
    <[V, T2]> C_4 (C_2)^2 HH       =      0.000000000000000
    <[V, T2]> C_4 (C_2)^2 PP       =      0.000000000000000
    <[V, T2]> C_4 (C_2)^2 PH       =      0.000000000000000
    <[V, T2]> C_6 C_2              =      0.000000000000000
    <[V, T2]>                      =     -0.270170133476951
    DSRG-MRPT2 correlation energy  =     -0.270170133476951
    DSRG-MRPT2 total energy        =    -78.310018522702919
    max(T1)                        =      0.000000000000000
    max(T2)                        =      0.041279815862981
    ||T1||                         =      0.000000000000000
    ||T2||                         =      1.158563127932453

  Energy took 0.37089200 s

  ==> Total Timings (s) for Computing Commutators <==

             [H1, T1]    [H1, T2]    [H2, T1]    [H2, T2]
    -----------------------------------------------------
    -> C0       0.002       0.005       0.005       0.116
    -> C1       0.000       0.000       0.000       0.000
    -> C2                   0.000       0.000       0.000
    -----------------------------------------------------


  ===================================
    Current Job: B1u state, root  0
  ===================================

  Forming determinants                ...  Done. Timing        0.000016 s

  ==> Determinants Summary <==

    number of alpha active electrons    =     2
    number of beta active electrons     =     2
    root symmetry (zero based)          =     5
    number of determinants              =     8

  ==> Determinants |alpha|beta> <==
  
  |2+000->  
  |2-000+>  
  |-00+02>  
  |+00-02>  
  |00-0+2>  
  |20+0-0>  
  |00+0-2>  
  |20-0+0>


  Diagonalizing Hamiltonian           ...

  Reference type: RHF
  Threshold for spin check: 0.10

  Ask for S^2 = 0.0000, this S^2 = 2.0000, continue searching...

  Spin State: S^2 = -0.000, S = 0.000, singlet (from 8 determinants)  Done. Timing        0.000248 s

  * * * * * * * * * * * * * * * * *
  *  CI Vectors & Configurations  *
  * * * * * * * * * * * * * * * * *

  ==> Root No. 0 <==

    2 b 0 0 0 a          0.7064377598
    2 a 0 0 0 b          0.7064377598

    Total Energy:   -77.686323936645096


  Forming one-particle density        ...  Done. Timing        0.000090 s
  Forming generalized Fock matrix     ...  Done. Timing        0.001876 s
  Checking Fock matrices (Fa, Fb)     ...
  Nonzero criteria: > 1.00E-10
  Fa_CORE    block is diagonal.
  Fb_CORE    block is diagonal.
  Fa_ACT_O   block is diagonal.
  Fb_ACT_O   block is diagonal.
  Fa_ACT_V   block is diagonal.
  Fb_ACT_V   block is diagonal.
  Warning: Fa_VIRTUAL NOT diagonal!
  Nonzero off-diagonal:   168. Largest value:  0.022657862133518
  Warning: Fb_VIRTUAL NOT diagonal!
  Nonzero off-diagonal:   168. Largest value:  0.022657862133518
  Done checking Fock matrices.                   Timing        0.000378 s

  Use semi-canonical orbitals.

  Diagonalizing Fock                  ...  Done. Timing        0.000372 s


	Presorting SO-basis two-electron integrals.
	Sorting File: SO Ints (nn|nn) nbuckets = 1
	Transforming the one-electron integrals and constructing Fock matrices
	Starting first half-transformation.
	Sorting half-transformed integrals.
	First half integral transformation complete.
	Starting second half-transformation.
	Two-electron integral transformation complete.

  Integral transformation done. 0.25222700 s
  Reading the two-electron integrals from disk
  Size of two-electron integrals:   0.118652 GB
  Frozen-core energy            -78.536477401560 a.u.

  FrozenOneBody Operator takes  0.45151400 s
  Resorting integrals after freezing core.
  Frozen Orbitals takes     0.556 s.
  Diagonalizing Hamiltonian           ...

  Reference type: RHF
  Threshold for spin check: 0.10

  Ask for S^2 = 0.0000, this S^2 = 2.0000, continue searching...

  Spin State: S^2 = -0.000, S = 0.000, singlet (from 8 determinants)  Done. Timing        0.000840 s

  * * * * * * * * * * * * * * * * *
  *  CI Vectors & Configurations  *
  * * * * * * * * * * * * * * * * *

  ==> Root No. 0 <==

    2 b 0 0 0 a          0.7064377598
    2 a 0 0 0 b          0.7064377598

    Total Energy:   -77.686323936645096


  Forming one-particle density        ...  Done. Timing        0.000212 s
  Forming generalized Fock matrix     ...  Done. Timing        0.002007 s
  Checking Fock matrices (Fa, Fb)     ...
  Nonzero criteria: > 1.00E-10
  Fa_CORE    block is diagonal.
  Fb_CORE    block is diagonal.
  Fa_ACT_O   block is diagonal.
  Fb_ACT_O   block is diagonal.
  Fa_ACT_V   block is diagonal.
  Fb_ACT_V   block is diagonal.
  Fa_VIRTUAL block is diagonal.
  Fb_VIRTUAL block is diagonal.
  Done checking Fock matrices.                   Timing        0.001501 s

  Forming Lambda2                     ...  Done. Timing        0.000879 s
  Forming Lambda3                     ...  Done. Timing        0.044899 s

              ----------------------------------------------------
                 Driven Similarity Renormalization Group MBPT2
                Chenyang Li, Kevin Hannon, Francesco Evangelista
              ----------------------------------------------------

    Reference:
      J. Chem. Theory Comput. 2015, 11, 2097-2108.

  ==> Calculation Information <==

    ntamp                                                 15
    flow parameter                                 5.000e-01
    taylor expansion threshold                     1.000e-03
    intruder_tamp                                  1.000e-01
    int_type                                    CONVENTIONAL
    source operator                                 STANDARD
    reference relaxation                                NONE

  ==> Checking Orbitals <==

    Checking if orbitals are semi-canonicalized ...     OK.
    Orbitals are semi-canonicalized.

  ==> Computing DSRG-MRPT2 ... <==

    Computing T2 amplitudes                  ...  Done. Timing        0.095177 s
    Computing T1 amplitudes                  ...  Done. Timing        0.002210 s
    Renormalizing two-electron integrals     ...  Done. Timing        0.085339 s
    Renormalizing Fock matrix elements       ...  Done. Timing        0.002623 s
    Computing <[F, T1]>                      ...  Done. Timing        0.002539 s
    Computing <[F, T2]>                      ...  Done. Timing        0.005084 s
    Computing <[V, T1]>                      ...  Done. Timing        0.004796 s
    Computing <[V, T2]> (C_2)^4              ...  Done. Timing        0.030006 s
    Computing <[V, T2]> C_4 (C_2)^2 HH       ...  Done. Timing        0.008831 s
    Computing <[V, T2]> C_4 (C_2)^2 PP       ...  Done. Timing        0.008966 s
    Computing <[V, T2]> C_4 (C_2)^2 PH       ...  Done. Timing        0.030579 s
    Computing <[V, T2]> C_6 C_2              ...  Done. Timing        0.035399 s

  ==> Excitation Amplitudes Summary <==

    Active Indices:    1   12   17   26   36   42 
    Largest T1 amplitudes for spin case A:
       i       a                  i       a                  i       a               
    --------------------------------------------------------------------------------
    [ 12      13    ] 0.011325 [  1       3    ]-0.009715 [ 16      18    ]-0.008108 
    [ 25      28    ] 0.007546 [ 35      38    ]-0.006903 [  1       7    ] 0.006824 
    [ 35      37    ]-0.006760 [  0       1    ]-0.006597 [ 35      36    ]-0.006328 
    [ 12      14    ]-0.006115 [  0       4    ]-0.006017 [ 12      15    ] 0.005988 
    [ 25      27    ] 0.005778 [  1       4    ] 0.005491 [ 36      40    ] 0.004973 
    --------------------------------------------------------------------------------
    Norm of T1A vector: (nonzero elements: 62)                    0.032171876573436.
    --------------------------------------------------------------------------------
    Largest T1 amplitudes for spin case B:
       _       _                  _       _                  _       _               
       i       a                  i       a                  i       a               
    --------------------------------------------------------------------------------
    [ 12      13    ] 0.011325 [  1       3    ]-0.009715 [ 16      18    ]-0.008108 
    [ 25      28    ] 0.007546 [ 35      38    ]-0.006903 [  1       7    ] 0.006824 
    [ 35      37    ]-0.006760 [  0       1    ]-0.006597 [ 35      36    ]-0.006328 
    [ 12      14    ]-0.006115 [  0       4    ]-0.006017 [ 12      15    ] 0.005988 
    [ 25      27    ] 0.005778 [  1       4    ] 0.005491 [ 36      40    ] 0.004973 
    --------------------------------------------------------------------------------
    Norm of T1B vector: (nonzero elements: 62)                    0.032171876573436.
    --------------------------------------------------------------------------------
    Largest T2 amplitudes for spin case AA:
       i   j   a   b              i   j   a   b              i   j   a   b           
    --------------------------------------------------------------------------------
    [  1  42   1  43]-0.031726 [  1  12   1  13]-0.030679 [  1  16   1  18] 0.029176 
    [  1  42   3  42] 0.026615 [  1  35   1  38] 0.026547 [ 16  42  18  42] 0.025519 
    [  1  35   1  36] 0.024894 [ 12  42  12  44] 0.024218 [ 35  42  38  42] 0.023119 
    [ 35  42  36  42] 0.022414 [ 12  25   1  44] 0.021762 [  1  42  12  29] 0.020350 
    [  1  25   1  28]-0.020245 [  1  25   1  27]-0.020166 [  1  16   1  17]-0.020089 
    --------------------------------------------------------------------------------
    Norm of T2AA vector: (nonzero elements: 20380)                0.470641286070031.
    --------------------------------------------------------------------------------
    Largest T2 amplitudes for spin case AB:
           _       _                  _       _                  _       _           
       i   j   a   b              i   j   a   b              i   j   a   b           
    --------------------------------------------------------------------------------
    [  1  42   1  43]-0.035705 [  0   0   1   1]-0.034824 [ 42  42  42  43]-0.032940 
    [ 12  42  13  42]-0.032217 [  1  12   1  13]-0.031933 [  0   0  42  42]-0.031603 
    [  1   1   1   3] 0.030887 [ 12  12  13  13]-0.030368 [ 42  42  43  43]-0.028959 
    [ 12  42  13  43]-0.027894 [ 16  42  18  42] 0.027144 [  1  42   3  42] 0.026513 
    [  1  35   1  38] 0.026242 [ 42  42  12  12]-0.025411 [ 42  42  13  13]-0.024738 
    --------------------------------------------------------------------------------
    Norm of T2AB vector: (nonzero elements: 23428)                0.474410209207239.
    --------------------------------------------------------------------------------
    Largest T2 amplitudes for spin case BB:
       _   _   _   _              _   _   _   _              _   _   _   _           
       i   j   a   b              i   j   a   b              i   j   a   b           
    --------------------------------------------------------------------------------
    [  1  42   1  43]-0.031726 [  1  12   1  13]-0.030679 [  1  16   1  18] 0.029176 
    [  1  42   3  42] 0.026615 [  1  35   1  38] 0.026547 [ 16  42  18  42] 0.025519 
    [  1  35   1  36] 0.024894 [ 12  42  12  44] 0.024218 [ 35  42  38  42] 0.023119 
    [ 35  42  36  42] 0.022414 [ 12  25   1  44] 0.021762 [  1  42  12  29] 0.020350 
    [  1  25   1  28]-0.020245 [  1  25   1  27]-0.020166 [  1  16   1  17]-0.020089 
    --------------------------------------------------------------------------------
    Norm of T2BB vector: (nonzero elements: 20380)                0.470641286070031.
    --------------------------------------------------------------------------------

  ==> Possible Intruders <==

    T1 amplitudes larger than 0.1000 for spin case A: NULL
    T1 amplitudes larger than 0.1000 for spin case B: NULL
    T2 amplitudes larger than 0.1000 for spin case AA: NULL
    T2 amplitudes larger than 0.1000 for spin case AB: NULL
    T2 amplitudes larger than 0.1000 for spin case BB: NULL

  ==> DSRG-MRPT2 Energy Summary <==

    E0 (reference)                 =    -77.686323936645096
    <[F, T1]>                      =     -0.005202272428755
    <[F, T2]>                      =      0.001787228747758
    <[V, T1]>                      =      0.001762570146515
    <[V, T2]> (C_2)^4              =     -0.293450300506082
    <[V, T2]> C_4 (C_2)^2 HH       =     -0.000629664710358
    <[V, T2]> C_4 (C_2)^2 PP       =     -0.008856237428571
    <[V, T2]> C_4 (C_2)^2 PH       =     -0.004286039120639
    <[V, T2]> C_6 C_2              =      0.000029745945271
    <[V, T2]>                      =     -0.307192495820378
    DSRG-MRPT2 correlation energy  =     -0.308844969354860
    DSRG-MRPT2 total energy        =    -77.995168905999961
    max(T1)                        =      0.011325070317919
    max(T2)                        =      0.035705147573413
    ||T1||                         =      0.045497904177147
    ||T2||                         =      1.158993799253270

  Energy took 0.39362000 s

  ==> Total Timings (s) for Computing Commutators <==

             [H1, T1]    [H1, T2]    [H2, T1]    [H2, T2]
    -----------------------------------------------------
    -> C0       0.003       0.005       0.005       0.114
    -> C1       0.000       0.000       0.000       0.000
    -> C2                   0.000       0.000       0.000
    -----------------------------------------------------


  ==> ACTIVE-DSRGPT2 Summary <==

    Sym.    ROOT         CISD                 PT2
    ----------------------------------------------------
      Ag       0      -78.0398483892      -78.3100185227
    ----------------------------------------------------
     B1u       0      -77.6863239366      -77.9951689060
    ----------------------------------------------------

  ==> Relative Energy WRT Totally Symmetric Ground State (eV) <==

    Sym.    ROOT    CISD       PT2                             Excitation Type
    --------------------------------------------------------------------------
     B1u       0     9.620     8.567                0B3u -> 0B2g (  27.49) (S)
    --------------------------------------------------------------------------
    Excitation type: orbitals are zero-based (active only).
    <r^2> (in a.u.) is given in parentheses. "Diffuse" when <r^2> > 1.0e6.
    (S) for singles; (D) for doubles.

  Your calculation took 5.43898300 seconds
	VCISD-DSRG-MRPT2 INTERNAL: SD OOVV................................PASSED
	VCISD-DSRG-MRPT2 INTERNAL: SD AUTO................................PASSED
	VCISD-DSRG-MRPT2 INTERNAL: SD ALL.................................PASSED

*** Psi4 exiting successfully. Buy a developer a beer!
