
    -----------------------------------------------------------------------
          Psi4: An Open-Source Ab Initio Electronic Structure Package
                               Psi4 1.1a2.dev169 

                         Git: Rev {master} b2d0904 


    J. M. Turney, A. C. Simmonett, R. M. Parrish, E. G. Hohenstein,
    F. A. Evangelista, J. T. Fermann, B. J. Mintz, L. A. Burns, J. J. Wilke,
    M. L. Abrams, N. J. Russ, M. L. Leininger, C. L. Janssen, E. T. Seidl,
    W. D. Allen, H. F. Schaefer, R. A. King, E. F. Valeev, C. D. Sherrill,
    and T. D. Crawford, WIREs Comput. Mol. Sci. 2, 556-565 (2012)
    (doi: 10.1002/wcms.93)


                         Additional Contributions by
    A. E. DePrince, U. Bozkaya, A. Yu. Sokolov, D. G. A. Smith, R. Di Remigio,
    R. M. Richard, J. F. Gonthier, H. R. McAlexander, M. Saitow, and
    B. P. Pritchard
    -----------------------------------------------------------------------


    Psi4 started on: Tuesday, 17 January 2017 02:29PM

    Process ID:  19347
    PSIDATADIR: /Users/jeffschriber/src/psi4_debug_install/share/psi4
    Memory:     500.0 MiB
    Threads:    1
    
  ==> Input File <==

--------------------------------------------------------------------------
#! Generated using commit GITCOMMIT

import forte

refmcscf     = -15.569761360883527 #TEST
refdsrgpt2   = -15.627184889290431 #TEST

molecule {
  0 1
  BE        0.000000000000     0.000000000000     0.000000000000
  H         0.000000000000     1.390000000000     2.500000000000
  H         0.000000000000    -1.390000000000     2.500000000000
  units bohr
  no_reorient
}

set globals{
   reference             rhf
   scf_type              out_of_core
   d_convergence         12
   e_convergence         15
   docc                  [2,0,0,1]
   restricted_docc       [2,0,0,0]
   active                [1,0,0,1]
   mcscf_r_convergence   8
   mcscf_e_convergence   10
   mcscf_maxiter         150
}

set forte{
   job_type              mr-dsrg-pt2
   restricted_docc       [2,0,0,0]
   active                [1,0,0,1]
   root_sym              0
   nroot                 1
   dsrg_s                1.0e10
   print                 3
   dsrgpt                true
}

basis {
spherical
****
Be     0
S   6   1.00
   1267.070000     0.001940
    190.356000     0.014786
     43.295900     0.071795
     12.144200     0.236348
      3.809230     0.471763
      1.268470     0.355183
S   3   1.00
      5.693880    -0.028876
      1.555630    -0.177565
      0.171855     1.071630
S   1   1.00
      0.057181     1.000000
P   2   1.00
      1.555630     0.144045
      0.171855     0.949692
P   1   1.00
      5.693880     1.000000
****
H      0
S   3   1.00
     19.240600     0.032828
      2.899200     0.231208
      0.653400     0.817238
S   1   1.00
      0.177600     1.000000
****
}

scf_energy, wfn = energy('casscf', return_wfn=True)
compare_values(refmcscf,get_variable("CURRENT ENERGY"),10,"MCSCF energy") #TEST

energy('forte', ref_wfn=wfn)
compare_values(refdsrgpt2,get_variable("CURRENT ENERGY"),10, "MR-DSRG-PT2 energy") #TEST
--------------------------------------------------------------------------
/Users/jeffschriber/src/forte/forte.so loaded.

         ---------------------------------------------------------
                                   SCF
            by Justin Turney, Rob Parrish, and Andy Simmonett
                              RHF Reference
                        1 Threads,    524 MiB Core
         ---------------------------------------------------------

  ==> Geometry <==

    Molecular point group: c2v
    Full point group: C2v

    Geometry (in Bohr), charge = 0, multiplicity = 1:

       Center              X                  Y                   Z               Mass       
    ------------   -----------------  -----------------  -----------------  -----------------
          BE          0.000000000000     0.000000000000    -0.456946119527     9.012182201000
           H         -0.000000000000     1.390000000000     2.043053880473     1.007825032070
           H          0.000000000000    -1.390000000000     2.043053880473     1.007825032070

  Running in c2v symmetry.

  Rotational constants: A =     15.45786  B =      5.84735  C =      4.24251 [cm^-1]
  Rotational constants: A = 463415.11694  B = 175299.21379  C = 127187.22870 [MHz]
  Nuclear repulsion =    3.156487659063052

  Charge       = 0
  Multiplicity = 1
  Electrons    = 6
  Nalpha       = 3
  Nbeta        = 3

  ==> Algorithm <==

  SCF Algorithm Type is OUT_OF_CORE.
  DIIS enabled.
  MOM disabled.
  Fractional occupation disabled.
  Guess Type is SAD.
  Energy threshold   = 1.00e-15
  Density threshold  = 1.00e-12
  Integral threshold = 0.00e+00

  ==> Primary Basis <==

  Basis Set: inputblock anonymous313
    Number of shells: 9
    Number of basis function: 13
    Number of Cartesian functions: 13
    Spherical Harmonics?: true
    Max angular momentum: 1

  ==> Pre-Iterations <==

   -------------------------------------------------------
    Irrep   Nso     Nmo     Nalpha   Nbeta   Ndocc  Nsocc
   -------------------------------------------------------
     A1         7       7       2       2       2       0
     A2         0       0       0       0       0       0
     B1         2       2       0       0       0       0
     B2         4       4       1       1       1       0
   -------------------------------------------------------
    Total      13      13       3       3       3       0
   -------------------------------------------------------

  ==> Integral Setup <==

  ==> DiskJK: Disk-Based J/K Matrices <==

    J tasked:                  Yes
    K tasked:                  Yes
    wK tasked:                  No
    Memory (MB):               375
    Schwarz Cutoff:          1E-12

  Minimum eigenvalue in the overlap matrix is 1.2053632228E-01.
  Using Symmetric Orthogonalization.

  SCF Guess: Superposition of Atomic Densities via on-the-fly atomic UHF.

  ==> Iterations <==

                        Total Energy        Delta E     RMS |[F,P]|

   @RHF iter   0:   -15.56301095030743   -1.55630e+01   5.44147e-02 
   @RHF iter   1:   -15.52996866392278    3.30423e-02   1.48767e-02 
   @RHF iter   2:   -15.55738473050346   -2.74161e-02   4.69546e-03 DIIS
   @RHF iter   3:   -15.56151938814143   -4.13466e-03   2.28944e-03 DIIS
   @RHF iter   4:   -15.56286464827654   -1.34526e-03   2.24552e-04 DIIS
   @RHF iter   5:   -15.56287226322972   -7.61495e-06   3.86260e-05 DIIS
   @RHF iter   6:   -15.56287237470623   -1.11477e-07   3.70255e-06 DIIS
   @RHF iter   7:   -15.56287237681813   -2.11189e-09   3.38095e-07 DIIS
   @RHF iter   8:   -15.56287237683214   -1.40101e-11   3.56187e-08 DIIS
   @RHF iter   9:   -15.56287237683229   -1.50990e-13   2.52796e-09 DIIS
   @RHF iter  10:   -15.56287237683227    2.13163e-14   1.54895e-10 DIIS
   @RHF iter  11:   -15.56287237683230   -3.19744e-14   2.26136e-11 DIIS
   @RHF iter  12:   -15.56287237683227    2.66454e-14   2.41166e-13 DIIS
   @RHF iter  13:   -15.56287237683228   -8.88178e-15   2.37838e-14 DIIS
   @RHF iter  14:   -15.56287237683227    8.88178e-15   8.86190e-15 DIIS
   @RHF iter  15:   -15.56287237683228   -8.88178e-15   4.93247e-15 DIIS
   @RHF iter  16:   -15.56287237683228   -5.32907e-15   3.27703e-15 DIIS
   @RHF iter  17:   -15.56287237683228    5.32907e-15   2.22444e-15 DIIS
   @RHF iter  18:   -15.56287237683229   -1.06581e-14   1.64244e-15 DIIS
   @RHF iter  19:   -15.56287237683228    8.88178e-15   1.38548e-15 DIIS
   @RHF iter  20:   -15.56287237683227    1.06581e-14   1.08626e-15 DIIS
   @RHF iter  21:   -15.56287237683229   -1.77636e-14   1.33900e-15 DIIS
   @RHF iter  22:   -15.56287237683228    3.55271e-15   8.64035e-16 DIIS
   @RHF iter  23:   -15.56287237683229   -3.55271e-15   1.32282e-15 DIIS
   @RHF iter  24:   -15.56287237683227    1.42109e-14   7.50499e-16 DIIS
   @RHF iter  25:   -15.56287237683228   -7.10543e-15   9.30727e-16 DIIS
   @RHF iter  26:   -15.56287237683228   -1.77636e-15   8.17526e-16 DIIS
   @RHF iter  27:   -15.56287237683229   -5.32907e-15   7.58390e-16 DIIS
   @RHF iter  28:   -15.56287237683228    7.10543e-15   7.69604e-16 DIIS
   @RHF iter  29:   -15.56287237683229   -5.32907e-15   7.51797e-16 DIIS
   @RHF iter  30:   -15.56287237683229   -1.77636e-15   1.01898e-15 DIIS
   @RHF iter  31:   -15.56287237683230   -7.10543e-15   8.28788e-16 DIIS
   @RHF iter  32:   -15.56287237683228    1.95399e-14   6.70163e-16 DIIS
   @RHF iter  33:   -15.56287237683228    0.00000e+00   9.92162e-16 DIIS

  ==> Post-Iterations <==

    Orbital Energies (a.u.)
    -----------------------

    Doubly Occupied:                                                      

       1A1    -4.745154     2A1    -0.496862     1B2    -0.252144  

    Virtual:                                                              

       3A1    -0.004524     1B1     0.147520     4A1     0.268817  
       2B2     0.280798     5A1     0.399681     3B2     1.190648  
       6A1     1.301378     2B1     8.956704     4B2     9.007371  
       7A1     9.098579  

    Final Occupation by Irrep:
             A1    A2    B1    B2 
    DOCC [     2,    0,    0,    1 ]

  Energy converged.

  @RHF Final Energy:   -15.56287237683228

   => Energetics <=

    Nuclear Repulsion Energy =              3.1564876590630520
    One-Electron Energy =                 -26.4504019931892564
    Two-Electron Energy =                   7.7310419572939271
    DFT Exchange-Correlation Energy =       0.0000000000000000
    Empirical Dispersion Energy =           0.0000000000000000
    PCM Polarization Energy =               0.0000000000000000
    EFP Energy =                            0.0000000000000000
    Total Energy =                        -15.5628723768322761

    Alert: EFP and PCM quantities not currently incorporated into SCF psivars.

Properties will be evaluated at   0.000000,   0.000000,   0.000000 Bohr

Properties computed using the SCF density matrix

  Nuclear Dipole Moment: (a.u.)
     X:     0.0000      Y:     0.0000      Z:     2.2583

  Electronic Dipole Moment: (a.u.)
     X:     0.0000      Y:     0.0000      Z:    -3.9654

  Dipole Moment: (a.u.)
     X:     0.0000      Y:     0.0000      Z:    -1.7071     Total:     1.7071

  Dipole Moment: (Debye)
     X:     0.0000      Y:     0.0000      Z:    -4.3391     Total:     4.3391

 MINTS: Wrapper to libmints.
   by Justin Turney

   Calculation information:
      Number of atoms:                   3
      Number of AO shells:               9
      Number of SO shells:               7
      Number of primitives:             21
      Number of atomic orbitals:        13
      Number of basis functions:        13

      Number of irreps:                  4
      Integral cutoff                 1.00e-12
      Number of functions per irrep: [   7    0    2    4 ]

 OEINTS: Overlap, kinetic, potential, dipole, and quadrupole integrals
         stored in file 35.

      Computing two-electron integrals...done
      Computed 1270 non-zero two-electron integrals.
        Stored in file 33.


         ---------------------------------------------------------
                Multi-Configurational Self-Consistent Field
                            (a 'D E T C I' module)

                 Daniel G. A. Smith, C. David Sherrill, and
                              Matt L. Leininger
         ---------------------------------------------------------


   ==> Parameters <==

    EX LEVEL       =        2      H0 BLOCKSIZE  =     1000
    VAL EX LEVEL   =        0      H0 GUESS SIZE =     1000
    H0COUPLINGSIZE =        0      H0 COUPLING   =       NO
    MAXITER        =       12      NUM PRINT     =       20
    NUM ROOTS      =        1      ICORE         =        1
    PRINT LVL      =        1      FCI           =      YES
    R CONV         = 1.00e-07      MIXED         =      YES
    E CONV         = 1.00e-15      MIXED4        =      YES
    R4S            =       NO      REPL OTF      =       NO
    DIAG METHOD    =      SEM      FOLLOW ROOT   =        0
    PRECONDITIONER = DAVIDSON      UPDATE        = DAVIDSON
    S              =   0.0000      Ms0           =      YES
    GUESS VECTOR   =   D FILE      OPENTYPE      =     NONE
    COLLAPSE SIZE  =        1      HD AVG        = EVANGELISTI
    MAX NUM VECS   =       13      REF SYM       =     AUTO
    IOPEN        =       NO

    EX ALLOW       =  1  1 
    STATE AVERAGE  =  0(1.00) 

   ==> CI Orbital and Space information <==

   ------------------------------------------------------
               Space    Total    A1    A2    B1    B2
   ------------------------------------------------------
                 Nso       13     7     0     2     4
                 Nmo       13     7     0     2     4
               Ndocc        3     2     0     0     1
               Nsocc        0     0     0     0     0
   ------------------------------------------------------
                        MCSCF Spaces
   ------------------------------------------------------
         Frozen DOCC        0     0     0     0     0
     Restricted DOCC        2     2     0     0     0
              Active        2     1     0     0     1
     Restricted UOCC        9     4     0     2     3
         Frozen UOCC        0     0     0     0     0
   ------------------------------------------------------

   ==> Setting up CI strings <==

    There are 2 alpha and 2 beta strings
    The CI space requires 2 (2.00E+00) determinants and 2 blocks


   ==> Setting up MCSCF integrals <==

  ==> DiskJK: Disk-Based J/K Matrices <==

    J tasked:                  Yes
    K tasked:                  Yes
    wK tasked:                  No
    Memory (MB):              3200
    Schwarz Cutoff:          1E-12


   ==> Starting MCSCF iterations <==

        Iter         Total Energy       Delta E   Orb RMS    CI RMS  NCI NORB
   @MCSCF  1:    -15.565395299379   -2.5229e-03  4.22e-03  8.33e-17    1    1  Initial CI
   @MCSCF  2:    -15.568787245105   -3.3919e-03  4.33e-03  3.66e-16    2    1  TS
   @MCSCF  3:    -15.569513514152   -7.2627e-04  2.16e-03  3.87e-16    1    1  TS
   @MCSCF  4:    -15.569688774896   -1.7526e-04  1.28e-03  3.18e-16    1    1  TS, DIIS
   @MCSCF  5:    -15.569738390039   -4.9615e-05  8.09e-04  1.13e-15    1    1  TS, DIIS
   @MCSCF  6:    -15.569756850288   -1.8460e-05  2.55e-04  2.14e-15    2    1  TS, DIIS
   @MCSCF  7:    -15.569761268193   -4.4179e-06  8.24e-05  1.90e-15    2    1  TS, DIIS
   @MCSCF  8:    -15.569761183819    8.4374e-08  8.18e-05  2.95e-15    1    1  TS, DIIS
   @MCSCF  9:    -15.569761356644   -1.7282e-07  1.50e-05  1.77e-15    2    1  TS, DIIS
   @MCSCF 10:    -15.569761360673   -4.0294e-09  1.83e-06  2.94e-15    1    1  TS, DIIS
   @MCSCF 11:    -15.569761360713   -4.0369e-11  2.13e-06  3.38e-15    2    1  TS, DIIS
   @MCSCF 12:    -15.569761360883   -1.7018e-10  4.21e-08  3.55e-15    2    1  TS, DIIS
   @MCSCF 13:    -15.569761360884   -5.6843e-14  2.17e-08  3.15e-15    1    1  TS, DIIS
   @MCSCF 14:    -15.569761360884    0.0000e+00  2.07e-09  3.42e-15    1    1  TS, DIIS

          @MCSCF has converged!

   @MCSCF Final Energy:  -15.569761360883531

   ==> Energetics <==

    SCF energy =          -15.562872376832276
    Total CI energy =     -15.569761360883531


   ==> CI root 0 information <==

    CI Root  0 energy =   -15.569761360883531

   Natural occupation numbers:

        B2   1.925126        A1   0.074874

   The 2 most important determinants:

    *   1    0.981103  (    1,    1)  1B2X  
    *   2   -0.193486  (    0,    0)  3A1X  



Properties will be evaluated at   0.000000,   0.000000,   0.000000 Bohr

Properties computed using the CASSCF density matrix

  Nuclear Dipole Moment: (a.u.)
     X:     0.0000      Y:     0.0000      Z:     2.2583

  Electronic Dipole Moment: (a.u.)
     X:     0.0000      Y:     0.0000      Z:    -3.8124

  Dipole Moment: (a.u.)
     X:     0.0000      Y:     0.0000      Z:    -1.5540     Total:     1.5540

  Dipole Moment: (Debye)
     X:     0.0000      Y:     0.0000      Z:    -3.9500     Total:     3.9500

	MCSCF energy......................................................PASSED

Reading options from the FORTE block
Calling plugin forte.so.




  ==> MO Space Information <==

  Read options for space RESTRICTED_DOCC
  Read options for space ACTIVE
  -------------------------------------------------
                       A1    A2    B1    B2   Sum
  -------------------------------------------------
    FROZEN_DOCC         0     0     0     0     0
    RESTRICTED_DOCC     2     0     0     0     2
    ACTIVE              1     0     0     1     2
    RESTRICTED_UOCC     4     0     2     3     9
    FROZEN_UOCC         0     0     0     0     0
    Total               7     0     2     4    13
  -------------------------------------------------

  ==> Integral Transformation <==

  Number of molecular orbitals:               13
  Number of correlated molecular orbitals:    13
  Number of frozen occupied orbitals:          0
  Number of frozen unoccupied orbitals:        0

    Molecular point group: c2v
    Full point group: C2v

    Geometry (in Bohr), charge = 0, multiplicity = 1:

       Center              X                  Y                   Z               Mass       
    ------------   -----------------  -----------------  -----------------  -----------------
          BE          0.000000000000     0.000000000000    -0.456946119527     9.012182201000
           H         -0.000000000000     1.390000000000     2.043053880473     1.007825032070
           H          0.000000000000    -1.390000000000     2.043053880473     1.007825032070

          BE
              CABS            inputblock anonymous313 36617505fdd03d90d8f7fa4694026223b5dffb86
           H
              CABS            inputblock anonymous313 790d3637a08eb5e579a9d845f3ae722494901299
           H
              CABS            inputblock anonymous313 790d3637a08eb5e579a9d845f3ae722494901299

  -AO BASIS SET INFORMATION:
    Name                   = inputblock anonymous313
    Total number of shells = 9
    Number of primitives   = 21
    Number of AO           = 13
    Number of SO           = 13
    Maximum AM             = 1
    Spherical Harmonics    = TRUE

  -Contraction Scheme:
    Atom   Type   All Primitives // Shells:
   ------ ------ --------------------------
       1    BE     10s 3p // 3s 2p 
       2     H     4s // 2s 
       3     H     4s // 2s 

  ==> AO Basis Functions <==

    [ inputblock anonymous313 ]
    spherical
    ****
   BE   1
    S   6 1.00
                      1267.07000000           0.00194000
                       190.35600000           0.01478600
                        43.29590000           0.07179500
                        12.14420000           0.23634800
                         3.80923000           0.47176300
                         1.26847000           0.35518300
    S   3 1.00
                         5.69388000          -0.02887600
                         1.55563000          -0.17756500
                         0.17185500           1.07163000
    S   1 1.00
                         0.05718100           1.00000000
    P   2 1.00
                         1.55563000           0.14404500
                         0.17185500           0.94969200
    P   1 1.00
                         5.69388000           1.00000000
    ****
    H   2
    S   3 1.00
                        19.24060000           0.03282800
                         2.89920000           0.23120800
                         0.65340000           0.81723800
    S   1 1.00
                         0.17760000           1.00000000
    ****


  Overall Conventional Integrals timings

	Presorting SO-basis two-electron integrals.
	Sorting File: SO Ints (nn|nn) nbuckets = 1
	Transforming the one-electron integrals and constructing Fock matrices
	Starting first half-transformation.
	h = 0; memfree         = 65535862
	h = 0; rows_per_bucket = 41
	h = 0; rows_left       = 0
	h = 0; nbuckets        = 1
	h = 1; memfree         = 65535968
	h = 1; rows_per_bucket = 8
	h = 1; rows_left       = 0
	h = 1; nbuckets        = 1
	h = 2; memfree         = 65535944
	h = 2; rows_per_bucket = 14
	h = 2; rows_left       = 0
	h = 2; nbuckets        = 1
	h = 3; memfree         = 65535888
	h = 3; rows_per_bucket = 28
	h = 3; rows_left       = 0
	h = 3; nbuckets        = 1
	Sorting half-transformed integrals.
	First half integral transformation complete.
	Starting second half-transformation.
	h = 0; memfree         = 65535862
	h = 0; rows_per_bucket = 41
	h = 0; rows_left       = 0
	h = 0; nbuckets        = 1
	h = 1; memfree         = 65535968
	h = 1; rows_per_bucket = 8
	h = 1; rows_left       = 0
	h = 1; nbuckets        = 1
	h = 2; memfree         = 65535944
	h = 2; rows_per_bucket = 14
	h = 2; rows_left       = 0
	h = 2; nbuckets        = 1
	h = 3; memfree         = 65535888
	h = 3; rows_per_bucket = 28
	h = 3; rows_left       = 0
	h = 3; nbuckets        = 1
	Two-electron integral transformation complete.

  Integral transformation done. 0.00897700 s
  Reading the two-electron integrals from disk
  Size of two-electron integrals:   0.000638 GB
  Conventional integrals take 0.05460200 s

              ---------------------------------------------------
                Complete Active Space Configuration Interaction
                                  Chenyang Li
              ---------------------------------------------------


  ==> Input Summary <==

    number of atoms                =     3
    number of electrons            =     6
    molecular charge               =     0
    number of alpha electrons      =     3
    number of beta electrons       =     3
    multiplicity                   =     1
    ms (2 * Sz)                    =     0
    number of molecular orbitals   =    13

  ==> Orbital Spaces <==

    TOTAL MO                      [    7     0     2     4 ]
    FROZEN CORE                   [    0     0     0     0 ]
    FROZEN VIRTUAL                [    0     0     0     0 ]
    CORRELATED MO                 [    7     0     2     4 ]
    CORE                          [    2     0     0     0 ]
    ACTIVE                        [    1     0     0     1 ]
    VIRTUAL                       [    4     0     2     3 ]

  ==> Correlated Subspace Indices <==

    CORE                             0    1 
    ACTIVE                           2    9 
    HOLE                             2    9    0    1 
    VIRTUAL                          3    4    5    6    7    8   10   11   12 
    PARTICLE                         2    9    3    4    5    6    7    8   10   11   12 

  Forming alpha and beta strings      ...  Done. Timing        0.000058 s
  Forming determinants                ...  Done. Timing        0.000027 s

  ==> Determinants Summary <==

    number of alpha active electrons    =     1
    number of beta active electrons     =     1
    root symmetry (zero based)          =     0
    number of determinants              =     2

  ==> Determinants |alpha|beta> <==
  
  |20>  
  |02>


  Diagonalizing Hamiltonian           ...

  Reference type: RHF
  Threshold for spin check: 0.10

  Spin State: S^2 = 0.000, S = 0.000, singlet (from 2 determinants)  Done. Timing        0.000149 s

  Spin selected CI vectors

 # Column #
 Irrep: 1
      1: -0.1934864
      2:  0.9811030

  Energy  =   -15.569761360883527


  * * * * * * * * * * * * * * * * *
  *  CI Vectors & Configurations  *
  * * * * * * * * * * * * * * * * *

  ==> Root No. 0 <==

    0 2          0.9811029628
    2 0         -0.1934863725

    Total Energy:   -15.569761360883527


  Forming one-particle density        ...  Done. Timing        0.000059 s  ## Da (Symmetry 0) ##
  Irrep: 1 Size: 13 x 13

                 1                   2                   3                   4                   5

    1     1.00000000000000     0.00000000000000     0.00000000000000     0.00000000000000     0.00000000000000
    2     0.00000000000000     1.00000000000000     0.00000000000000     0.00000000000000     0.00000000000000
    3     0.00000000000000     0.00000000000000     0.03743697635456     0.00000000000000     0.00000000000000
    4     0.00000000000000     0.00000000000000     0.00000000000000     0.00000000000000     0.00000000000000
    5     0.00000000000000     0.00000000000000     0.00000000000000     0.00000000000000     0.00000000000000
    6     0.00000000000000     0.00000000000000     0.00000000000000     0.00000000000000     0.00000000000000
    7     0.00000000000000     0.00000000000000     0.00000000000000     0.00000000000000     0.00000000000000
    8     0.00000000000000     0.00000000000000     0.00000000000000     0.00000000000000     0.00000000000000
    9     0.00000000000000     0.00000000000000     0.00000000000000     0.00000000000000     0.00000000000000
   10     0.00000000000000     0.00000000000000     0.00000000000000     0.00000000000000     0.00000000000000
   11     0.00000000000000     0.00000000000000     0.00000000000000     0.00000000000000     0.00000000000000
   12     0.00000000000000     0.00000000000000     0.00000000000000     0.00000000000000     0.00000000000000
   13     0.00000000000000     0.00000000000000     0.00000000000000     0.00000000000000     0.00000000000000

                 6                   7                   8                   9                  10

    1     0.00000000000000     0.00000000000000     0.00000000000000     0.00000000000000     0.00000000000000
    2     0.00000000000000     0.00000000000000     0.00000000000000     0.00000000000000     0.00000000000000
    3     0.00000000000000     0.00000000000000     0.00000000000000     0.00000000000000     0.00000000000000
    4     0.00000000000000     0.00000000000000     0.00000000000000     0.00000000000000     0.00000000000000
    5     0.00000000000000     0.00000000000000     0.00000000000000     0.00000000000000     0.00000000000000
    6     0.00000000000000     0.00000000000000     0.00000000000000     0.00000000000000     0.00000000000000
    7     0.00000000000000     0.00000000000000     0.00000000000000     0.00000000000000     0.00000000000000
    8     0.00000000000000     0.00000000000000     0.00000000000000     0.00000000000000     0.00000000000000
    9     0.00000000000000     0.00000000000000     0.00000000000000     0.00000000000000     0.00000000000000
   10     0.00000000000000     0.00000000000000     0.00000000000000     0.00000000000000     0.96256302364544
   11     0.00000000000000     0.00000000000000     0.00000000000000     0.00000000000000     0.00000000000000
   12     0.00000000000000     0.00000000000000     0.00000000000000     0.00000000000000     0.00000000000000
   13     0.00000000000000     0.00000000000000     0.00000000000000     0.00000000000000     0.00000000000000

                11                  12                  13

    1     0.00000000000000     0.00000000000000     0.00000000000000
    2     0.00000000000000     0.00000000000000     0.00000000000000
    3     0.00000000000000     0.00000000000000     0.00000000000000
    4     0.00000000000000     0.00000000000000     0.00000000000000
    5     0.00000000000000     0.00000000000000     0.00000000000000
    6     0.00000000000000     0.00000000000000     0.00000000000000
    7     0.00000000000000     0.00000000000000     0.00000000000000
    8     0.00000000000000     0.00000000000000     0.00000000000000
    9     0.00000000000000     0.00000000000000     0.00000000000000
   10     0.00000000000000     0.00000000000000     0.00000000000000
   11     0.00000000000000     0.00000000000000     0.00000000000000
   12     0.00000000000000     0.00000000000000     0.00000000000000
   13     0.00000000000000     0.00000000000000     0.00000000000000



  ## Db (Symmetry 0) ##
  Irrep: 1 Size: 13 x 13

                 1                   2                   3                   4                   5

    1     1.00000000000000     0.00000000000000     0.00000000000000     0.00000000000000     0.00000000000000
    2     0.00000000000000     1.00000000000000     0.00000000000000     0.00000000000000     0.00000000000000
    3     0.00000000000000     0.00000000000000     0.03743697635456     0.00000000000000     0.00000000000000
    4     0.00000000000000     0.00000000000000     0.00000000000000     0.00000000000000     0.00000000000000
    5     0.00000000000000     0.00000000000000     0.00000000000000     0.00000000000000     0.00000000000000
    6     0.00000000000000     0.00000000000000     0.00000000000000     0.00000000000000     0.00000000000000
    7     0.00000000000000     0.00000000000000     0.00000000000000     0.00000000000000     0.00000000000000
    8     0.00000000000000     0.00000000000000     0.00000000000000     0.00000000000000     0.00000000000000
    9     0.00000000000000     0.00000000000000     0.00000000000000     0.00000000000000     0.00000000000000
   10     0.00000000000000     0.00000000000000     0.00000000000000     0.00000000000000     0.00000000000000
   11     0.00000000000000     0.00000000000000     0.00000000000000     0.00000000000000     0.00000000000000
   12     0.00000000000000     0.00000000000000     0.00000000000000     0.00000000000000     0.00000000000000
   13     0.00000000000000     0.00000000000000     0.00000000000000     0.00000000000000     0.00000000000000

                 6                   7                   8                   9                  10

    1     0.00000000000000     0.00000000000000     0.00000000000000     0.00000000000000     0.00000000000000
    2     0.00000000000000     0.00000000000000     0.00000000000000     0.00000000000000     0.00000000000000
    3     0.00000000000000     0.00000000000000     0.00000000000000     0.00000000000000     0.00000000000000
    4     0.00000000000000     0.00000000000000     0.00000000000000     0.00000000000000     0.00000000000000
    5     0.00000000000000     0.00000000000000     0.00000000000000     0.00000000000000     0.00000000000000
    6     0.00000000000000     0.00000000000000     0.00000000000000     0.00000000000000     0.00000000000000
    7     0.00000000000000     0.00000000000000     0.00000000000000     0.00000000000000     0.00000000000000
    8     0.00000000000000     0.00000000000000     0.00000000000000     0.00000000000000     0.00000000000000
    9     0.00000000000000     0.00000000000000     0.00000000000000     0.00000000000000     0.00000000000000
   10     0.00000000000000     0.00000000000000     0.00000000000000     0.00000000000000     0.96256302364544
   11     0.00000000000000     0.00000000000000     0.00000000000000     0.00000000000000     0.00000000000000
   12     0.00000000000000     0.00000000000000     0.00000000000000     0.00000000000000     0.00000000000000
   13     0.00000000000000     0.00000000000000     0.00000000000000     0.00000000000000     0.00000000000000

                11                  12                  13

    1     0.00000000000000     0.00000000000000     0.00000000000000
    2     0.00000000000000     0.00000000000000     0.00000000000000
    3     0.00000000000000     0.00000000000000     0.00000000000000
    4     0.00000000000000     0.00000000000000     0.00000000000000
    5     0.00000000000000     0.00000000000000     0.00000000000000
    6     0.00000000000000     0.00000000000000     0.00000000000000
    7     0.00000000000000     0.00000000000000     0.00000000000000
    8     0.00000000000000     0.00000000000000     0.00000000000000
    9     0.00000000000000     0.00000000000000     0.00000000000000
   10     0.00000000000000     0.00000000000000     0.00000000000000
   11     0.00000000000000     0.00000000000000     0.00000000000000
   12     0.00000000000000     0.00000000000000     0.00000000000000
   13     0.00000000000000     0.00000000000000     0.00000000000000




  Forming generalized Fock matrix     ...  Done. Timing        0.000058 s
  Checking Fock matrices (Fa, Fb)     ...
  Nonzero criteria: > 1.00E-12
  Warning: Fa_CORE    NOT diagonal!
  Nonzero off-diagonal:     2. Largest value:  0.000065048245968
  Warning: Fb_CORE    NOT diagonal!
  Nonzero off-diagonal:     2. Largest value:  0.000065048245968
  Fa_ACTIVE  block is diagonal.
  Fb_ACTIVE  block is diagonal.
  Warning: Fa_VIRTUAL NOT diagonal!
  Nonzero off-diagonal:    20. Largest value:  0.042697100607751
  Warning: Fb_VIRTUAL NOT diagonal!
  Nonzero off-diagonal:    20. Largest value:  0.042697100607751
  Done checking Fock matrices.                   Timing        0.000060 s
  ## Fa (Symmetry 0) ##
  Irrep: 1 Size: 13 x 13

                 1                   2                   3                   4                   5

    1    -4.73992356999782     0.00006504824597     0.00042010540501     0.00000000055834     0.00000000073554
    2     0.00006504824597    -0.50074669476296     0.00585379740259    -0.00000000017408    -0.00000000103283
    3     0.00042010540501     0.00585379740259     0.06426121446636     0.02548542582090     0.11924365152089
    4     0.00000000055834    -0.00000000017408     0.02548542582090     0.26700695056322    -0.01390984201363
    5     0.00000000073554    -0.00000000103283     0.11924365152089    -0.01390984201363     0.35347563985631
    6     0.00000000030936    -0.00000000058524     0.18526681703107    -0.01214005112306    -0.04269710060775
    7     0.00000000037712     0.00000000004128     0.01775776635081    -0.00127977296233    -0.00437596394469
    8     0.00000000000000     0.00000000000000     0.00000000000000     0.00000000000000     0.00000000000000
    9     0.00000000000000     0.00000000000000     0.00000000000000     0.00000000000000     0.00000000000000
   10     0.00000000000000     0.00000000000000     0.00000000000000     0.00000000000000     0.00000000000000
   11     0.00000000000000     0.00000000000000     0.00000000000000     0.00000000000000     0.00000000000000
   12     0.00000000000000     0.00000000000000     0.00000000000000     0.00000000000000     0.00000000000000
   13     0.00000000000000     0.00000000000000     0.00000000000000     0.00000000000000     0.00000000000000

                 6                   7                   8                   9                  10

    1     0.00000000030936     0.00000000037712     0.00000000000000     0.00000000000000     0.00000000000000
    2    -0.00000000058524     0.00000000004128     0.00000000000000     0.00000000000000     0.00000000000000
    3     0.18526681703107     0.01775776635081     0.00000000000000     0.00000000000000     0.00000000000000
    4    -0.01214005112306    -0.00127977296233     0.00000000000000     0.00000000000000     0.00000000000000
    5    -0.04269710060775    -0.00437596394469     0.00000000000000     0.00000000000000     0.00000000000000
    6     1.26414730385121    -0.00176304135375     0.00000000000000     0.00000000000000     0.00000000000000
    7    -0.00176304135375     9.10384305380276     0.00000000000000     0.00000000000000     0.00000000000000
    8     0.00000000000000     0.00000000000000     0.14836131956091    -0.00074378197899     0.00000000000000
    9     0.00000000000000     0.00000000000000    -0.00074378197899     8.96224984638484     0.00000000000000
   10     0.00000000000000     0.00000000000000     0.00000000000000     0.00000000000000    -0.24489001974575
   11     0.00000000000000     0.00000000000000     0.00000000000000     0.00000000000000     0.00351765258313
   12     0.00000000000000     0.00000000000000     0.00000000000000     0.00000000000000     0.00370364094848
   13     0.00000000000000     0.00000000000000     0.00000000000000     0.00000000000000     0.00034616426851

                11                  12                  13

    1     0.00000000000000     0.00000000000000     0.00000000000000
    2     0.00000000000000     0.00000000000000     0.00000000000000
    3     0.00000000000000     0.00000000000000     0.00000000000000
    4     0.00000000000000     0.00000000000000     0.00000000000000
    5     0.00000000000000     0.00000000000000     0.00000000000000
    6     0.00000000000000     0.00000000000000     0.00000000000000
    7     0.00000000000000     0.00000000000000     0.00000000000000
    8     0.00000000000000     0.00000000000000     0.00000000000000
    9     0.00000000000000     0.00000000000000     0.00000000000000
   10     0.00351765258313     0.00370364094848     0.00034616426851
   11     0.28003991894746     0.00134308964530    -0.00087332705410
   12     0.00134308964530     1.18254060644188    -0.00010208550204
   13    -0.00087332705410    -0.00010208550204     9.01267656312038



  ## Fb (Symmetry 0) ##
  Irrep: 1 Size: 13 x 13

                 1                   2                   3                   4                   5

    1    -4.73992356999782     0.00006504824597     0.00042010540501     0.00000000055834     0.00000000073554
    2     0.00006504824597    -0.50074669476296     0.00585379740259    -0.00000000017408    -0.00000000103283
    3     0.00042010540501     0.00585379740259     0.06426121446636     0.02548542582090     0.11924365152089
    4     0.00000000055834    -0.00000000017408     0.02548542582090     0.26700695056322    -0.01390984201363
    5     0.00000000073554    -0.00000000103283     0.11924365152089    -0.01390984201363     0.35347563985631
    6     0.00000000030936    -0.00000000058524     0.18526681703107    -0.01214005112306    -0.04269710060775
    7     0.00000000037712     0.00000000004128     0.01775776635081    -0.00127977296233    -0.00437596394469
    8     0.00000000000000     0.00000000000000     0.00000000000000     0.00000000000000     0.00000000000000
    9     0.00000000000000     0.00000000000000     0.00000000000000     0.00000000000000     0.00000000000000
   10     0.00000000000000     0.00000000000000     0.00000000000000     0.00000000000000     0.00000000000000
   11     0.00000000000000     0.00000000000000     0.00000000000000     0.00000000000000     0.00000000000000
   12     0.00000000000000     0.00000000000000     0.00000000000000     0.00000000000000     0.00000000000000
   13     0.00000000000000     0.00000000000000     0.00000000000000     0.00000000000000     0.00000000000000

                 6                   7                   8                   9                  10

    1     0.00000000030936     0.00000000037712     0.00000000000000     0.00000000000000     0.00000000000000
    2    -0.00000000058524     0.00000000004128     0.00000000000000     0.00000000000000     0.00000000000000
    3     0.18526681703107     0.01775776635081     0.00000000000000     0.00000000000000     0.00000000000000
    4    -0.01214005112306    -0.00127977296233     0.00000000000000     0.00000000000000     0.00000000000000
    5    -0.04269710060775    -0.00437596394469     0.00000000000000     0.00000000000000     0.00000000000000
    6     1.26414730385121    -0.00176304135375     0.00000000000000     0.00000000000000     0.00000000000000
    7    -0.00176304135375     9.10384305380276     0.00000000000000     0.00000000000000     0.00000000000000
    8     0.00000000000000     0.00000000000000     0.14836131956091    -0.00074378197899     0.00000000000000
    9     0.00000000000000     0.00000000000000    -0.00074378197899     8.96224984638484     0.00000000000000
   10     0.00000000000000     0.00000000000000     0.00000000000000     0.00000000000000    -0.24489001974575
   11     0.00000000000000     0.00000000000000     0.00000000000000     0.00000000000000     0.00351765258313
   12     0.00000000000000     0.00000000000000     0.00000000000000     0.00000000000000     0.00370364094848
   13     0.00000000000000     0.00000000000000     0.00000000000000     0.00000000000000     0.00034616426851

                11                  12                  13

    1     0.00000000000000     0.00000000000000     0.00000000000000
    2     0.00000000000000     0.00000000000000     0.00000000000000
    3     0.00000000000000     0.00000000000000     0.00000000000000
    4     0.00000000000000     0.00000000000000     0.00000000000000
    5     0.00000000000000     0.00000000000000     0.00000000000000
    6     0.00000000000000     0.00000000000000     0.00000000000000
    7     0.00000000000000     0.00000000000000     0.00000000000000
    8     0.00000000000000     0.00000000000000     0.00000000000000
    9     0.00000000000000     0.00000000000000     0.00000000000000
   10     0.00351765258313     0.00370364094848     0.00034616426851
   11     0.28003991894746     0.00134308964530    -0.00087332705410
   12     0.00134308964530     1.18254060644188    -0.00010208550204
   13    -0.00087332705410    -0.00010208550204     9.01267656312039




  Use semi-canonical orbitals.

  Diagonalizing Fock                  ...  Done. Timing        0.000110 s


    Molecular point group: c2v
    Full point group: C2v

    Geometry (in Bohr), charge = 0, multiplicity = 1:

       Center              X                  Y                   Z               Mass       
    ------------   -----------------  -----------------  -----------------  -----------------
          BE          0.000000000000     0.000000000000    -0.456946119527     9.012182201000
           H         -0.000000000000     1.390000000000     2.043053880473     1.007825032070
           H          0.000000000000    -1.390000000000     2.043053880473     1.007825032070

          BE
              CABS            inputblock anonymous313 36617505fdd03d90d8f7fa4694026223b5dffb86
           H
              CABS            inputblock anonymous313 790d3637a08eb5e579a9d845f3ae722494901299
           H
              CABS            inputblock anonymous313 790d3637a08eb5e579a9d845f3ae722494901299

  -AO BASIS SET INFORMATION:
    Name                   = inputblock anonymous313
    Total number of shells = 9
    Number of primitives   = 21
    Number of AO           = 13
    Number of SO           = 13
    Maximum AM             = 1
    Spherical Harmonics    = TRUE

  -Contraction Scheme:
    Atom   Type   All Primitives // Shells:
   ------ ------ --------------------------
       1    BE     10s 3p // 3s 2p 
       2     H     4s // 2s 
       3     H     4s // 2s 

  ==> AO Basis Functions <==

    [ inputblock anonymous313 ]
    spherical
    ****
   BE   1
    S   6 1.00
                      1267.07000000           0.00194000
                       190.35600000           0.01478600
                        43.29590000           0.07179500
                        12.14420000           0.23634800
                         3.80923000           0.47176300
                         1.26847000           0.35518300
    S   3 1.00
                         5.69388000          -0.02887600
                         1.55563000          -0.17756500
                         0.17185500           1.07163000
    S   1 1.00
                         0.05718100           1.00000000
    P   2 1.00
                         1.55563000           0.14404500
                         0.17185500           0.94969200
    P   1 1.00
                         5.69388000           1.00000000
    ****
    H   2
    S   3 1.00
                        19.24060000           0.03282800
                         2.89920000           0.23120800
                         0.65340000           0.81723800
    S   1 1.00
                         0.17760000           1.00000000
    ****


 Integrals are about to be computed.	Presorting SO-basis two-electron integrals.
	Sorting File: SO Ints (nn|nn) nbuckets = 1
	Transforming the one-electron integrals and constructing Fock matrices
	Starting first half-transformation.
	h = 0; memfree         = 65535862
	h = 0; rows_per_bucket = 41
	h = 0; rows_left       = 0
	h = 0; nbuckets        = 1
	h = 1; memfree         = 65535968
	h = 1; rows_per_bucket = 8
	h = 1; rows_left       = 0
	h = 1; nbuckets        = 1
	h = 2; memfree         = 65535944
	h = 2; rows_per_bucket = 14
	h = 2; rows_left       = 0
	h = 2; nbuckets        = 1
	h = 3; memfree         = 65535888
	h = 3; rows_per_bucket = 28
	h = 3; rows_left       = 0
	h = 3; nbuckets        = 1
	Sorting half-transformed integrals.
	First half integral transformation complete.
	Starting second half-transformation.
	h = 0; memfree         = 65535862
	h = 0; rows_per_bucket = 41
	h = 0; rows_left       = 0
	h = 0; nbuckets        = 1
	h = 1; memfree         = 65535968
	h = 1; rows_per_bucket = 8
	h = 1; rows_left       = 0
	h = 1; nbuckets        = 1
	h = 2; memfree         = 65535944
	h = 2; rows_per_bucket = 14
	h = 2; rows_left       = 0
	h = 2; nbuckets        = 1
	h = 3; memfree         = 65535888
	h = 3; rows_per_bucket = 28
	h = 3; rows_left       = 0
	h = 3; nbuckets        = 1
	Two-electron integral transformation complete.

  Integral transformation done. 0.00590400 s
  Reading the two-electron integrals from disk
  Size of two-electron integrals:   0.000638 GB
 Integrals are about to be updated.
  Frozen Orbitals takes     0.000 s.
  Diagonalizing Hamiltonian           ...

  Reference type: RHF
  Threshold for spin check: 0.10

  Spin State: S^2 = 0.000, S = 0.000, singlet (from 2 determinants)  Done. Timing        0.000089 s

  Spin selected CI vectors

 # Column #
 Irrep: 1
      1: -0.1934864
      2:  0.9811030

  Energy  =   -15.569761360883534


  * * * * * * * * * * * * * * * * *
  *  CI Vectors & Configurations  *
  * * * * * * * * * * * * * * * * *

  ==> Root No. 0 <==

    0 2          0.9811029628
    2 0         -0.1934863725

    Total Energy:   -15.569761360883534


  Forming one-particle density        ...  Done. Timing        0.000025 s  ## Da (Symmetry 0) ##
  Irrep: 1 Size: 13 x 13

                 1                   2                   3                   4                   5

    1     1.00000000000000     0.00000000000000     0.00000000000000     0.00000000000000     0.00000000000000
    2     0.00000000000000     1.00000000000000     0.00000000000000     0.00000000000000     0.00000000000000
    3     0.00000000000000     0.00000000000000     0.03743697635456     0.00000000000000     0.00000000000000
    4     0.00000000000000     0.00000000000000     0.00000000000000     0.00000000000000     0.00000000000000
    5     0.00000000000000     0.00000000000000     0.00000000000000     0.00000000000000     0.00000000000000
    6     0.00000000000000     0.00000000000000     0.00000000000000     0.00000000000000     0.00000000000000
    7     0.00000000000000     0.00000000000000     0.00000000000000     0.00000000000000     0.00000000000000
    8     0.00000000000000     0.00000000000000     0.00000000000000     0.00000000000000     0.00000000000000
    9     0.00000000000000     0.00000000000000     0.00000000000000     0.00000000000000     0.00000000000000
   10     0.00000000000000     0.00000000000000     0.00000000000000     0.00000000000000     0.00000000000000
   11     0.00000000000000     0.00000000000000     0.00000000000000     0.00000000000000     0.00000000000000
   12     0.00000000000000     0.00000000000000     0.00000000000000     0.00000000000000     0.00000000000000
   13     0.00000000000000     0.00000000000000     0.00000000000000     0.00000000000000     0.00000000000000

                 6                   7                   8                   9                  10

    1     0.00000000000000     0.00000000000000     0.00000000000000     0.00000000000000     0.00000000000000
    2     0.00000000000000     0.00000000000000     0.00000000000000     0.00000000000000     0.00000000000000
    3     0.00000000000000     0.00000000000000     0.00000000000000     0.00000000000000     0.00000000000000
    4     0.00000000000000     0.00000000000000     0.00000000000000     0.00000000000000     0.00000000000000
    5     0.00000000000000     0.00000000000000     0.00000000000000     0.00000000000000     0.00000000000000
    6     0.00000000000000     0.00000000000000     0.00000000000000     0.00000000000000     0.00000000000000
    7     0.00000000000000     0.00000000000000     0.00000000000000     0.00000000000000     0.00000000000000
    8     0.00000000000000     0.00000000000000     0.00000000000000     0.00000000000000     0.00000000000000
    9     0.00000000000000     0.00000000000000     0.00000000000000     0.00000000000000     0.00000000000000
   10     0.00000000000000     0.00000000000000     0.00000000000000     0.00000000000000     0.96256302364544
   11     0.00000000000000     0.00000000000000     0.00000000000000     0.00000000000000     0.00000000000000
   12     0.00000000000000     0.00000000000000     0.00000000000000     0.00000000000000     0.00000000000000
   13     0.00000000000000     0.00000000000000     0.00000000000000     0.00000000000000     0.00000000000000

                11                  12                  13

    1     0.00000000000000     0.00000000000000     0.00000000000000
    2     0.00000000000000     0.00000000000000     0.00000000000000
    3     0.00000000000000     0.00000000000000     0.00000000000000
    4     0.00000000000000     0.00000000000000     0.00000000000000
    5     0.00000000000000     0.00000000000000     0.00000000000000
    6     0.00000000000000     0.00000000000000     0.00000000000000
    7     0.00000000000000     0.00000000000000     0.00000000000000
    8     0.00000000000000     0.00000000000000     0.00000000000000
    9     0.00000000000000     0.00000000000000     0.00000000000000
   10     0.00000000000000     0.00000000000000     0.00000000000000
   11     0.00000000000000     0.00000000000000     0.00000000000000
   12     0.00000000000000     0.00000000000000     0.00000000000000
   13     0.00000000000000     0.00000000000000     0.00000000000000



  ## Db (Symmetry 0) ##
  Irrep: 1 Size: 13 x 13

                 1                   2                   3                   4                   5

    1     1.00000000000000     0.00000000000000     0.00000000000000     0.00000000000000     0.00000000000000
    2     0.00000000000000     1.00000000000000     0.00000000000000     0.00000000000000     0.00000000000000
    3     0.00000000000000     0.00000000000000     0.03743697635456     0.00000000000000     0.00000000000000
    4     0.00000000000000     0.00000000000000     0.00000000000000     0.00000000000000     0.00000000000000
    5     0.00000000000000     0.00000000000000     0.00000000000000     0.00000000000000     0.00000000000000
    6     0.00000000000000     0.00000000000000     0.00000000000000     0.00000000000000     0.00000000000000
    7     0.00000000000000     0.00000000000000     0.00000000000000     0.00000000000000     0.00000000000000
    8     0.00000000000000     0.00000000000000     0.00000000000000     0.00000000000000     0.00000000000000
    9     0.00000000000000     0.00000000000000     0.00000000000000     0.00000000000000     0.00000000000000
   10     0.00000000000000     0.00000000000000     0.00000000000000     0.00000000000000     0.00000000000000
   11     0.00000000000000     0.00000000000000     0.00000000000000     0.00000000000000     0.00000000000000
   12     0.00000000000000     0.00000000000000     0.00000000000000     0.00000000000000     0.00000000000000
   13     0.00000000000000     0.00000000000000     0.00000000000000     0.00000000000000     0.00000000000000

                 6                   7                   8                   9                  10

    1     0.00000000000000     0.00000000000000     0.00000000000000     0.00000000000000     0.00000000000000
    2     0.00000000000000     0.00000000000000     0.00000000000000     0.00000000000000     0.00000000000000
    3     0.00000000000000     0.00000000000000     0.00000000000000     0.00000000000000     0.00000000000000
    4     0.00000000000000     0.00000000000000     0.00000000000000     0.00000000000000     0.00000000000000
    5     0.00000000000000     0.00000000000000     0.00000000000000     0.00000000000000     0.00000000000000
    6     0.00000000000000     0.00000000000000     0.00000000000000     0.00000000000000     0.00000000000000
    7     0.00000000000000     0.00000000000000     0.00000000000000     0.00000000000000     0.00000000000000
    8     0.00000000000000     0.00000000000000     0.00000000000000     0.00000000000000     0.00000000000000
    9     0.00000000000000     0.00000000000000     0.00000000000000     0.00000000000000     0.00000000000000
   10     0.00000000000000     0.00000000000000     0.00000000000000     0.00000000000000     0.96256302364544
   11     0.00000000000000     0.00000000000000     0.00000000000000     0.00000000000000     0.00000000000000
   12     0.00000000000000     0.00000000000000     0.00000000000000     0.00000000000000     0.00000000000000
   13     0.00000000000000     0.00000000000000     0.00000000000000     0.00000000000000     0.00000000000000

                11                  12                  13

    1     0.00000000000000     0.00000000000000     0.00000000000000
    2     0.00000000000000     0.00000000000000     0.00000000000000
    3     0.00000000000000     0.00000000000000     0.00000000000000
    4     0.00000000000000     0.00000000000000     0.00000000000000
    5     0.00000000000000     0.00000000000000     0.00000000000000
    6     0.00000000000000     0.00000000000000     0.00000000000000
    7     0.00000000000000     0.00000000000000     0.00000000000000
    8     0.00000000000000     0.00000000000000     0.00000000000000
    9     0.00000000000000     0.00000000000000     0.00000000000000
   10     0.00000000000000     0.00000000000000     0.00000000000000
   11     0.00000000000000     0.00000000000000     0.00000000000000
   12     0.00000000000000     0.00000000000000     0.00000000000000
   13     0.00000000000000     0.00000000000000     0.00000000000000




  Forming generalized Fock matrix     ...  Done. Timing        0.000039 s
  Checking Fock matrices (Fa, Fb)     ...
  Nonzero criteria: > 1.00E-12
  Fa_CORE    block is diagonal.
  Fb_CORE    block is diagonal.
  Fa_ACTIVE  block is diagonal.
  Fb_ACTIVE  block is diagonal.
  Fa_VIRTUAL block is diagonal.
  Fb_VIRTUAL block is diagonal.
  Done checking Fock matrices.                   Timing        0.000041 s
  ## Fa (Symmetry 0) ##
  Irrep: 1 Size: 13 x 13

                 1                   2                   3                   4                   5

    1    -4.73992357099596     0.00000000000000    -0.00042001558110    -0.00000000067678     0.00000000064714
    2    -0.00000000000000    -0.50074669376483    -0.00585380384823     0.00000000035141    -0.00000000101504
    3    -0.00042001558110    -0.00585380384823     0.06426121446636     0.04812184264786    -0.12150182660188
    4    -0.00000000067678     0.00000000035141     0.04812184264786     0.26447117153820     0.00000000000000
    5     0.00000000064714    -0.00000000101504    -0.12150182660188     0.00000000000000     0.35387963777757
    6    -0.00000000026844     0.00000000053447     0.17921393715983    -0.00000000000000     0.00000000000000
    7    -0.00000000037661    -0.00000000004195     0.01765350492548     0.00000000000000    -0.00000000000000
    8     0.00000000000000     0.00000000000000     0.00000000000000     0.00000000000000     0.00000000000000
    9     0.00000000000000     0.00000000000000     0.00000000000000     0.00000000000000     0.00000000000000
   10     0.00000000000000     0.00000000000000     0.00000000000000     0.00000000000000     0.00000000000000
   11     0.00000000000000     0.00000000000000     0.00000000000000     0.00000000000000     0.00000000000000
   12     0.00000000000000     0.00000000000000     0.00000000000000     0.00000000000000     0.00000000000000
   13     0.00000000000000     0.00000000000000     0.00000000000000     0.00000000000000     0.00000000000000

                 6                   7                   8                   9                  10

    1    -0.00000000026844    -0.00000000037661     0.00000000000000     0.00000000000000     0.00000000000000
    2     0.00000000053448    -0.00000000004195     0.00000000000000     0.00000000000000     0.00000000000000
    3     0.17921393715984     0.01765350492548     0.00000000000000     0.00000000000000     0.00000000000000
    4     0.00000000000000    -0.00000000000000     0.00000000000000     0.00000000000000     0.00000000000000
    5    -0.00000000000000     0.00000000000000     0.00000000000000     0.00000000000000     0.00000000000000
    6     1.26627632707520    -0.00000000000000     0.00000000000000     0.00000000000000     0.00000000000000
    7     0.00000000000000     9.10384581168253     0.00000000000000     0.00000000000000     0.00000000000000
    8     0.00000000000000     0.00000000000000     0.14836125679501    -0.00000000000000     0.00000000000000
    9     0.00000000000000     0.00000000000000     0.00000000000000     8.96224990915074     0.00000000000000
   10     0.00000000000000     0.00000000000000     0.00000000000000     0.00000000000000    -0.24489001974575
   11     0.00000000000000     0.00000000000000     0.00000000000000     0.00000000000000     0.00351217163427
   12     0.00000000000000     0.00000000000000     0.00000000000000     0.00000000000000    -0.00370887627955
   13     0.00000000000000     0.00000000000000     0.00000000000000     0.00000000000000     0.00034576411910

                11                  12                  13

    1     0.00000000000000     0.00000000000000     0.00000000000000
    2     0.00000000000000     0.00000000000000     0.00000000000000
    3     0.00000000000000     0.00000000000000     0.00000000000000
    4     0.00000000000000     0.00000000000000     0.00000000000000
    5     0.00000000000000     0.00000000000000     0.00000000000000
    6     0.00000000000000     0.00000000000000     0.00000000000000
    7     0.00000000000000     0.00000000000000     0.00000000000000
    8     0.00000000000000     0.00000000000000     0.00000000000000
    9     0.00000000000000     0.00000000000000     0.00000000000000
   10     0.00351217163427    -0.00370887627955     0.00034576411910
   11     0.28003783287511    -0.00000000000000     0.00000000000000
   12     0.00000000000000     1.18254260384075     0.00000000000000
   13     0.00000000000000     0.00000000000000     9.01267665179387



  ## Fb (Symmetry 0) ##
  Irrep: 1 Size: 13 x 13

                 1                   2                   3                   4                   5

    1    -4.73992357099596     0.00000000000000    -0.00042001558110    -0.00000000067678     0.00000000064714
    2    -0.00000000000000    -0.50074669376483    -0.00585380384823     0.00000000035141    -0.00000000101504
    3    -0.00042001558110    -0.00585380384823     0.06426121446636     0.04812184264786    -0.12150182660188
    4    -0.00000000067678     0.00000000035141     0.04812184264786     0.26447117153820     0.00000000000000
    5     0.00000000064714    -0.00000000101504    -0.12150182660188     0.00000000000000     0.35387963777757
    6    -0.00000000026844     0.00000000053447     0.17921393715983    -0.00000000000000     0.00000000000000
    7    -0.00000000037661    -0.00000000004195     0.01765350492548     0.00000000000000    -0.00000000000000
    8     0.00000000000000     0.00000000000000     0.00000000000000     0.00000000000000     0.00000000000000
    9     0.00000000000000     0.00000000000000     0.00000000000000     0.00000000000000     0.00000000000000
   10     0.00000000000000     0.00000000000000     0.00000000000000     0.00000000000000     0.00000000000000
   11     0.00000000000000     0.00000000000000     0.00000000000000     0.00000000000000     0.00000000000000
   12     0.00000000000000     0.00000000000000     0.00000000000000     0.00000000000000     0.00000000000000
   13     0.00000000000000     0.00000000000000     0.00000000000000     0.00000000000000     0.00000000000000

                 6                   7                   8                   9                  10

    1    -0.00000000026844    -0.00000000037661     0.00000000000000     0.00000000000000     0.00000000000000
    2     0.00000000053448    -0.00000000004195     0.00000000000000     0.00000000000000     0.00000000000000
    3     0.17921393715984     0.01765350492548     0.00000000000000     0.00000000000000     0.00000000000000
    4     0.00000000000000    -0.00000000000000     0.00000000000000     0.00000000000000     0.00000000000000
    5    -0.00000000000000    -0.00000000000000     0.00000000000000     0.00000000000000     0.00000000000000
    6     1.26627632707520    -0.00000000000000     0.00000000000000     0.00000000000000     0.00000000000000
    7     0.00000000000000     9.10384581168253     0.00000000000000     0.00000000000000     0.00000000000000
    8     0.00000000000000     0.00000000000000     0.14836125679501    -0.00000000000000     0.00000000000000
    9     0.00000000000000     0.00000000000000     0.00000000000000     8.96224990915074     0.00000000000000
   10     0.00000000000000     0.00000000000000     0.00000000000000     0.00000000000000    -0.24489001974575
   11     0.00000000000000     0.00000000000000     0.00000000000000     0.00000000000000     0.00351217163427
   12     0.00000000000000     0.00000000000000     0.00000000000000     0.00000000000000    -0.00370887627955
   13     0.00000000000000     0.00000000000000     0.00000000000000     0.00000000000000     0.00034576411910

                11                  12                  13

    1     0.00000000000000     0.00000000000000     0.00000000000000
    2     0.00000000000000     0.00000000000000     0.00000000000000
    3     0.00000000000000     0.00000000000000     0.00000000000000
    4     0.00000000000000     0.00000000000000     0.00000000000000
    5     0.00000000000000     0.00000000000000     0.00000000000000
    6     0.00000000000000     0.00000000000000     0.00000000000000
    7     0.00000000000000     0.00000000000000     0.00000000000000
    8     0.00000000000000     0.00000000000000     0.00000000000000
    9     0.00000000000000     0.00000000000000     0.00000000000000
   10     0.00351217163427    -0.00370887627955     0.00034576411910
   11     0.28003783287511    -0.00000000000000     0.00000000000000
   12     0.00000000000000     1.18254260384075     0.00000000000000
   13     0.00000000000000     0.00000000000000     9.01267665179387




  Computing oscillator strength in c2v symmetry.
  Currently only support transitions with the same irrep.
  Please set molecular symmetry to C1.

  Forming Lambda2                     ...  Done. Timing        0.000054 s
  ** L2aa **
  Lambda [  0][  1][  0][  1] = -0.036035449155986
  Lambda [  0][  1][  1][  0] =  0.036035449155986
  Lambda [  1][  0][  0][  1] =  0.036035449155986
  Lambda [  1][  0][  1][  0] = -0.036035449155986

  Number of Nonzero Elements: 4

  ** L2ab **
  Lambda [  0][  0][  0][  0] =  0.036035449155986
  Lambda [  0][  0][  1][  1] = -0.189830053352956
  Lambda [  0][  1][  0][  1] = -0.036035449155986
  Lambda [  1][  0][  1][  0] = -0.036035449155986
  Lambda [  1][  1][  0][  0] = -0.189830053352956
  Lambda [  1][  1][  1][  1] =  0.036035449155986

  Number of Nonzero Elements: 6

  ** L2bb **
  Lambda [  0][  1][  0][  1] = -0.036035449155986
  Lambda [  0][  1][  1][  0] =  0.036035449155986
  Lambda [  1][  0][  0][  1] =  0.036035449155986
  Lambda [  1][  0][  1][  0] = -0.036035449155986

  Number of Nonzero Elements: 4

  Forming Lambda3                     ...  Done. Timing        0.000084 s

                  -------------------------------------------
                    Driven Similarity Renormalization Group
                      Second-Order Perturbative Analysis
                                  Chenyang Li
                  -------------------------------------------


  ==> Small Denominators for T1 with RE Partitioning <==

    NULL.

  ==> Small Denominators for T2aa with RE Partitioning <==

          Indices            Denominator      Original Denom.
    ---------------------------------------------------------
       2    9    2   10    -0.141172384887    -0.524927852621
       2    9    9    3    -0.251085090566    -0.200209957072
       2    9    9    4    -0.252006103136    -0.289618423311
       2    9    3   10    -0.377165304280    -0.725137809693
       2    9    4   10    -0.391818661608    -0.814546275932
       2    1    2    3    -0.275926123144    -0.765217865303
       2    1    2    4    -0.277427722776    -0.854626331542
       2    1    9   10    -0.284437021384    -0.471633292428
       9    1    2    9    -0.012944212757    -0.565007908231
       9    1    2   10    -0.159208262079    -1.089935760852
       9    1    9    3    -0.337553253305    -0.765217865303
       9    1    9    4    -0.255654472916    -0.854626331542
       9    1    3   10    -0.441896580370    -1.290145717924
       9    1    4   10    -0.373730144738    -1.379554184163
    ---------------------------------------------------------

  ==> Small Denominators for T2ab with RE Partitioning <==

          Indices            Denominator      Original Denom.
    ---------------------------------------------------------
       2    2    2    3    -0.295253692820    -0.200209957072
       2    2    2    4    -0.381024000006    -0.289618423311
       2    2    9   11     0.433471659804    -0.809130155162
       2    2    3    3    -0.464291011949    -0.400419914144
       2    2    7    7    -0.393769267438    -0.168200084657
       2    9    9    5     0.497708542700    -1.202015112609
       2    1    9   11     0.351520819893    -1.374138063393
       9    9    9   10     0.414695202358    -0.524927852621
       9    9    9   11    -0.037041119043    -1.427432623586
       9    1    9    3     0.002131601098    -0.765217865303
       9    1    9    4     0.094729535263    -0.854626331542
       9    1    9    5    -0.295476790031    -1.767023020840
       1    1    9   11     0.211941194720    -1.939145971625
    ---------------------------------------------------------

  ==> Correlated Subspace Indices <==

    CORE                             0    1 
    ACTIVE                           2    9 
    HOLE                             2    9    0    1 
    VIRTUAL                          3    4    5    6    7    8   10   11   12 
    PARTICLE                         2    9    3    4    5    6    7    8   10   11   12 

  Computing reference energy using density cumulant ...			Done.

  Computing MR-DSRG-PT2 T amplitudes ...
  Form T amplitudes using DSRG formalism.
  Done.

  ==> Largest T2 amplitudes for spin case AA: <==

     i   j   a   b              i   j   a   b              i   j   a   b          
  --------------------------------------------------------------------------------
  [  2   9   3   9] -0.17514 [  9   2   3   9]  0.17514 [  9   2   9   3] -0.17514 
  [  2   9   9   3]  0.17514 [  2   1  10   9]  0.06954 [  1   2  10   9] -0.06954 
  [  2   1   9  10] -0.06954 [  1   2   9  10]  0.06954 [  9   2   9   4]  0.06508 
  [  9   2   4   9] -0.06508 [  2   9   4   9]  0.06508 [  2   9   9   4] -0.06508 
  [  2   1   4   2]  0.05961 [  1   2   2   4]  0.05961 [  2   1   2   4] -0.05961 
  --------------------------------------------------------------------------------
  Norm of T2AA vector: (nonzero elements:          440)         0.460056674850452.
  --------------------------------------------------------------------------------

  ==> T2 intruder states analysis for spin case AA: <==
  -----------------------------------------------------------------------------------------
      Amplitude        Value   Numerator                   Denominator
  -----------------------------------------------------------------------------------------
  [  2   9   3   9] = -0.1751 =  0.0351 / ( 0.0643 + -0.2449 -  0.2645 - -0.2449 = -0.2002)
  [  9   2   3   9] =  0.1751 = -0.0351 / (-0.2449 +  0.0643 -  0.2645 - -0.2449 = -0.2002)
  [  2   9   9   3] =  0.1751 = -0.0351 / ( 0.0643 + -0.2449 - -0.2449 -  0.2645 = -0.2002)
  [  9   2   9   3] = -0.1751 =  0.0351 / (-0.2449 +  0.0643 - -0.2449 -  0.2645 = -0.2002)
  -----------------------------------------------------------------------------------------

  ==> Largest T2 amplitudes for spin case AB: <==
         _       _                  _       _                  _       _          
     i   j   a   b              i   j   a   b              i   j   a   b          
  --------------------------------------------------------------------------------
  [  1   2   9   9]  0.35935 [  2   1   9   9]  0.35935 [  2   2   7   7] -0.34479 
  [  2   2   3   2] -0.26681 [  2   2   2   3] -0.26681 [  1   1   9   9] -0.20746 
  [  2   9   3   9] -0.20166 [  9   2   9   3] -0.20166 [  2   2  10  10] -0.14651 
  [  1   2   9  10]  0.14135 [  2   1  10   9]  0.14135 [  2   9   4   9]  0.10085 
  [  9   2   9   4]  0.10085 [  2   2   4   4] -0.10084 [  2   2   4   2] -0.08145 
  --------------------------------------------------------------------------------
  Norm of T2AB vector: (nonzero elements:          682)         0.934888072440036.
  --------------------------------------------------------------------------------

  ==> T2 intruder states analysis for spin case AB: <==
  -----------------------------------------------------------------------------------------
      Amplitude        Value   Numerator                   Denominator
  -----------------------------------------------------------------------------------------
  [  1   2   9   9] =  0.3593 =  0.0192 / (-0.5007 +  0.0643 - -0.2449 - -0.2449 =  0.0533)
  [  2   1   9   9] =  0.3593 =  0.0192 / ( 0.0643 + -0.5007 - -0.2449 - -0.2449 =  0.0533)
  [  2   2   7   7] = -0.3448 =  0.0580 / ( 0.0643 +  0.0643 -  0.1484 -  0.1484 = -0.1682)
  [  2   2   3   2] = -0.2668 =  0.0534 / ( 0.0643 +  0.0643 -  0.2645 -  0.0643 = -0.2002)
  [  2   2   2   3] = -0.2668 =  0.0534 / ( 0.0643 +  0.0643 -  0.0643 -  0.2645 = -0.2002)
  [  1   1   9   9] = -0.2075 =  0.1062 / (-0.5007 + -0.5007 - -0.2449 - -0.2449 = -0.5117)
  [  2   9   3   9] = -0.2017 =  0.0404 / ( 0.0643 + -0.2449 -  0.2645 - -0.2449 = -0.2002)
  [  9   2   9   3] = -0.2017 =  0.0404 / (-0.2449 +  0.0643 - -0.2449 -  0.2645 = -0.2002)
  [  2   2  10  10] = -0.1465 =  0.0632 / ( 0.0643 +  0.0643 -  0.2800 -  0.2800 = -0.4316)
  [  1   2   9  10] =  0.1414 = -0.0667 / (-0.5007 +  0.0643 - -0.2449 -  0.2800 = -0.4716)
  [  2   1  10   9] =  0.1414 = -0.0667 / ( 0.0643 + -0.5007 -  0.2800 - -0.2449 = -0.4716)
  [  2   9   4   9] =  0.1009 = -0.0292 / ( 0.0643 + -0.2449 -  0.3539 - -0.2449 = -0.2896)
  [  9   2   9   4] =  0.1009 = -0.0292 / (-0.2449 +  0.0643 - -0.2449 -  0.3539 = -0.2896)
  [  2   2   4   4] = -0.1008 =  0.0584 / ( 0.0643 +  0.0643 -  0.3539 -  0.3539 = -0.5792)
  -----------------------------------------------------------------------------------------

  ==> Largest T2 amplitudes for spin case BB: <==
     _   _   _   _              _   _   _   _              _   _   _   _          
     i   j   a   b              i   j   a   b              i   j   a   b          
  --------------------------------------------------------------------------------
  [  2   9   9   3]  0.17514 [  2   9   3   9] -0.17514 [  9   2   9   3] -0.17514 
  [  9   2   3   9]  0.17514 [  2   1   9  10] -0.06954 [  2   1  10   9]  0.06954 
  [  1   2   9  10]  0.06954 [  1   2  10   9] -0.06954 [  9   2   9   4]  0.06508 
  [  2   9   9   4] -0.06508 [  2   9   4   9]  0.06508 [  9   2   4   9] -0.06508 
  [  2   1   4   2]  0.05961 [  1   2   4   2] -0.05961 [  1   2   2   4]  0.05961 
  --------------------------------------------------------------------------------
  Norm of T2BB vector: (nonzero elements:          440)         0.460056674850452.
  --------------------------------------------------------------------------------

  ==> T2 intruder states analysis for spin case BB: <==
  -----------------------------------------------------------------------------------------
      Amplitude        Value   Numerator                   Denominator
  -----------------------------------------------------------------------------------------
  [  2   9   9   3] =  0.1751 = -0.0351 / ( 0.0643 + -0.2449 - -0.2449 -  0.2645 = -0.2002)
  [  2   9   3   9] = -0.1751 =  0.0351 / ( 0.0643 + -0.2449 -  0.2645 - -0.2449 = -0.2002)
  [  9   2   9   3] = -0.1751 =  0.0351 / (-0.2449 +  0.0643 - -0.2449 -  0.2645 = -0.2002)
  [  9   2   3   9] =  0.1751 = -0.0351 / (-0.2449 +  0.0643 -  0.2645 - -0.2449 = -0.2002)
  -----------------------------------------------------------------------------------------

  ==> Largest T1 amplitudes for spin case A: <==

     i       a                  i       a                  i       a              
  --------------------------------------------------------------------------------
  [  2       4    ]  0.41952 [  2       3    ] -0.24036 [  2       5    ] -0.14909 
  [  1       2    ]  0.01036 [  9      10    ] -0.00669 [  9      11    ]  0.00260 
  [  2       6    ] -0.00195 [  0       2    ]  0.00009 [  9      12    ] -0.00004 
  [  1       4    ]  0.00000 [  1       3    ] -0.00000 [  1       5    ] -0.00000 
  [  0       3    ]  0.00000 [  0       4    ] -0.00000 [  0       5    ]  0.00000 
  --------------------------------------------------------------------------------
  Norm of T1A vector: (nonzero elements:           17)          0.506126015386411.
  --------------------------------------------------------------------------------

  ==> T1 intruder states analysis for spin case A: <==
  ---------------------------------------------------------------------
      Amplitude        Value   Numerator          Denominator
  ---------------------------------------------------------------------
  [  2       4    ] =  0.4195 = -0.1215 / ( 0.0643 -  0.3539 = -0.2896)
  [  2       3    ] = -0.2404 =  0.0481 / ( 0.0643 -  0.2645 = -0.2002)
  [  2       5    ] = -0.1491 =  0.1792 / ( 0.0643 -  1.2663 = -1.2020)
  ---------------------------------------------------------------------

  ==> Largest T1 amplitudes for spin case B: <==
     _       _                  _       _                  _       _              
     i       a                  i       a                  i       a              
  --------------------------------------------------------------------------------
  [  2       4    ]  0.41952 [  2       3    ] -0.24036 [  2       5    ] -0.14909 
  [  1       2    ]  0.01036 [  9      10    ] -0.00669 [  9      11    ]  0.00260 
  [  2       6    ] -0.00195 [  0       2    ]  0.00009 [  9      12    ] -0.00004 
  [  1       4    ]  0.00000 [  1       3    ] -0.00000 [  1       5    ] -0.00000 
  [  0       3    ]  0.00000 [  0       4    ] -0.00000 [  0       5    ]  0.00000 
  --------------------------------------------------------------------------------
  Norm of T1B vector: (nonzero elements:           17)          0.506126015386411.
  --------------------------------------------------------------------------------

  ==> T1 intruder states analysis for spin case B: <==
  ---------------------------------------------------------------------
      Amplitude        Value   Numerator          Denominator
  ---------------------------------------------------------------------
  [  2       4    ] =  0.4195 = -0.1215 / ( 0.0643 -  0.3539 = -0.2896)
  [  2       3    ] = -0.2404 =  0.0481 / ( 0.0643 -  0.2645 = -0.2002)
  [  2       5    ] = -0.1491 =  0.1792 / ( 0.0643 -  1.2663 = -1.2020)
  ---------------------------------------------------------------------

  Computing the MR-DSRG-PT2 effective Fock matrix ...			Done.
  Computing the MR-DSRG-PT2 effective two-electron integrals ...	Done.

  Computing energy of [F, T1] ...					Done.
  Computing energy of [V, T1] and [F, T2] ...				Done.
  Computing energy of [V, T2] C_2^4 ...					Done.
  Computing energy of [V, T2] C_2^2 * C_4 ...				Done.
  Computing energy of [V, T2] C_2 * C_6 ...				Done.
  
  ==> MC-DSRG-PT2 Energy Summary <==
  
    E0 (cumulant)                 =    -15.569761360883534
    E([F, T1])                    =     -0.006866409657442
    E([V, T1])                    =      0.006866409569065
    E([V, T1]: V)                 =      0.006749582415591
    E([V, T1]: C)                 =      0.000116827153474
    E([F, T2])                    =      0.003999655607267
    E([F, T2]: V)                 =      0.004756782650259
    E([F, T2]: C)                 =     -0.000757127042993
    E([V, T2] C_2^4)              =     -0.056789258852066
    E([V, T2] C_2^2 * C_4)        =     -0.006490603872755
    E([V, T2] C_2^2 * C_4: PP)    =      0.003883716760568
    E([V, T2] C_2^2 * C_4: HH)    =      0.002566547025392
    E([V, T2] C_2^2 * C_4: PH)    =     -0.012940867658715
    E([V, T2] C_2 * C_6)          =      0.001856678799034
    E([V, T2] C_2 * C_6: H)       =      0.000618529239742
    E([V, T2] C_2 * C_6: P)       =      0.001238149559292
    E([V, T2])                    =     -0.061423183925787
    E(SRGPT2)                     =     -0.057423528406897
  * E(Total)                      =    -15.627184889290431
    max(T1)                       =      0.419523817624416
    max(T2)                       =      0.359349746713081
    ||T1||                        =      0.715770275229316
    ||T2||                        =      1.979739154563422
    

  Your calculation took 0.16078700 seconds
	MR-DSRG-PT2 energy................................................PASSED

*** Psi4 exiting successfully. Buy a developer a beer!
