
    -----------------------------------------------------------------------
          Psi4: An Open-Source Ab Initio Electronic Structure Package
                               Psi4 1.1a2.dev169 

                         Git: Rev {master} b2d0904 


    J. M. Turney, A. C. Simmonett, R. M. Parrish, E. G. Hohenstein,
    F. A. Evangelista, J. T. Fermann, B. J. Mintz, L. A. Burns, J. J. Wilke,
    M. L. Abrams, N. J. Russ, M. L. Leininger, C. L. Janssen, E. T. Seidl,
    W. D. Allen, H. F. Schaefer, R. A. King, E. F. Valeev, C. D. Sherrill,
    and T. D. Crawford, WIREs Comput. Mol. Sci. 2, 556-565 (2012)
    (doi: 10.1002/wcms.93)


                         Additional Contributions by
    A. E. DePrince, U. Bozkaya, A. Yu. Sokolov, D. G. A. Smith, R. Di Remigio,
    R. M. Richard, J. F. Gonthier, H. R. McAlexander, M. Saitow, and
    B. P. Pritchard
    -----------------------------------------------------------------------


    Psi4 started on: Thursday, 09 February 2017 03:04PM

    Process ID:  24601
    PSIDATADIR: /Users/jeffschriber/src/psi4_debug_install/share/psi4
    Memory:     500.0 MiB
    Threads:    1
    
  ==> Input File <==

--------------------------------------------------------------------------
#
#This tests the EX-CI procedure using energy selection
#! Generated using commit GITCOMMIT
# Tests root-selection 

import forte 

refscf = -14.839846512738 #TEST
refaci = -14.8800852309 #TEST
refacipt2 = -14.889209535 #TEST

molecule li2{
   Li
   Li 1 2.0000
}

set {
  basis DZ
  e_convergence 10
  d_convergence 10
  r_convergence 10
  reference rhf
  scf_type pk
  docc = [2,0,0,0,0,1,0,0]
  guess gwh
}

set forte {
  job_type aci
  SELECT_TYPE energy
  perturb_select false
  pq_function average
  excited_algorithm root_select
  root 0
  gamma 0.1
  sigma 0.001000
  nroot 2
  charge 0
  enforce_spin_complete false
  aci_initial_space cis
}

energy('scf')

compare_values(refscf, get_variable("CURRENT ENERGY"),9, "SCF energy") #TEST

energy('forte')
compare_values(refaci, get_variable("ACI ENERGY"),9, "ACI energy") #TEST
compare_values(refacipt2, get_variable("ACI+PT2 ENERGY"),8, "ACI+PT2 energy") #TEST
--------------------------------------------------------------------------
/Users/jeffschriber/src/forte/forte.so loaded.

*** tstart() called on Jeffs-MacBook-Pro-2.local
*** at Thu Feb  9 15:04:48 2017

    There are an even number of electrons - assuming singlet.
    Specify the multiplicity in the molecule input block.


         ---------------------------------------------------------
                                   SCF
            by Justin Turney, Rob Parrish, and Andy Simmonett
                              RHF Reference
                        1 Threads,    524 MiB Core
         ---------------------------------------------------------

  ==> Geometry <==

    Molecular point group: d2h
    Full point group: D_inf_h

    Geometry (in Angstrom), charge = 0, multiplicity = 1:

       Center              X                  Y                   Z               Mass       
    ------------   -----------------  -----------------  -----------------  -----------------
          LI          0.000000000000     0.000000000000    -1.000000000000     7.016004548000
          LI          0.000000000000     0.000000000000     1.000000000000     7.016004548000

  Running in d2h symmetry.

  Rotational constants: A = ************  B =      1.20137  C =      1.20137 [cm^-1]
  Rotational constants: A = ************  B =  36016.15432  C =  36016.15432 [MHz]
  Nuclear repulsion =    2.381297438654999

  Charge       = 0
  Multiplicity = 1
  Electrons    = 6
  Nalpha       = 3
  Nbeta        = 3

  ==> Algorithm <==

  SCF Algorithm Type is PK.
  DIIS enabled.
  MOM disabled.
  Fractional occupation disabled.
  Guess Type is GWH.
  Energy threshold   = 1.00e-10
  Density threshold  = 1.00e-10
  Integral threshold = 0.00e+00

  ==> Primary Basis <==

  Basis Set: file /Users/jeffschriber/src/psi4_debug_install/share/psi4/basis/dz.gbs
    Number of shells: 12
    Number of basis function: 20
    Number of Cartesian functions: 20
    Spherical Harmonics?: false
    Max angular momentum: 1

  ==> Pre-Iterations <==

   -------------------------------------------------------
    Irrep   Nso     Nmo     Nalpha   Nbeta   Ndocc  Nsocc
   -------------------------------------------------------
     Ag         6       6       2       2       2       0
     B1g        0       0       0       0       0       0
     B2g        2       2       0       0       0       0
     B3g        2       2       0       0       0       0
     Au         0       0       0       0       0       0
     B1u        6       6       1       1       1       0
     B2u        2       2       0       0       0       0
     B3u        2       2       0       0       0       0
   -------------------------------------------------------
    Total      20      20       3       3       3       0
   -------------------------------------------------------

  ==> Integral Setup <==

  Using in-core PK algorithm.
   Calculation information:
      Number of atoms:                   2
      Number of AO shells:              12
      Number of primitives:             26
      Number of atomic orbitals:        20
      Number of basis functions:        20

      Integral cutoff                 1.00e-12
      Number of threads:                 1

  Performing in-core PK
  Using 44310 doubles for integral storage.
  We computed 3081 shell quartets total.
  Whereas there are 3081 unique shell quartets.
  ==> DiskJK: Disk-Based J/K Matrices <==

    J tasked:                  Yes
    K tasked:                  Yes
    wK tasked:                  No
    Memory (MB):               375
    Schwarz Cutoff:          1E-12

    OpenMP threads:              1
  Minimum eigenvalue in the overlap matrix is 1.9077689073E-03.
  Using Symmetric Orthogonalization.

  SCF Guess: Generalized Wolfsberg-Helmholtz.

  ==> Iterations <==

                        Total Energy        Delta E     RMS |[F,P]|

   @RHF iter   1:   -12.53594429341653   -1.25359e+01   2.23153e-01 
   @RHF iter   2:   -14.79787116902154   -2.26193e+00   2.68650e-02 DIIS
   @RHF iter   3:   -14.83869372123890   -4.08226e-02   2.13956e-03 DIIS
   @RHF iter   4:   -14.83976138830911   -1.06767e-03   5.27743e-04 DIIS
   @RHF iter   5:   -14.83984602258661   -8.46343e-05   4.48938e-05 DIIS
   @RHF iter   6:   -14.83984649363681   -4.71050e-07   6.75092e-06 DIIS
   @RHF iter   7:   -14.83984651196292   -1.83261e-08   1.27728e-06 DIIS
   @RHF iter   8:   -14.83984651272109   -7.58174e-10   1.65929e-07 DIIS
   @RHF iter   9:   -14.83984651273754   -1.64473e-11   3.05615e-08 DIIS
   @RHF iter  10:   -14.83984651273807   -5.25802e-13   4.17482e-10 DIIS
   @RHF iter  11:   -14.83984651273806    5.32907e-15   9.58735e-12 DIIS

  ==> Post-Iterations <==

    Orbital Energies (a.u.)
    -----------------------

    Doubly Occupied:                                                      

       1Ag    -2.470948     1B1u   -2.465815     2Ag    -0.194380  

    Virtual:                                                              

       2B1u    0.012721     1B3u    0.026034     1B2u    0.026034  
       3Ag     0.049075     1B2g    0.069563     1B3g    0.069563  
       3B1u    0.080420     4Ag     0.130086     2B3u    0.137741  
       2B2u    0.137741     5Ag     0.171764     2B2g    0.242777  
       2B3g    0.242777     4B1u    0.246004     5B1u    0.480486  
       6Ag     1.695539     6B1u    1.801802  

    Final Occupation by Irrep:
             Ag   B1g   B2g   B3g    Au   B1u   B2u   B3u 
    DOCC [     2,    0,    0,    0,    0,    1,    0,    0 ]

  Energy converged.

  @RHF Final Energy:   -14.83984651273806

   => Energetics <=

    Nuclear Repulsion Energy =              2.3812974386549994
    One-Electron Energy =                 -24.1800018295045156
    Two-Electron Energy =                   6.9588578781114538
    DFT Exchange-Correlation Energy =       0.0000000000000000
    Empirical Dispersion Energy =           0.0000000000000000
    PCM Polarization Energy =               0.0000000000000000
    EFP Energy =                            0.0000000000000000
    Total Energy =                        -14.8398465127380614

    Alert: EFP and PCM quantities not currently incorporated into SCF psivars.

Properties will be evaluated at   0.000000,   0.000000,   0.000000 Bohr

Properties computed using the SCF density matrix

  Nuclear Dipole Moment: (a.u.)
     X:     0.0000      Y:     0.0000      Z:     0.0000

  Electronic Dipole Moment: (a.u.)
     X:     0.0000      Y:     0.0000      Z:     0.0000

  Dipole Moment: (a.u.)
     X:     0.0000      Y:     0.0000      Z:     0.0000     Total:     0.0000

  Dipole Moment: (Debye)
     X:     0.0000      Y:     0.0000      Z:     0.0000     Total:     0.0000


*** tstop() called on Jeffs-MacBook-Pro-2.local at Thu Feb  9 15:04:49 2017
Module time:
	user time   =       0.17 seconds =       0.00 minutes
	system time =       0.02 seconds =       0.00 minutes
	total time  =          1 seconds =       0.02 minutes
Total time:
	user time   =       0.17 seconds =       0.00 minutes
	system time =       0.02 seconds =       0.00 minutes
	total time  =          1 seconds =       0.02 minutes
	SCF energy........................................................PASSED

         ---------------------------------------------------------
                                   SCF
            by Justin Turney, Rob Parrish, and Andy Simmonett
                              RHF Reference
                        1 Threads,    524 MiB Core
         ---------------------------------------------------------

  ==> Geometry <==

    Molecular point group: d2h
    Full point group: D_inf_h

    Geometry (in Angstrom), charge = 0, multiplicity = 1:

       Center              X                  Y                   Z               Mass       
    ------------   -----------------  -----------------  -----------------  -----------------
          LI          0.000000000000     0.000000000000    -1.000000000000     7.016004548000
          LI          0.000000000000     0.000000000000     1.000000000000     7.016004548000

  Running in d2h symmetry.

  Rotational constants: A = ************  B =      1.20137  C =      1.20137 [cm^-1]
  Rotational constants: A = ************  B =  36016.15432  C =  36016.15432 [MHz]
  Nuclear repulsion =    2.381297438654999

  Charge       = 0
  Multiplicity = 1
  Electrons    = 6
  Nalpha       = 3
  Nbeta        = 3

  ==> Algorithm <==

  SCF Algorithm Type is PK.
  DIIS enabled.
  MOM disabled.
  Fractional occupation disabled.
  Guess Type is GWH.
  Energy threshold   = 1.00e-10
  Density threshold  = 1.00e-10
  Integral threshold = 0.00e+00

  ==> Primary Basis <==

  Basis Set: file /Users/jeffschriber/src/psi4_debug_install/share/psi4/basis/dz.gbs
    Number of shells: 12
    Number of basis function: 20
    Number of Cartesian functions: 20
    Spherical Harmonics?: false
    Max angular momentum: 1

  ==> Pre-Iterations <==

   -------------------------------------------------------
    Irrep   Nso     Nmo     Nalpha   Nbeta   Ndocc  Nsocc
   -------------------------------------------------------
     Ag         6       6       2       2       2       0
     B1g        0       0       0       0       0       0
     B2g        2       2       0       0       0       0
     B3g        2       2       0       0       0       0
     Au         0       0       0       0       0       0
     B1u        6       6       1       1       1       0
     B2u        2       2       0       0       0       0
     B3u        2       2       0       0       0       0
   -------------------------------------------------------
    Total      20      20       3       3       3       0
   -------------------------------------------------------

  ==> Integral Setup <==

  Using in-core PK algorithm.
   Calculation information:
      Number of atoms:                   2
      Number of AO shells:              12
      Number of primitives:             26
      Number of atomic orbitals:        20
      Number of basis functions:        20

      Integral cutoff                 1.00e-12
      Number of threads:                 1

  Performing in-core PK
  Using 44310 doubles for integral storage.
  We computed 3081 shell quartets total.
  Whereas there are 3081 unique shell quartets.
  ==> DiskJK: Disk-Based J/K Matrices <==

    J tasked:                  Yes
    K tasked:                  Yes
    wK tasked:                  No
    Memory (MB):               375
    Schwarz Cutoff:          1E-12

    OpenMP threads:              1
  Minimum eigenvalue in the overlap matrix is 1.9077689073E-03.
  Using Symmetric Orthogonalization.

  SCF Guess: Generalized Wolfsberg-Helmholtz.

  ==> Iterations <==

                        Total Energy        Delta E     RMS |[F,P]|

   @RHF iter   1:   -12.53594429341653   -1.25359e+01   2.23153e-01 
   @RHF iter   2:   -14.79787116902154   -2.26193e+00   2.68650e-02 DIIS
   @RHF iter   3:   -14.83869372123889   -4.08226e-02   2.13956e-03 DIIS
   @RHF iter   4:   -14.83976138830910   -1.06767e-03   5.27743e-04 DIIS
   @RHF iter   5:   -14.83984602258662   -8.46343e-05   4.48938e-05 DIIS
   @RHF iter   6:   -14.83984649363681   -4.71050e-07   6.75092e-06 DIIS
   @RHF iter   7:   -14.83984651196292   -1.83261e-08   1.27728e-06 DIIS
   @RHF iter   8:   -14.83984651272110   -7.58181e-10   1.65929e-07 DIIS
   @RHF iter   9:   -14.83984651273754   -1.64384e-11   3.05615e-08 DIIS
   @RHF iter  10:   -14.83984651273806   -5.16920e-13   4.17483e-10 DIIS
   @RHF iter  11:   -14.83984651273805    8.88178e-15   9.58788e-12 DIIS

  ==> Post-Iterations <==

    Orbital Energies (a.u.)
    -----------------------

    Doubly Occupied:                                                      

       1Ag    -2.470948     1B1u   -2.465815     2Ag    -0.194380  

    Virtual:                                                              

       2B1u    0.012721     1B3u    0.026034     1B2u    0.026034  
       3Ag     0.049075     1B2g    0.069563     1B3g    0.069563  
       3B1u    0.080420     4Ag     0.130086     2B3u    0.137741  
       2B2u    0.137741     5Ag     0.171764     2B2g    0.242777  
       2B3g    0.242777     4B1u    0.246004     5B1u    0.480486  
       6Ag     1.695539     6B1u    1.801802  

    Final Occupation by Irrep:
             Ag   B1g   B2g   B3g    Au   B1u   B2u   B3u 
    DOCC [     2,    0,    0,    0,    0,    1,    0,    0 ]

  Energy converged.

  @RHF Final Energy:   -14.83984651273805

   => Energetics <=

    Nuclear Repulsion Energy =              2.3812974386549994
    One-Electron Energy =                 -24.1800018295044978
    Two-Electron Energy =                   6.9588578781114485
    DFT Exchange-Correlation Energy =       0.0000000000000000
    Empirical Dispersion Energy =           0.0000000000000000
    PCM Polarization Energy =               0.0000000000000000
    EFP Energy =                            0.0000000000000000
    Total Energy =                        -14.8398465127380490



Properties will be evaluated at   0.000000,   0.000000,   0.000000 Bohr

Properties computed using the SCF density matrix

  Nuclear Dipole Moment: (a.u.)
     X:     0.0000      Y:     0.0000      Z:     0.0000

  Electronic Dipole Moment: (a.u.)
     X:     0.0000      Y:     0.0000      Z:     0.0000

  Dipole Moment: (a.u.)
     X:     0.0000      Y:     0.0000      Z:     0.0000     Total:     0.0000

  Dipole Moment: (Debye)
     X:     0.0000      Y:     0.0000      Z:     0.0000     Total:     0.0000

 MINTS: Wrapper to libmints.
   by Justin Turney

   Calculation information:
      Number of atoms:                   2
      Number of AO shells:              12
      Number of SO shells:               6
      Number of primitives:             26
      Number of atomic orbitals:        20
      Number of basis functions:        20

      Number of irreps:                  8
      Integral cutoff                 0.00e+00
      Number of functions per irrep: [   6    0    2    2    0    6    2    2 ]

 OEINTS: Overlap, kinetic, potential, dipole, and quadrupole integrals
         stored in file 35.

      Computing two-electron integrals...done
      Computed 3747 non-zero two-electron integrals.
        Stored in file 33.


Reading options from the FORTE block
Calling plugin forte.so.




  ==> MO Space Information <==

  -------------------------------------------------------------------------
                       Ag   B1g   B2g   B3g    Au   B1u   B2u   B3u   Sum
  -------------------------------------------------------------------------
    FROZEN_DOCC         0     0     0     0     0     0     0     0     0
    RESTRICTED_DOCC     0     0     0     0     0     0     0     0     0
    ACTIVE              6     0     2     2     0     6     2     2    20
    RESTRICTED_UOCC     0     0     0     0     0     0     0     0     0
    FROZEN_UOCC         0     0     0     0     0     0     0     0     0
    Total               6     0     2     2     0     6     2     2    20
  -------------------------------------------------------------------------

  ==> Integral Transformation <==

  Number of molecular orbitals:               20
  Number of correlated molecular orbitals:    20
  Number of frozen occupied orbitals:          0
  Number of frozen unoccupied orbitals:        0

    Molecular point group: d2h
    Full point group: D_inf_h

    Geometry (in Angstrom), charge = 0, multiplicity = 1:

       Center              X                  Y                   Z               Mass       
    ------------   -----------------  -----------------  -----------------  -----------------
          LI          0.000000000000     0.000000000000    -1.000000000000     7.016004548000
          LI          0.000000000000     0.000000000000     1.000000000000     7.016004548000

  -AO BASIS SET INFORMATION:
    Name                   = file /Users/jeffschriber/src/psi4_debug_install/share/psi4/basis/dz.gbs
    Total number of shells = 12
    Number of primitives   = 26
    Number of AO           = 20
    Number of SO           = 20
    Maximum AM             = 1
    Spherical Harmonics    = FALSE

  -Contraction Scheme:
    Atom   Type   All Primitives // Shells:
   ------ ------ --------------------------
       1    LI     9s 4p // 4s 2p 
       2    LI     9s 4p // 4s 2p 

  ==> AO Basis Functions <==

    [ file /Users/jeffschriber/src/psi4_debug_install/share/psi4/basis/dz.gbs ]
    cartesian
    ****
   LI   1
    S   6 1.00
                       921.30000000           0.00136700
                       138.70000000           0.01042500
                        31.94000000           0.04985900
                         9.35300000           0.16070100
                         3.15800000           0.34460400
                         1.15700000           0.42519700
    S   1 1.00
                         0.44460000           1.00000000
    S   1 1.00
                         0.07666000           1.00000000
    S   1 1.00
                         0.02864000           1.00000000
    P   3 1.00
                         1.48800000           0.03877000
                         0.26670000           0.23625700
                         0.07201000           0.83044800
    P   1 1.00
                         0.02370000           1.00000000
    ****


  Overall Conventional Integrals timings

	Presorting SO-basis two-electron integrals.
	Sorting File: SO Ints (nn|nn) nbuckets = 1
	Transforming the one-electron integrals and constructing Fock matrices
	Starting first half-transformation.
	Sorting half-transformed integrals.
	First half integral transformation complete.
	Starting second half-transformation.
	Two-electron integral transformation complete.

  Integral transformation done. 0.00893100 s
  Reading the two-electron integrals from disk
  Size of two-electron integrals:   0.003576 GB
  Conventional integrals take 0.05390600 s

                    ---------------------------------------
                      Adaptive Configuration Interaction
                      written by Francesco A. Evangelista
                    ---------------------------------------

  ==> Reference Information <==

  There are 0 frozen orbitals.
  There are 20 active orbitals.

  |22000000002000000000>
  REFERENCE ENERGY:         -14.839846512738
  ==> Calculation Information <==

  -----------------------------------------------------------------
    Multiplicity                             1    
    Symmetry                                 0    
    Number of roots                          2    
    Root used for properties                 0    
    Sigma                                    1.00e-03
    Gamma                                    1.00e-01
    Convergence threshold                    1.00e-10
    Determinant selection criterion          Second-order Energy
    Selection criterion                      Threshold
    Excited Algorithm                        ROOT_SELECT
    Project out spin contaminants            True
    Enforce spin completeness of basis       False
    Enforce complete aimed selection         True
  -----------------------------------------------------------------
  Computing wavefunction for root 0

  ==> Cycle 0 <==

  Initial P space dimension: 27
 Not checking for spin-completeness.
  Time spent diagonalizing H:   0.001468 s

    P-space  CI Energy Root   0        = -14.839846512738 Eh =   0.0000 eV
    P-space  CI Energy Root   1        = -14.769773444082 Eh =   1.9068 eV

  Using 1 threads.
  Dimension of the SD space: 6389 determinants
  Time spent building the model space: 0.079737 s

  Dimension of the P + Q space: 45 determinants
  Time spent screening the model space: 0.014678 s
  Time spent diagonalizing H:   0.002896 s

    PQ-space CI Energy Root   0        = -14.880085230898 Eh =   0.0000 eV
    PQ-space CI Energy + EPT2 Root   0 = -14.892373406454 Eh =   0.0000 eV
    PQ-space CI Energy Root   1        = -14.770870632120 Eh =   2.9719 eV
    PQ-space CI Energy + EPT2 Root   1 = -14.791150681372 Eh =   2.7544 eV


  Computing overlap for root 0
  Root 0 has overlap 1.000000
  Saving reference for root 0

  Computing overlap for root 1
  Root 1 has overlap 0.000000
  Setting reference root to: 0

  Most important contributions to root   0:
    0  -0.941979 0.887323684           0 |22000000002000000000>
    1   0.154560 0.023888916          36 |20000000002000000020>
    2   0.154560 0.023888916          37 |20000000002000002000>
    3   0.107036 0.011456767          42 |2000000000200000+-00>
    4   0.107036 0.011456767          29 |200000000020000000-+>
    5   0.107036 0.011456767          34 |200000000020000000+->
    6   0.107036 0.011456767          33 |2000000000200000-+00>
    7   0.076853 0.005906376          43 |20000000002000000200>
    8   0.076853 0.005906376          44 |20000000002000000002>
    9   0.051898 0.002693365          30 |20020000002000000000>

  Spin state for root 0: S^2 = 0.000000, S = 0.000, singlet

  Most important contributions to root   1:
    0   0.569198 0.323985796          10 |2-+00000002000000000>
    1  -0.569198 0.323985796          17 |2+-00000002000000000>
    2   0.321954 0.103654545          12 |2-0+0000002000000000>
    3  -0.321954 0.103654545           8 |2+0-0000002000000000>
    4   0.262487 0.068899539          16 |2+00-000002000000000>
    5  -0.262487 0.068899539           6 |2-00+000002000000000>
    6   0.041457 0.001718647          34 |200000000020000000+->
    7  -0.041457 0.001718647          29 |200000000020000000-+>
    8  -0.041457 0.001718647          33 |2000000000200000-+00>
    9   0.041457 0.001718647          42 |2000000000200000+-00>

  Spin state for root 1: S^2 = 1.000000, S = 2.000, triplet
 Cycle 0 took: 0.104981 s

  ==> Cycle 1 <==

  Initial P space dimension: 43
 Not checking for spin-completeness.
  Time spent diagonalizing H:   0.003250 s

  Computing overlap for root 0
  Root 0 has overlap 1.000000
  Saving reference for root 0

  Computing overlap for root 1
  Root 1 has overlap 0.000000
  Setting reference root to: 0

    P-space  CI Energy Root   0        = -14.880085230898 Eh =   0.0000 eV
    P-space  CI Energy Root   1        = -14.770870249069 Eh =   2.9719 eV

  Using 1 threads.
  Dimension of the SD space: 10626 determinants
  Time spent building the model space: 0.136322 s

  Dimension of the P + Q space: 43 determinants
  Time spent screening the model space: 0.024546 s
  Time spent diagonalizing H:   0.002864 s

    PQ-space CI Energy Root   0        = -14.880085230898 Eh =   0.0000 eV
    PQ-space CI Energy + EPT2 Root   0 = -14.889209538091 Eh =   0.0000 eV
    PQ-space CI Energy Root   1        = -14.770870249069 Eh =   2.9719 eV
    PQ-space CI Energy + EPT2 Root   1 = -14.790854386670 Eh =   2.6764 eV


  Computing overlap for root 0
  Root 0 has overlap 1.000000
  Saving reference for root 0

  Computing overlap for root 1
  Root 1 has overlap 0.000000
  Setting reference root to: 0

  Most important contributions to root   0:
    0   0.941979 0.887323679           0 |22000000002000000000>
    1  -0.154560 0.023888916          31 |20000000002000002000>
    2  -0.154560 0.023888916          36 |20000000002000000020>
    3  -0.107036 0.011456767          42 |2000000000200000+-00>
    4  -0.107036 0.011456767          15 |200000000020000000-+>
    5  -0.107036 0.011456767           9 |2000000000200000-+00>
    6  -0.107036 0.011456767          39 |200000000020000000+->
    7  -0.076853 0.005906376           7 |20000000002000000200>
    8  -0.076853 0.005906376          19 |20000000002000000002>
    9  -0.051898 0.002693365          26 |20020000002000000000>

  Spin state for root 0: S^2 = 0.000000, S = 0.000, singlet

  Most important contributions to root   1:
    0  -0.569199 0.323986958          13 |2-+00000002000000000>
    1   0.569199 0.323986958          22 |2+-00000002000000000>
    2   0.321958 0.103656859           8 |2+0-0000002000000000>
    3  -0.321958 0.103656859          16 |2-0+0000002000000000>
    4   0.262481 0.068896019           1 |2-00+000002000000000>
    5  -0.262481 0.068896019          21 |2+00-000002000000000>
    6   0.041457 0.001718714           9 |2000000000200000-+00>
    7   0.041457 0.001718714          15 |200000000020000000-+>
    8  -0.041457 0.001718714          42 |2000000000200000+-00>
    9  -0.041457 0.001718714          39 |200000000020000000+->

  Spin state for root 1: S^2 = 1.000000, S = 2.000, triplet
 Cycle 1 took: 0.173908 s

  ==> Cycle 2 <==

  Initial P space dimension: 43
 Not checking for spin-completeness.
  Time spent diagonalizing H:   0.002694 s

  Computing overlap for root 0
  Root 0 has overlap 1.000000
  Saving reference for root 0

  Computing overlap for root 1
  Root 1 has overlap 0.000000
  Setting reference root to: 0

    P-space  CI Energy Root   0        = -14.880085230898 Eh =   0.0000 eV
    P-space  CI Energy Root   1        = -14.770870249069 Eh =   2.9719 eV

  Using 1 threads.
  Dimension of the SD space: 10626 determinants
  Time spent building the model space: 0.134785 s

  Dimension of the P + Q space: 43 determinants
  Time spent screening the model space: 0.022062 s
  Time spent diagonalizing H:   0.002634 s

    PQ-space CI Energy Root   0        = -14.880085230898 Eh =   0.0000 eV
    PQ-space CI Energy + EPT2 Root   0 = -14.889209538091 Eh =   0.0000 eV
    PQ-space CI Energy Root   1        = -14.770870249069 Eh =   2.9719 eV
    PQ-space CI Energy + EPT2 Root   1 = -14.790854386670 Eh =   2.6764 eV


  Computing overlap for root 0
  Root 0 has overlap 1.000000
  Saving reference for root 0

  Computing overlap for root 1
  Root 1 has overlap 0.000000
  Setting reference root to: 0
  ***** Calculation Converged *****
  Not performing spin projection.
  1-RDM  took 0.000047 s (determinant)

  ==> ACI Summary <==

  Iterations required:                         2
  Dimension of optimized determinant space:    43

  * Adaptive-CI Energy Root   0        = -14.880085230898 Eh =   0.0000 eV
  * Adaptive-CI Energy Root   0 + EPT2 = -14.889209538091 Eh =   0.0000 eV
  * Adaptive-CI Energy Root   1        = -14.770870249069 Eh =   2.9719 eV
  * Adaptive-CI Energy Root   1 + EPT2 = -14.790854386670 Eh =   2.6764 eV

  Energy optimized for Root 0: -14.880085230898

  Root 0 Energy + PT2:         -14.889209538091

  ==> Wavefunction Information <==

  Most important contributions to root   0:
    0   0.941979 0.887323679           0 |22000000002000000000>
    1  -0.154560 0.023888916          31 |20000000002000002000>
    2  -0.154560 0.023888916          36 |20000000002000000020>
    3  -0.107036 0.011456767          42 |2000000000200000+-00>
    4  -0.107036 0.011456767          15 |200000000020000000-+>
    5  -0.107036 0.011456767           9 |2000000000200000-+00>
    6  -0.107036 0.011456767          39 |200000000020000000+->
    7  -0.076853 0.005906376           7 |20000000002000000200>
    8  -0.076853 0.005906376          19 |20000000002000000002>
    9  -0.051898 0.002693365          26 |20020000002000000000>

  Spin state for root 0: S^2 = 0.000000, S = 0.000, singlet

  Most important contributions to root   1:
    0  -0.569199 0.323986958          13 |2-+00000002000000000>
    1   0.569199 0.323986958          22 |2+-00000002000000000>
    2   0.321958 0.103656859           8 |2+0-0000002000000000>
    3  -0.321958 0.103656859          16 |2-0+0000002000000000>
    4   0.262481 0.068896019           1 |2-00+000002000000000>
    5  -0.262481 0.068896019          21 |2+00-000002000000000>
    6   0.041457 0.001718714           9 |2000000000200000-+00>
    7   0.041457 0.001718714          15 |200000000020000000-+>
    8  -0.041457 0.001718714          42 |2000000000200000+-00>
    9  -0.041457 0.001718714          39 |200000000020000000+->

  Spin state for root 1: S^2 = 1.000000, S = 2.000, triplet

  Adaptive-CI (bitset) ran in : 0.448070 s

  Saving information for root: 0

  Your calculation took 0.55527500 seconds
	ACI energy........................................................PASSED
	ACI+PT2 energy....................................................PASSED

*** Psi4 exiting successfully. Buy a developer a beer!
