    -----------------------------------------------------------------------
          Psi4: An Open-Source Ab Initio Electronic Structure Package
                              Psi4 (no tag) Driver

                          Git: Rev {detached?} 7a17eb9 dirty

    J. M. Turney, A. C. Simmonett, R. M. Parrish, E. G. Hohenstein,
    F. A. Evangelista, J. T. Fermann, B. J. Mintz, L. A. Burns, J. J. Wilke,
    M. L. Abrams, N. J. Russ, M. L. Leininger, C. L. Janssen, E. T. Seidl,
    W. D. Allen, H. F. Schaefer, R. A. King, E. F. Valeev, C. D. Sherrill,
    and T. D. Crawford, WIREs Comput. Mol. Sci. 2, 556-565 (2012)
    (doi: 10.1002/wcms.93)

                         Additional Contributions by
    A. E. DePrince, M. Saitow, U. Bozkaya, A. Yu. Sokolov
    -----------------------------------------------------------------------


    Psi4 started on: Fri Jan 22 16:49:32 2016

    Process ID:  20729
    PSI4DATADIR: /Users/jeffschriber/src/psi4/lib
    Memory level set to 256.000 MB

  ==> Input File <==

--------------------------------------------------------------------------
#
#This tests the EX-CI procedure using energy selection
#! Generated using commit GITCOMMIT
# Tests root-selection 

import forte 

refscf = -14.839846512738 #TEST
refaci = -14.8797641587 #TEST
refacipt2 = -14.889463445 #TEST

molecule li2{
   Li
   Li 1 2.0000
}

set {
  basis DZ
  e_convergence 10
  d_convergence 10
  r_convergence 10
  reference rhf
  scf_type pk
  docc = [2,0,0,0,0,1,0,0]
}

set forte {
  job_type aci
  SELECT_TYPE energy
  perturb_select false
  pq_function average
  excited_algorithm root_select
  root 0
  TAUP 0.000100
  TAUQ 0.001000
  nroot 2
  charge 0
  enforce_spin_complete false
}

energy('scf')

compare_values(refscf, get_variable("CURRENT ENERGY"),9, "SCF energy") #TEST

energy('forte')
compare_values(refaci, get_variable("ACI ENERGY"),9, "ACI energy") #TEST
compare_values(refacipt2, get_variable("ACI+PT2 ENERGY"),8, "ACI+PT2 energy") #TEST
--------------------------------------------------------------------------
/Users/jeffschriber/src/forte/forte.so loaded.

*** tstart() called on Jeffs-MBP.attlocal.net
*** at Fri Jan 22 16:49:32 2016

    There are an even number of electrons - assuming singlet.
    Specify the multiplicity with the MULTP option in the
    input if this is incorrect


         ---------------------------------------------------------
                                   SCF
            by Justin Turney, Rob Parrish, and Andy Simmonett
                              RHF Reference
                        1 Threads,    256 MiB Core
         ---------------------------------------------------------

  ==> Geometry <==

    Molecular point group: d2h
    Full point group: D_inf_h

    Geometry (in Angstrom), charge = 0, multiplicity = 1:

       Center              X                  Y                   Z               Mass       
    ------------   -----------------  -----------------  -----------------  -----------------
          LI          0.000000000000     0.000000000000    -1.000000000000     7.016004548000
          LI          0.000000000000     0.000000000000     1.000000000000     7.016004548000

  Running in d2h symmetry.

  Rotational constants: A = ************  B =      1.20137  C =      1.20137 [cm^-1]
  Rotational constants: A = ************  B =  36016.15432  C =  36016.15432 [MHz]
  Nuclear repulsion =    2.381297438654999

  Charge       = 0
  Multiplicity = 1
  Electrons    = 6
  Nalpha       = 3
  Nbeta        = 3

  ==> Algorithm <==

  SCF Algorithm Type is PK.
  DIIS enabled.
  MOM disabled.
  Fractional occupation disabled.
  Guess Type is CORE.
  Energy threshold   = 1.00e-10
  Density threshold  = 1.00e-10
  Integral threshold = 0.00e+00

  ==> Primary Basis <==

  Basis Set: DZ
    Number of shells: 12
    Number of basis function: 20
    Number of Cartesian functions: 20
    Spherical Harmonics?: false
    Max angular momentum: 1

  ==> Pre-Iterations <==

   -------------------------------------------------------
    Irrep   Nso     Nmo     Nalpha   Nbeta   Ndocc  Nsocc
   -------------------------------------------------------
     Ag         6       6       2       2       2       0
     B1g        0       0       0       0       0       0
     B2g        2       2       0       0       0       0
     B3g        2       2       0       0       0       0
     Au         0       0       0       0       0       0
     B1u        6       6       1       1       1       0
     B2u        2       2       0       0       0       0
     B3u        2       2       0       0       0       0
   -------------------------------------------------------
    Total      20      20       3       3       3       0
   -------------------------------------------------------

  Starting with a DF guess...

 OEINTS: Overlap, kinetic, potential, dipole, and quadrupole integrals
         stored in file 35.

  ==> Integral Setup <==

  ==> DFJK: Density-Fitted J/K Matrices <==

    J tasked:                  Yes
    K tasked:                  Yes
    wK tasked:                  No
    OpenMP threads:              1
    Integrals threads:           1
    Memory (MB):               183
    Algorithm:                Core
    Integral Cache:           NONE
    Schwarz Cutoff:          1E-12
    Fitting Condition:       1E-12

   => Auxiliary Basis Set <=

  Basis Set: 
    Number of shells: 34
    Number of basis function: 120
    Number of Cartesian functions: 120
    Spherical Harmonics?: false
    Max angular momentum: 3

  Minimum eigenvalue in the overlap matrix is 1.9077689073E-03.
  Using Symmetric Orthogonalization.
  SCF Guess: Core (One-Electron) Hamiltonian.

  ==> Iterations <==

                           Total Energy        Delta E     RMS |[F,P]|

   @DF-RHF iter   1:   -14.13607141225718   -1.41361e+01   1.15734e-01 
   @DF-RHF iter   2:   -14.82867713407151   -6.92606e-01   9.30086e-03 DIIS
   @DF-RHF iter   3:   -14.83893063810611   -1.02535e-02   1.70626e-03 DIIS
   @DF-RHF iter   4:   -14.83977380456130   -8.43166e-04   4.52161e-04 DIIS
   @DF-RHF iter   5:   -14.83984604812292   -7.22436e-05   7.32851e-05 DIIS
   @DF-RHF iter   6:   -14.83984856276052   -2.51464e-06   1.09774e-05 DIIS
   @DF-RHF iter   7:   -14.83984862078258   -5.80221e-08   8.91891e-07 DIIS
   @DF-RHF iter   8:   -14.83984862119314   -4.10566e-10   1.33019e-07 DIIS
   @DF-RHF iter   9:   -14.83984862120329   -1.01501e-11   5.07551e-09 DIIS
   @DF-RHF iter  10:   -14.83984862120330   -7.10543e-15   1.32557e-10 DIIS
   @DF-RHF iter  11:   -14.83984862120331   -7.10543e-15   3.13551e-12 DIIS

  DF guess converged.

  ==> Integral Setup <==

 MINTS: Wrapper to libmints.
   by Justin Turney

   Calculation information:
      Number of atoms:                   2
      Number of AO shells:              12
      Number of SO shells:               6
      Number of primitives:             26
      Number of atomic orbitals:        20
      Number of basis functions:        20

      Number of irreps:                  8
      Integral cutoff                 0.00e+00
      Number of functions per irrep: [   6    0    2    2    0    6    2    2 ]

 OEINTS: Overlap, kinetic, potential, dipole, and quadrupole integrals
         stored in file 35.

      Computing two-electron integrals...done
      Computed 3747 non-zero two-electron integrals.
        Stored in file 33.

	Batch   1 pq = [       0,      54] index = [             0,1485]
  ==> DiskJK: Disk-Based J/K Matrices <==

    J tasked:                  Yes
    K tasked:                  Yes
    wK tasked:                  No
    Memory (MB):               183
    Schwarz Cutoff:          1E-12

   @RHF iter  12:   -14.83984651272194    2.10848e-06   8.01950e-07 DIIS
   @RHF iter  13:   -14.83984651273775   -1.58025e-11   6.14363e-08 DIIS
   @RHF iter  14:   -14.83984651273802   -2.70006e-13   7.34168e-09 DIIS
   @RHF iter  15:   -14.83984651273807   -4.97380e-14   1.20275e-09 DIIS
   @RHF iter  16:   -14.83984651273807    0.00000e+00   2.53053e-10 DIIS
   @RHF iter  17:   -14.83984651273806    7.10543e-15   1.96483e-11 DIIS

  ==> Post-Iterations <==

    Orbital Energies (a.u.)
    -----------------------

    Doubly Occupied:                                                      

       1Ag    -2.470948     1B1u   -2.465815     2Ag    -0.194380  

    Virtual:                                                              

       2B1u    0.012721     1B3u    0.026034     1B2u    0.026034  
       3Ag     0.049075     1B2g    0.069563     1B3g    0.069563  
       3B1u    0.080420     4Ag     0.130086     2B3u    0.137741  
       2B2u    0.137741     5Ag     0.171764     2B2g    0.242777  
       2B3g    0.242777     4B1u    0.246004     5B1u    0.480486  
       6Ag     1.695539     6B1u    1.801802  

    Final Occupation by Irrep:
             Ag   B1g   B2g   B3g    Au   B1u   B2u   B3u 
    DOCC [     2,    0,    0,    0,    0,    1,    0,    0 ]

  Energy converged.

  @RHF Final Energy:   -14.83984651273806

   => Energetics <=

    Nuclear Repulsion Energy =              2.3812974386549994
    One-Electron Energy =                 -24.1800018292521770
    Two-Electron Energy =                   6.9588578778591152
    DFT Exchange-Correlation Energy =       0.0000000000000000
    Empirical Dispersion Energy =           0.0000000000000000
    PCM Polarization Energy =               0.0000000000000000
    EFP Energy =                            0.0000000000000000
    Total Energy =                        -14.8398465127380614

    Alert: EFP and PCM quantities not currently incorporated into SCF psivars.

Properties will be evaluated at   0.000000,   0.000000,   0.000000 Bohr
  ==> Properties <==


Properties computed using the SCF density matrix

  Nuclear Dipole Moment: (a.u.)
     X:     0.0000      Y:     0.0000      Z:     0.0000

  Electronic Dipole Moment: (a.u.)
     X:     0.0000      Y:     0.0000      Z:     0.0000

  Dipole Moment: (a.u.)
     X:     0.0000      Y:     0.0000      Z:     0.0000     Total:     0.0000

  Dipole Moment: (Debye)
     X:     0.0000      Y:     0.0000      Z:     0.0000     Total:     0.0000


  Saving occupied orbitals to File 180.

*** tstop() called on Jeffs-MBP.attlocal.net at Fri Jan 22 16:49:32 2016
Module time:
	user time   =       0.31 seconds =       0.01 minutes
	system time =       0.01 seconds =       0.00 minutes
	total time  =          0 seconds =       0.00 minutes
Total time:
	user time   =       0.31 seconds =       0.01 minutes
	system time =       0.01 seconds =       0.00 minutes
	total time  =          0 seconds =       0.00 minutes
Reading options from the FORTE block
Calling plugin /Users/jeffschriber/src/forte/forte.so.


  ==> MO Space Information <==

  -------------------------------------------------------------------------
                       Ag   B1g   B2g   B3g    Au   B1u   B2u   B3u   Sum
  -------------------------------------------------------------------------
    FROZEN_DOCC         0     0     0     0     0     0     0     0     0
    RESTRICTED_DOCC     0     0     0     0     0     0     0     0     0
    ACTIVE              6     0     2     2     0     6     2     2    20
    RESTRICTED_UOCC     0     0     0     0     0     0     0     0     0
    FROZEN_UOCC         0     0     0     0     0     0     0     0     0
    Total               6     0     2     2     0     6     2     2    20
  -------------------------------------------------------------------------

  ==> Integral Transformation <==

  Number of molecular orbitals:               20
  Number of correlated molecular orbitals:    20
  Number of frozen occupied orbitals:          0
  Number of frozen unoccupied orbitals:        0


  Overall Conventional Integrals timings

	Presorting SO-basis two-electron integrals.
	Sorting File: SO Ints (nn|nn) nbuckets = 1
	Transforming the one-electron integrals and constructing Fock matrices
	Starting first half-transformation.
	Sorting half-transformed integrals.
	First half integral transformation complete.
	Starting second half-transformation.
	Two-electron integral transformation complete.

  Integral transformation done. 0.00886000 s
  Reading the two-electron integrals from disk
  Size of two-electron integrals:   0.003576 GB
  Conventional integrals take 0.01793700 s

                    ---------------------------------------
                      Adaptive Configuration Interaction
                      written by Francesco A. Evangelista
                    ---------------------------------------

  ==> Reference Information <==

  There are 0 frozen orbitals.
  There are 20 active orbitals.

  |22000000002000000000>
  REFERENCE ENERGY:         -14.839846512738
  ==> Calculation Information <==

  -----------------------------------------------------------------
    Multiplicity                             1    
    Symmetry                                 0    
    Number of roots                          2    
    Root used for properties                 0    
    P-threshold                              1.00e-04
    Q-threshold                              1.00e-03
    Convergence threshold                    1.00e-10
    Determinant selection criterion          Second-order Energy
    Selection criterion                      Threshold
    PQ Function                              AVERAGE
    Q Type                                   Absolute Energy
    PT2 Parameters                           False
    Project out spin contaminants            True
    Enforce spin completeness of basis       False
    Enforce complete aimed selection         True
  -----------------------------------------------------------------

  ==> Cycle 0 <==

  Initial P space dimension: 1
 Not checking for spin-completeness.
  Time spent diagonalizing H:   0.000054 s
  Not performing spin projection.

    P-space  CI Energy Root   1        = -14.839846512738 Eh =   0.0000 eV

  Dimension of the SD space: 661 determinants
  Time spent building the model space: 0.002236 s

  Using non-perturbative energy estimates
  Dimension of the P + Q space: 19 determinants
  Time spent screening the model space: 0.004336 s
  Time spent diagonalizing H:   0.000620 s
  Not performing spin projection.

    PQ-space CI Energy Root   1        = -14.879764158702 Eh =   0.0000 eV
    PQ-space CI Energy + EPT2 Root   1 = -14.892052334258 Eh =   0.0000 eV


  Most important contributions to root   0:
    0  -0.943709 0.890585933           0 |22000000002000000000>
    1   0.154118 0.023752410           4 |20000000002000002000>
    2   0.154118 0.023752410           3 |20000000002000000020>
    3   0.105645 0.011160887          14 |2000000000200000+-00>
    4   0.105645 0.011160887          11 |2000000000200000-+00>
    5   0.105645 0.011160887          18 |200000000020000000-+>
    6   0.105645 0.011160887           2 |200000000020000000+->
    7   0.075313 0.005672078          16 |20000000002000000200>
    8   0.075313 0.005672078          17 |20000000002000000002>
    9   0.050695 0.002569978           5 |20020000002000000000>

  Spin state for root 0: S^2 = 0.000, S = 0.000, singlet (from 19 determinants, 100.00)

  ==> Cycle 1 <==

  Initial P space dimension: 19
 Not checking for spin-completeness.
  Time spent diagonalizing H:   0.000634 s
  Not performing spin projection.

    P-space  CI Energy Root   1        = -14.879764158702 Eh =   0.0000 eV
    P-space  CI Energy Root   2        = -14.704127027613 Eh =   4.7793 eV

  Dimension of the SD space: 7673 determinants
  Time spent building the model space: 0.045547 s

  Using non-perturbative energy estimates
  Dimension of the P + Q space: 19 determinants
  Time spent screening the model space: 0.047011 s
  Time spent diagonalizing H:   0.000640 s
  Not performing spin projection.

    PQ-space CI Energy Root   1        = -14.879764158702 Eh =   0.0000 eV
    PQ-space CI Energy + EPT2 Root   1 = -14.889463445485 Eh =   0.0000 eV
    PQ-space CI Energy Root   2        = -14.704127027613 Eh =   4.7793 eV
    PQ-space CI Energy + EPT2 Root   2 = -14.764007349052 Eh =   3.4138 eV

  ***** Calculation Converged *****
  Not performing spin projection.
  1-RDM  took 0.000224 s

  ==> ACI Summary <==

  Iterations required:                         1
  Dimension of optimized determinant space:    19

  * Adaptive-CI Energy Root   1        = -14.879764158702 Eh =   0.0000 eV
  * Adaptive-CI Energy Root   1 + EPT2 = -14.889463445485 Eh =   0.0000 eV
  * Adaptive-CI Energy Root   2        = -14.704127027613 Eh =   4.7793 eV
  * Adaptive-CI Energy Root   2 + EPT2 = -14.764007349052 Eh =   3.4138 eV

  ==> Wavefunction Information <==

  Most important contributions to root   0:
    0  -0.943709 0.890585933           0 |22000000002000000000>
    1   0.154118 0.023752410           4 |20000000002000002000>
    2   0.154118 0.023752410           3 |20000000002000000020>
    3   0.105645 0.011160887          14 |2000000000200000+-00>
    4   0.105645 0.011160887          11 |2000000000200000-+00>
    5   0.105645 0.011160887          18 |200000000020000000-+>
    6   0.105645 0.011160887           2 |200000000020000000+->
    7   0.075313 0.005672078          16 |20000000002000000200>
    8   0.075313 0.005672078          17 |20000000002000000002>
    9   0.050695 0.002569978           5 |20020000002000000000>

  Spin state for root 0: S^2 = 0.000, S = 0.000, singlet (from 19 determinants, 100.00)

  Most important contributions to root   1:
    0  -0.586473 0.343950817           4 |20000000002000002000>
    1   0.586473 0.343950817           3 |20000000002000000020>
    2  -0.275623 0.075968160          14 |2000000000200000+-00>
    3   0.275623 0.075968160           2 |200000000020000000+->
    4   0.275623 0.075968160          18 |200000000020000000-+>
    5  -0.275623 0.075968160          11 |2000000000200000-+00>
    6  -0.064132 0.004112863          16 |20000000002000000200>
    7   0.064132 0.004112863          17 |20000000002000000002>
    8  -0.000000 0.000000000           0 |22000000002000000000>
    9   0.000000 0.000000000           5 |20020000002000000000>

  Spin state for root 1: S^2 = 0.000, S = 0.000, singlet (from 19 determinants, 100.00)

     Order		 # of Dets        Total |c^2|   
  __________ 	____________   ________________ 
       0                  1           0.89058593343
       1                  0           0.00000000000
       2                 18           0.10941406657

  Highest-order excitation searched:     4  

       0                  1           0.00000000000
       1                  0           0.00000000000
       2                 18           1.00000000000

  Highest-order excitation searched:     4  


  Adaptive-CI (bitset) ran in : 0.105437 s

  Saving information for root: 1

  Your calculation took 0.20535000 seconds

*** PSI4 exiting successfully. Buy a developer a beer!
