
    -----------------------------------------------------------------------
          Psi4: An Open-Source Ab Initio Electronic Structure Package
                               Psi4 undefined 

                         Git: Rev {master} b0f5b75 dirty


    R. M. Parrish, L. A. Burns, D. G. A. Smith, A. C. Simmonett,
    A. E. DePrince III, E. G. Hohenstein, U. Bozkaya, A. Yu. Sokolov,
    R. Di Remigio, R. M. Richard, J. F. Gonthier, A. M. James,
    H. R. McAlexander, A. Kumar, M. Saitow, X. Wang, B. P. Pritchard,
    P. Verma, H. F. Schaefer III, K. Patkowski, R. A. King, E. F. Valeev,
    F. A. Evangelista, J. M. Turney, T. D. Crawford, and C. D. Sherrill,
    J. Chem. Theory Comput. 13(7) pp 3185--3197 (2017).
    (doi: 10.1021/acs.jctc.7b00174)

    -----------------------------------------------------------------------


    Psi4 started on: Thursday, 05 July 2018 09:43PM

    Process ID: 1335
    Host:       DESKTOP-JOFFIR0
    PSIDATADIR: /home/zty/Source/psi4-github-bin-g++-6.3.0-opt-c++11/share/psi4
    Memory:     500.0 MiB
    Threads:    1
    
  ==> Input File <==

--------------------------------------------------------------------------
#! Generated using commit GITCOMMIT

import forte

refmcscf   = -99.406065222746975
refudsrg   = -99.498879913356774 # no relaxation semi-canonical orbitals
refprdsrg  = -99.500286824390 # partially relaxed energy
refrdsrg   = -99.500016853715493 # relaxed energy

memory 500 mb

molecule HF{
  0 1
  F
  H  1 R
  R = 1.50
}

set globals{
   basis                  3-21g
   reference              twocon
   scf_type               cd
   cholesky_tolerance     1e-4
   e_convergence          8
   maxiter                100
   docc                   [3,0,1,1]
}

set mcscf{
   docc                   [2,0,1,1]
   socc                   [2,0,0,0]
   maxiter                1000
   level_shift            0.5
   d_convergence          10
   e_convergence          12
}

set forte{
   job_type               mrdsrg
   int_type               cholesky
   cholesky_tolerance     1e-4
   corr_level             ldsrg2
   frozen_docc            [1,0,0,0]
   restricted_docc        [1,0,1,1]
   active                 [2,0,0,0]
   root_sym               0
   nroot                  1
   dsrg_s                 1.0
   maxiter                100
   e_convergence          8
   relax_ref              twice
   dsrg_nivo              true
}

Emcscf, wfn = energy('mcscf', return_wfn=True)
compare_values(refmcscf,get_variable("CURRENT ENERGY"),10,"MCSCF energy")

energy('forte', ref_wfn=wfn)
compare_values(refudsrg,get_variable("UNRELAXED ENERGY"),8,"MRDSRG unrelaxed energy")
compare_values(refprdsrg,get_variable("PARTIALLY RELAXED ENERGY"),8,"MRDSRG partially relaxed energy")
compare_values(refrdsrg,get_variable("RELAXED ENERGY"),8,"MRDSRG relaxed energy")
--------------------------------------------------------------------------

  Memory set to 476.837 MiB by Python driver.
   => Loading Basis Set <=

    Name: 3-21G
    Role: ORBITAL
    Keyword: BASIS
    atoms 1 entry F          line   101 file /home/zty/Source/psi4-github-bin-g++-6.3.0-opt-c++11/share/psi4/basis/3-21g.gbs 
    atoms 2 entry H          line    21 file /home/zty/Source/psi4-github-bin-g++-6.3.0-opt-c++11/share/psi4/basis/3-21g.gbs 


*** tstart() called on DESKTOP-JOFFIR0
*** at Thu Jul  5 21:43:05 2018


         ------------------------------------------
           MCSCF: a self-consistent field program
            written by Francesco A. Evangelista
         ------------------------------------------

  MOs per irrep:                                      A1  A2  B1  B2 Total
  ----------------------------------------------------------------------------
  Total                                                7    0    2    2    11
  Doubly Occupied                                      2    0    1    1     4
  Active/Singly Occupied                               2    0    0    0     2
  ----------------------------------------------------------------------------

  Running an SCF calculation
  TWOCON MOs = [2 (A1),3 (A1)]

  Generated 66 pairs
  Distributed as [34 A1][4 A2][14 B1][14 B2]
  batch   0 pq = [       0,      34] index = [               0,             595]

  Allocated the PK matrix (595 elements) 
  Allocated the  K matrix (595 elements) 
  Reading the two-electron integrals to form PK and K ... 
  batch   0 ... done.


  =========================================================================================
         Cycle          Energy               D(Energy)            D(Density)            DIIS
  ===========================================================================================
  Setting level shift to 0.500 S
  @SCF    0      -90.711680135674     -90.711680135674       0.179571427031
    ci      = [ 0.00000000, 0.00000000]
    ci_grad = [ 0.00000000, 0.00000000]
  Setting level shift to 0.500 S
  @SCF    1      -99.209208289695      -8.497528154021       0.171539036589
    ci      = [ 0.00000000, 0.00000000]
    ci_grad = [ 0.00000000, 0.00000000]
  Setting level shift to 0.500 S
  @SCF    2      -99.181126225609       0.028082064085       0.014194650032
    ci      = [ 0.00000000, 0.00000000]
    ci_grad = [ 0.00000000, 0.00000000]
  Setting level shift to 0.500 S
  @SCF    3      -99.187147055735      -0.006020830126       0.007187093255
    ci      = [ 0.00000000, 0.00000000]
    ci_grad = [ 0.00000000, 0.00000000]
  Setting level shift to 0.500 S
  @SCF    4      -99.185505238170       0.001641817566       0.004582734244
    ci      = [ 0.00000000, 0.00000000]
    ci_grad = [ 0.00000000, 0.00000000]
  Setting level shift to 0.500 S
  @SCF    5      -99.188474394436      -0.002969156266       0.002877713537
    ci      = [ 0.00000000, 0.00000000]
    ci_grad = [ 0.00000000, 0.00000000]
  Setting level shift to 0.500 S
  @SCF    6      -99.186908014980       0.001566379456       0.001957181715
    ci      = [ 0.00000000, 0.00000000]
    ci_grad = [ 0.00000000, 0.00000000]
  Setting level shift to 0.500 S/E
  @SCF    7      -99.189018415622      -0.002110400642       0.001358833721
    ci      = [ 0.00000000, 0.00000000]
    ci_grad = [ 0.00000000, 0.00000000]
  Setting level shift to 0.500 S/E
  @SCF    8      -99.188321586517       0.000696829105       0.000571003443
    ci      = [ 0.00000000, 0.00000000]
    ci_grad = [ 0.00000000, 0.00000000]
  Setting level shift to 0.500 S/E
  @SCF    9      -99.188265995166       0.000055591351       0.000013369739
    ci      = [ 0.00000000, 0.00000000]
    ci_grad = [ 0.00000000, 0.00000000]
  Setting level shift to 0.500 S/E
  @SCF   10      -99.188257103034       0.000008892132       0.000002169527
    ci      = [-0.93934204, 0.34298182]
    ci_grad = [ 0.00000000, 0.00000000]
  Setting level shift to 0.500 S/E
  @SCF   11      -99.188255334686       0.000001768348       0.000000855765
    ci      = [-0.93934230, 0.34298112]
    ci_grad = [-0.00000152, 0.00000100]
  Setting level shift to 0.500 S/E
  @SCF   12      -99.188255068103       0.000000266583       0.000000113202
    ci      = [-0.93934223, 0.34298130]
    ci_grad = [-0.00000029,-0.00000001]
  Setting level shift to 0.500 S/E
  @SCF   13      -99.188257583247      -0.000002515144       0.000000557819
    ci      = [-0.93934249, 0.34298061]
    ci_grad = [ 0.00000250,-0.00000048]
  Setting level shift to 0.500 S/E
  @SCF   14      -99.188256441475       0.000001141771       0.000000350215
    ci      = [-0.93934242, 0.34298079]
    ci_grad = [-0.00000111, 0.00000029]
  Setting level shift to 0.500 S/E
  @SCF   15      -99.188256647609      -0.000000206134       0.000000028723
    ci      = [-0.93934243, 0.34298075]
    ci_grad = [ 0.00000020,-0.00000005]
  Setting level shift to 0.500 S/E
  @SCF   16      -99.188272241837      -0.000015594228       0.000001973873
    ci      = [-0.93934243, 0.34298075]
    ci_grad = [ 0.00001562,-0.00000268]
  Setting level shift to 0.500 S/E
  @SCF   17      -99.188250738354       0.000021503483       0.000002899694
    ci      = [-0.93934243, 0.34298075]
    ci_grad = [-0.00002000, 0.00000791]
  Setting level shift to 0.500 S/E
  @SCF   18      -99.337950181260      -0.149699442906       0.036334186923
    ci      = [-0.93934243, 0.34298075]
    ci_grad = [ 0.16014452, 0.02952530]
  Setting level shift to 0.500 S/E
  @SCF   19      -99.382896342222      -0.044946160962       0.017262039761
    ci      = [-0.93934243, 0.34298075]
    ci_grad = [ 0.05147858, 0.01367282]
  Setting level shift to 0.500 S/E
  @SCF   20      -99.391200157173      -0.008303814951       0.006378314047
    ci      = [-0.93934243, 0.34298075]
    ci_grad = [ 0.01832988, 0.03084913]
  Setting level shift to 0.500 S/E
  @SCF   21      -99.396773322561      -0.005573165388       0.005420202107
    ci      = [-0.93934243, 0.34298075]
    ci_grad = [ 0.01331891, 0.02289002]
  Setting level shift to 0.500 S/E
  @SCF   22      -99.402064108179      -0.005290785618       0.006351140636
    ci      = [-0.93934243, 0.34298075]
    ci_grad = [ 0.01288122, 0.02232836]
  Setting level shift to 0.500 S/E
  @SCF   23      -99.404507451476      -0.002443343298       0.004600302145
    ci      = [-0.93934243, 0.34298075]
    ci_grad = [ 0.00874879, 0.01840984]
  Setting level shift to 0.500 S/E
  @SCF   24      -99.405891070830      -0.001383619353       0.005066235080
    ci      = [-0.93934243, 0.34298075]
    ci_grad = [ 0.00789078, 0.01918491]
  Setting level shift to 0.500 S/E
  @SCF   25      -99.405935721612      -0.000044650782       0.000622199698
    ci      = [-0.93934243, 0.34298075]
    ci_grad = [ 0.00661145, 0.01957084]
  Setting level shift to 0.500 S/E
  @SCF   26      -99.405965404294      -0.000029682682       0.000529959104
    ci      = [-0.93934243, 0.34298075]
    ci_grad = [ 0.00660333, 0.01959355]
  Setting level shift to 0.500 S/E
  @SCF   27      -99.405974801193      -0.000009396900       0.000411638515
    ci      = [-0.94806849, 0.31806624]
    ci_grad = [ 0.00656625, 0.01954265]
  Setting level shift to 0.500 S/E
  @SCF   28      -99.405962253166       0.000012548027       0.000163398766
    ci      = [-0.94806849, 0.31806624]
    ci_grad = [-0.00009329,-0.00023836]
  Setting level shift to 0.500 S/E
  @SCF   29      -99.405971510556      -0.000009257390       0.000050763033
    ci      = [-0.94802700, 0.31818989]
    ci_grad = [-0.00002364,-0.00009953]
  Setting level shift to 0.500 S/E
  @SCF   30      -99.405943384364       0.000028126192       0.000192945321
    ci      = [-0.94802700, 0.31818989]
    ci_grad = [-0.00018429,-0.00045970]
  Setting level shift to 0.500 S/E
  @SCF   31      -99.405969500575      -0.000026116211       0.000183121348
    ci      = [-0.94802700, 0.31818989]
    ci_grad = [ 0.00000847,-0.00005684]
  Setting level shift to 0.500 S/E
  @SCF   32      -99.405994960981      -0.000025460406       0.000201614300
    ci      = [-0.94802700, 0.31818989]
    ci_grad = [ 0.00016847, 0.00042276]
  Setting level shift to 0.500 S/E
  @SCF   33      -99.406011786202      -0.000016825221       0.000178390870
    ci      = [-0.94802700, 0.31818989]
    ci_grad = [ 0.00028402, 0.00079621]
  Setting level shift to 0.500 S/E
  @SCF   34      -99.406047087057      -0.000035300855       0.000517590190
    ci      = [-0.94802700, 0.31818989]
    ci_grad = [ 0.00064835, 0.00183591]
  Setting level shift to 0.500 S/E
  @SCF   35      -99.406062720969      -0.000015633912       0.000445533474
    ci      = [-0.94802700, 0.31818989]
    ci_grad = [ 0.00094723, 0.00280802]
  Setting level shift to 0.500 S/E
  @SCF   36      -99.406062974940      -0.000000253971       0.000055333351
    ci      = [-0.94921733, 0.31462113]
    ci_grad = [ 0.00093524, 0.00282084]
  Setting level shift to 0.500 S/E
  @SCF   37      -99.406062994280      -0.000000019340       0.000045182118
    ci      = [-0.94921449, 0.31462970]
    ci_grad = [-0.00000222,-0.00000677]
  Setting level shift to 0.500 S/E
  @SCF   38      -99.406063215120      -0.000000220840       0.000012700140
    ci      = [-0.94922588, 0.31459535]
    ci_grad = [ 0.00000920, 0.00002707]
  Setting level shift to 0.500 S/E
  @SCF   39      -99.406063626164      -0.000000411044       0.000027359657
    ci      = [-0.94924867, 0.31452657]
    ci_grad = [ 0.00001840, 0.00005422]
  Setting level shift to 0.500 S/E
  @SCF   40      -99.406064277063      -0.000000650899       0.000051821562
    ci      = [-0.94929236, 0.31439469]
    ci_grad = [ 0.00003515, 0.00010406]
  Setting level shift to 0.500 S/E
  @SCF   41      -99.406064884346      -0.000000607283       0.000071415087
    ci      = [-0.94935063, 0.31421868]
    ci_grad = [ 0.00004666, 0.00013905]
  Setting level shift to 0.500 S/E
  @SCF   42      -99.406065115141      -0.000000230795       0.000051054340
    ci      = [-0.94938809, 0.31410548]
    ci_grad = [ 0.00002986, 0.00008951]
  Setting level shift to 0.500 S/E
  @SCF   43      -99.406065204047      -0.000000088907       0.000035677038
    ci      = [-0.94941658, 0.31401936]
    ci_grad = [ 0.00002263, 0.00006814]
  Setting level shift to 0.500 S/E
  @SCF   44      -99.406065219338      -0.000000015290       0.000014270994
    ci      = [-0.94942829, 0.31398394]
    ci_grad = [ 0.00000929, 0.00002803]
  Setting level shift to 0.500 S/E
  @SCF   45      -99.406065222528      -0.000000003190       0.000007970847
    ci      = [-0.94943496, 0.31396377]
    ci_grad = [ 0.00000529, 0.00001597]
  Setting level shift to 0.500 S/E
  @SCF   46      -99.406065222657      -0.000000000129       0.000000941161
    ci      = [-0.94943566, 0.31396168]
    ci_grad = [ 0.00000055, 0.00000166]
  Setting level shift to 0.500 S/E
  @SCF   47      -99.406065222660      -0.000000000004       0.000003334533
    ci      = [-0.94943833, 0.31395360]
    ci_grad = [ 0.00000211, 0.00000639]
  Setting level shift to 0.500 S/E
  @SCF   48      -99.406065222744      -0.000000000084       0.000001582733
    ci      = [-0.94943708, 0.31395738]
    ci_grad = [-0.00000099,-0.00000299]
  Setting level shift to 0.500 S/E
  @SCF   49      -99.406065222745      -0.000000000001       0.000000254647
    ci      = [-0.94943686, 0.31395804]
    ci_grad = [-0.00000017,-0.00000052]
  Setting level shift to 0.500 S/E
  @SCF   50      -99.406065222741       0.000000000005       0.000000521297
    ci      = [-0.94943733, 0.31395662]
    ci_grad = [ 0.00000037, 0.00000112]
  Setting level shift to 0.500 S/E
  @SCF   51      -99.406065222746      -0.000000000006       0.000000605725
    ci      = [-0.94943684, 0.31395810]
    ci_grad = [-0.00000039,-0.00000117]
  Setting level shift to 0.500 S/E
  @SCF   52      -99.406065222747      -0.000000000001       0.000000165750
    ci      = [-0.94943699, 0.31395763]
    ci_grad = [ 0.00000012, 0.00000038]
  Setting level shift to 0.500 S/E
  @SCF   53      -99.406065222747      -0.000000000000       0.000000038814
    ci      = [-0.94943697, 0.31395771]
    ci_grad = [-0.00000002,-0.00000007]
  Setting level shift to 0.500 S/E
  @SCF   54      -99.406065222747       0.000000000000       0.000000011003
    ci      = [-0.94943697, 0.31395771]
    ci_grad = [-0.00000000,-0.00000000]
  Setting level shift to 0.500 S/E
  @SCF   55      -99.406065222747       0.000000000000       0.000000005270
    ci      = [-0.94943697, 0.31395771]
    ci_grad = [ 0.00000000, 0.00000000]
  Setting level shift to 0.500 S/E
  @SCF   56      -99.406065222747       0.000000000000       0.000000003692
    ci      = [-0.94943697, 0.31395772]
    ci_grad = [-0.00000000,-0.00000000]
  Setting level shift to 0.500 S/E
  @SCF   57      -99.406065222747      -0.000000000000       0.000000005041
    ci      = [-0.94943697, 0.31395772]
    ci_grad = [-0.00000000,-0.00000000]
  Setting level shift to 0.500 S/E
  @SCF   58      -99.406065222747       0.000000000000       0.000000003073
    ci      = [-0.94943697, 0.31395772]
    ci_grad = [ 0.00000000, 0.00000000]
  Setting level shift to 0.500 S/E
  @SCF   59      -99.406065222747       0.000000000000       0.000000000629
    ci      = [-0.94943697, 0.31395771]
    ci_grad = [ 0.00000000, 0.00000000]
  Setting level shift to 0.500 S/E
  @SCF   60      -99.406065222747      -0.000000000000       0.000000001111
    ci      = [-0.94943697, 0.31395771]
    ci_grad = [ 0.00000000, 0.00000000]
  Setting level shift to 0.500 S/E
  @SCF   61      -99.406065222747      -0.000000000000       0.000000000751
    ci      = [-0.94943697, 0.31395771]
    ci_grad = [ 0.00000000, 0.00000000]
  Setting level shift to 0.500 S/E
  @SCF   62      -99.406065222747       0.000000000000       0.000000000308
    ci      = [-0.94943697, 0.31395771]
    ci_grad = [ 0.00000000, 0.00000000]
  Setting level shift to 0.500 S/E
  @SCF   63      -99.406065222747      -0.000000000000       0.000000000105
    ci      = [-0.94943697, 0.31395771]
    ci_grad = [-0.00000000,-0.00000000]
  Setting level shift to 0.500 S/E
  @SCF   64      -99.406065222747       0.000000000000       0.000000000058
    ci      = [-0.94943697, 0.31395771]
    ci_grad = [ 0.00000000, 0.00000000]
  Setting level shift to 0.500 S/E
  @SCF   65      -99.406065222747      -0.000000000000       0.000000000052
    ci      = [-0.94943697, 0.31395771]
    ci_grad = [-0.00000000,-0.00000000]
  Setting level shift to 0.500 S/E
  @SCF   66      -99.406065222747       0.000000000000       0.000000000013
    ci      = [-0.94943697, 0.31395771]
    ci_grad = [ 0.00000000, 0.00000000]
  =========================================================================================

      * SCF total energy   =     -99.406065222747


      CI coefficients  = [-0.949436968, 0.313957711]

  End of SCF
  MOs orthonormality check passed.

  Orbitals are canonicalized as:
  inactive (docc + uocc) : Fock(core)
  active   (actv)        : Fock(core)

  =========================================================================
  Eigenvalues (Eh)
  -------------------------------------------------------------------------
  Doubly occupied orbitals
      1    -26.175209  A1      2     -1.495695  A1      3     -0.623385  B2
      4     -0.623385  B1
  Active orbitals
      5     -0.510102  A1      6      0.074682  A1
  Unoccupied orbitals
      7      1.595133  A1      8      2.709370  B1      9      2.709370  B2
     10      2.796416  A1     11      3.870480  A1
  =========================================================================


  MCSCF Execution Completed.


*** tstop() called on DESKTOP-JOFFIR0 at Thu Jul  5 21:43:05 2018
Module time:
	user time   =       0.04 seconds =       0.00 minutes
	system time =       0.05 seconds =       0.00 minutes
	total time  =          0 seconds =       0.00 minutes
Total time:
	user time   =       0.04 seconds =       0.00 minutes
	system time =       0.05 seconds =       0.00 minutes
	total time  =          0 seconds =       0.00 minutes
	MCSCF energy......................................................PASSED
   => Loading Basis Set <=

    Name: STO-3G
    Role: ORBITAL
    Keyword: MINAO_BASIS
    atoms 1 entry F          line    91 file /home/zty/Source/psi4-github-bin-g++-6.3.0-opt-c++11/share/psi4/basis/sto-3g.gbs 
    atoms 2 entry H          line    19 file /home/zty/Source/psi4-github-bin-g++-6.3.0-opt-c++11/share/psi4/basis/sto-3g.gbs 


Reading options from the FORTE block
Calling plugin forte.so.



  Forte
  ----------------------------------------------------------------------------
  A suite of quantum chemistry methods for strongly correlated electrons

    git branch: DSRG_NIVO - git commit: 05d3f4c

  Developed by:
    Francesco A. Evangelista, Chenyang Li, Kevin P. Hannon,
    Jeffrey B. Schriber, Tianyuan Zhang, Chenxi Cai
  ----------------------------------------------------------------------------

  Size of Determinant class: 16

  ==> MO Space Information <==

  Read options for space FROZEN_DOCC
  Read options for space RESTRICTED_DOCC
  Read options for space ACTIVE
 Removing orbital 0
  -------------------------------------------------
                       A1    A2    B1    B2   Sum
  -------------------------------------------------
    FROZEN_DOCC         1     0     0     0     1
    RESTRICTED_DOCC     1     0     1     1     3
    ACTIVE              2     0     0     0     2
    RESTRICTED_UOCC     3     0     1     1     5
    FROZEN_UOCC         0     0     0     0     0
    Total               7     0     2     2    11
  -------------------------------------------------

  ==> Integral Transformation <==

  Number of molecular orbitals:               11
  Number of correlated molecular orbitals:    10
  Number of frozen occupied orbitals:          1
  Number of frozen unoccupied orbitals:        0

    Molecular point group: c2v
    Full point group: C_inf_v

    Geometry (in Angstrom), charge = 0, multiplicity = 1:

       Center              X                  Y                   Z               Mass       
    ------------   -----------------  -----------------  -----------------  -----------------
         F            0.000000000000     0.000000000000    -0.075563346012    18.998403224000
         H            0.000000000000     0.000000000000     1.424436653988     1.007825032070

  -AO BASIS SET INFORMATION:
    Name                   = 3-21G
    Blend                  = 3-21G
    Total number of shells = 7
    Number of primitives   = 12
    Number of AO           = 11
    Number of SO           = 11
    Maximum AM             = 1
    Spherical Harmonics    = FALSE

  -Contraction Scheme:
    Atom   Type   All Primitives // Shells:
   ------ ------ --------------------------
       1     F     6s 3p // 3s 2p 
       2     H     3s // 2s 

  ==> AO Basis Functions <==

    [ 3-21G ]
    cartesian
    ****
    F   1
    S   3 1.00
                       413.80100000           0.05854830
                        62.24460000           0.34930800
                        13.43400000           0.70963200
    S   2 1.00
                         9.77759000          -0.40732700
                         2.08617000           1.22314000
    P   2 1.00
                         9.77759000           0.24668000
                         2.08617000           0.85232100
    S   1 1.00
                         0.48238300           1.00000000
    P   1 1.00
                         0.48238300           1.00000000
    ****
    H   2
    S   2 1.00
                         5.44717800           0.15628500
                         0.82454700           0.90469100
    S   1 1.00
                         0.18319200           1.00000000
    ****


  Cholesky integrals time
 Computing the Cholesky Vectors 

    Computing CD Integrals               ......Done. Timing        0.011067 s
 Need 0.000039 GB to store cd integrals in core

 Number of cholesky vectors 43 to satisfy       0.000100000000 tolerance

  Frozen-core energy            -75.818535537075 a.u.

  FrozenOneBody Operator takes  0.04619500 s
  Resorting integrals after freezing core.
  CholeskyIntegrals take 0.08090500

                -----------------------------------------------
                  String-based Full Configuration Interaction
                          by Francesco A. Evangelista
                -----------------------------------------------

  Number of electrons: 10
  Charge: 0
  Multiplicity: 1
  Davidson subspace max dim: 8
  Davidson subspace min dim: 2
  M_s: 0

  ==> String Lists <==

  Number of alpha electrons     = 1
  Number of beta electrons      = 1
  Number of alpha strings       = 2
  Number of beta strings        = 2
  Timing for strings        =      0.000 s
  Timing for NN strings     =      0.000 s
  Timing for VO strings     =      0.000 s
  Timing for OO strings     =      0.000 s
  Timing for VVOO strings   =      0.000 s
  Timing for VOVO strings   =      0.000 s
  Timing for 1-hole strings =      0.000 s
  Timing for 2-hole strings =      0.000 s
  Timing for 3-hole strings =      0.000 s
  Total timing              =      0.000 s

  ==> FCI Solver <==

    Number of determinants                           4
    Symmetry                                         0
    Multiplicity                                     1
    Number of roots                                  1
    Target root                                      0
    Trial vectors per root                          10

  Allocating memory for the Hamiltonian algorithm. Size: 2 x 2 x 2.   Memory: 0.000000 GB

  ==> FCI Initial Guess <==

  ---------------------------------------------
    Root            Energy     <S^2>   Spin
  ---------------------------------------------
      0      -99.406056113283  0.000  singlet
      1      -99.266201507751  2.000  triplet
      2      -98.863138509636  0.000  singlet
      3      -98.545347906119  0.000  singlet
  ---------------------------------------------
  Timing for initial guess  =      0.000 s

  Projecting out root 1
  ==> Diagonalizing Hamiltonian <==

  ----------------------------------------
    Iter.      Avg. Energy       Delta_E
  ----------------------------------------
      1      -99.406056113283  -9.941e+01
      2      -99.406056113283  +2.842e-14
  ----------------------------------------
  The Davidson-Liu algorithm converged in 3 iterations.

  ==> Root No. 0 <==

    20     -0.94943616
    02      0.31396014

    Total Energy:       -99.406056113283228

  ==> Computing RDMs for Root No. 0 <==

    Timing for 1-RDM: 0.000 s
    Timing for 2-RDM: 0.000 s
    Timing for 3-RDM: 0.000 s

  ==> NATURAL ORBITALS <==

        1A1     1.802858      2A1     0.197142  


       -----------------------------------------------------------------
                            Semi-Canonical Orbitals
         Chenyang Li, Jeffrey B. Schriber and Francesco A. Evangelista
       -----------------------------------------------------------------

  Took 0.000725 s to build Fock matrix

  ==> Checking Fock Matrix Diagonal Blocks <==

    Off-Diag. Elements       Max           2-Norm
    ------------------------------------------------
    Fa actv              0.0348820248   0.0493306326
    Fb actv              0.0348820248   0.0493306326
    ------------------------------------------------
    Fa core              0.0000000000   0.0000000000
    Fb core              0.0000000000   0.0000000000
    ------------------------------------------------
    Fa virt              0.0000149791   0.0000234993
    Fb virt              0.0000149791   0.0000234993
    ------------------------------------------------

  ==> Integral Transformation to Semicanonical Basis <==
    Molecular point group: c2v
    Full point group: C_inf_v

    Geometry (in Angstrom), charge = 0, multiplicity = 1:

       Center              X                  Y                   Z               Mass       
    ------------   -----------------  -----------------  -----------------  -----------------
         F            0.000000000000     0.000000000000    -0.075563346012    18.998403224000
         H            0.000000000000     0.000000000000     1.424436653988     1.007825032070

  -AO BASIS SET INFORMATION:
    Name                   = 3-21G
    Blend                  = 3-21G
    Total number of shells = 7
    Number of primitives   = 12
    Number of AO           = 11
    Number of SO           = 11
    Maximum AM             = 1
    Spherical Harmonics    = FALSE

  -Contraction Scheme:
    Atom   Type   All Primitives // Shells:
   ------ ------ --------------------------
       1     F     6s 3p // 3s 2p 
       2     H     3s // 2s 

  ==> AO Basis Functions <==

    [ 3-21G ]
    cartesian
    ****
    F   1
    S   3 1.00
                       413.80100000           0.05854830
                        62.24460000           0.34930800
                        13.43400000           0.70963200
    S   2 1.00
                         9.77759000          -0.40732700
                         2.08617000           1.22314000
    P   2 1.00
                         9.77759000           0.24668000
                         2.08617000           0.85232100
    S   1 1.00
                         0.48238300           1.00000000
    P   1 1.00
                         0.48238300           1.00000000
    ****
    H   2
    S   2 1.00
                         5.44717800           0.15628500
                         0.82454700           0.90469100
    S   1 1.00
                         0.18319200           1.00000000
    ****


 Integrals are about to be computed.
 Computing the Cholesky Vectors 

    Computing CD Integrals               ......Done. Timing        0.016312 s
 Need 0.000039 GB to store cd integrals in core

 Number of cholesky vectors 43 to satisfy       0.000100000000 tolerance

 Integrals are about to be updated.
  Frozen-core energy            -75.818535537075 a.u.

  FrozenOneBody Operator takes  0.04762500 s
  Resorting integrals after freezing core.
  Frozen Orbitals takes     0.048 s.

  ==> Reference Transformation to Semicanonical Basis <==

    Transformed 1 cumulants.
    Transformed 2 cumulants and RDMs.
    Transformed 3 cumulants.
  SemiCanonicalize takes 0.284444 s.

  ==> Multireference Driven Similarity Renormalization Group <==

    Reading DSRG options ............................ Done
    Setting ambit MO space .......................... Done
    Preparing tensors for density cumulants ......... Done
    Building Fock matrix ............................ Done
    Checking reference energy ....................... Done

           ----------------------------------------------------------
             Multireference Driven Similarity Renormalization Group
                                  Chenyang Li
           ----------------------------------------------------------

  Additional contributions by: Tianyuan Zhang

  ==> Density Cumulant Summary <==

    2-body             AA           AB           BB
    -----------------------------------------------
    max          0.088855     0.294747     0.088855
    norm         0.177709     0.457482     0.177709
    -----------------------------------------------
    3-body            AAA          AAB          ABB          BBB
    ------------------------------------------------------------
    max          0.000000     0.070835     0.070835     0.000000
    norm         0.000000     0.201774     0.201774     0.000000
    ------------------------------------------------------------

  ==> Checking Semicanonical Orbitals <==

    Abs. max of Fock core, active, virtual blocks (Fij, i != j)
                  core          active         virtual
    --------------------------------------------------
    Fα    0.0000000000    0.0000000000    0.0000000000
    Fβ    0.0000000000    0.0000000000    0.0000000000
    --------------------------------------------------

    1-Norm of Fock core, active, virtual blocks (Fij, i != j)
                  core          active         virtual
    --------------------------------------------------
    Fα    0.0000000000    0.0000000000    0.0000000000
    Fβ    0.0000000000    0.0000000000    0.0000000000
    --------------------------------------------------

    Orbitals are semi-canonicalized.

  ==> Calculation Information <==

    ntamp                                            15
    diis_min_vecs                                     2
    diis_max_vecs                                     5
    flow parameter                            1.000e+00
    taylor expansion threshold                1.000e-03
    intruder_tamp                             1.000e-01
    corr_level                                   LDSRG2
    int_type                                   CHOLESKY
    source operator                            STANDARD
    smart_dsrg_s                                 DSRG_S
    reference relaxation                          TWICE
    dsrg transformation type                    UNITARY
    core virtual source type                     NORMAL
    sequential dsrg transformation                FALSE
    omit blocks of >= 3 virtual indices            TRUE


  ==> MR-DSRG Reference Relaxation Iter. 0 <==


  ==> Build Initial Amplitude from DSRG-MRPT2 <==

    Computing T2 amplitudes ...          Done. Timing      0.004 s
    Computing T1 amplitudes ...          Done. Timing      0.001 s

  ==> First-Order Excitation Amplitudes Summary <==

    Active Indices:    1    2 
    Largest T1 amplitudes for spin case A:
       i       a                  i       a                  i       a               
    --------------------------------------------------------------------------------
    [  2       4    ]-0.102482 [  2       3    ]-0.096229 [  0       1    ] 0.039642 
    [  1       4    ]-0.020487 [  1       3    ] 0.007568 [  0       2    ]-0.006770 
    [  2       5    ] 0.004895 [  1       5    ] 0.003080 [  6       7    ] 0.000315 
    [  8       9    ] 0.000315 [  0       3    ]-0.000098 [  0       5    ]-0.000032 
    [  0       4    ] 0.000024 
    --------------------------------------------------------------------------------
    Norm of T1A vector: (nonzero elements: 13)                    0.147954379011925.
    --------------------------------------------------------------------------------
    Largest T1 amplitudes for spin case B:
       _       _                  _       _                  _       _               
       i       a                  i       a                  i       a               
    --------------------------------------------------------------------------------
    [  2       4    ]-0.102482 [  2       3    ]-0.096229 [  0       1    ] 0.039642 
    [  1       4    ]-0.020487 [  1       3    ] 0.007568 [  0       2    ]-0.006770 
    [  2       5    ] 0.004895 [  1       5    ] 0.003080 [  6       7    ] 0.000315 
    [  8       9    ] 0.000315 [  0       3    ]-0.000098 [  0       5    ]-0.000032 
    [  0       4    ] 0.000024 
    --------------------------------------------------------------------------------
    Norm of T1B vector: (nonzero elements: 13)                    0.147954379011925.
    --------------------------------------------------------------------------------
    Largest T2 amplitudes for spin case AA:
       i   j   a   b              i   j   a   b              i   j   a   b           
    --------------------------------------------------------------------------------
    [  1   6   1   7]-0.046847 [  1   8   1   9]-0.046847 [  2   6   1   7]-0.045392 
    [  2   8   1   9]-0.045392 [  2   6   2   7]-0.036069 [  2   8   2   9]-0.036069 
    [  0   1   1   2] 0.034295 [  1   6   2   7]-0.030772 [  1   8   2   9]-0.030772 
    [  1   2   1   3]-0.024606 [  6   8   7   9]-0.024087 [  0   1   1   5]-0.021279 
    [  1   2   1   4]-0.019810 [  2   6   4   7]-0.019572 [  2   8   4   9]-0.019572 
    --------------------------------------------------------------------------------
    Norm of T2AA vector: (nonzero elements: 240)                  0.282242850352003.
    --------------------------------------------------------------------------------
    Largest T2 amplitudes for spin case AB:
           _       _                  _       _                  _       _           
       i   j   a   b              i   j   a   b              i   j   a   b           
    --------------------------------------------------------------------------------
    [  2   2   2   3]-0.075865 [  2   2   1   4]-0.074388 [  0   0   1   1]-0.060156 
    [  2   2   3   3]-0.051716 [  1   2   1   3]-0.050780 [  1   2   1   4]-0.050278 
    [  2   6   1   7]-0.050009 [  2   8   1   9]-0.050009 [  1   6   1   7]-0.048769 
    [  1   8   1   9]-0.048769 [  1   2   2   4]-0.046425 [  2   6   2   7]-0.039894 
    [  2   8   2   9]-0.039894 [  6   6   7   7]-0.036327 [  8   8   9   9]-0.036327 
    --------------------------------------------------------------------------------
    Norm of T2AB vector: (nonzero elements: 405)                  0.349804347265926.
    --------------------------------------------------------------------------------
    Largest T2 amplitudes for spin case BB:
       _   _   _   _              _   _   _   _              _   _   _   _           
       i   j   a   b              i   j   a   b              i   j   a   b           
    --------------------------------------------------------------------------------
    [  1   6   1   7]-0.046847 [  1   8   1   9]-0.046847 [  2   6   1   7]-0.045392 
    [  2   8   1   9]-0.045392 [  2   6   2   7]-0.036069 [  2   8   2   9]-0.036069 
    [  0   1   1   2] 0.034295 [  1   6   2   7]-0.030772 [  1   8   2   9]-0.030772 
    [  1   2   1   3]-0.024606 [  6   8   7   9]-0.024087 [  0   1   1   5]-0.021279 
    [  1   2   1   4]-0.019810 [  2   6   4   7]-0.019572 [  2   8   4   9]-0.019572 
    --------------------------------------------------------------------------------
    Norm of T2BB vector: (nonzero elements: 240)                  0.282242850352003.
    --------------------------------------------------------------------------------

  ==> Possible Intruders <==

    T1 amplitudes larger than 0.1000 for spin case A:
        Amplitude         Value                  Denominator              
    ----------------------------------------------------------------------
    [  2       4    ]   -0.10248160 (  0.076767 -   2.296429 =  -2.219662)
    ----------------------------------------------------------------------
    T1 amplitudes larger than 0.1000 for spin case B:
        Amplitude         Value                  Denominator              
    ----------------------------------------------------------------------
    [  2       4    ]   -0.10248160 (  0.076767 -   2.296429 =  -2.219662)
    ----------------------------------------------------------------------
    T2 amplitudes larger than 0.1000 for spin case AA: NULL
    T2 amplitudes larger than 0.1000 for spin case AB: NULL
    T2 amplitudes larger than 0.1000 for spin case BB: NULL

  ==> Computing MR-LDSRG(2) Energy <==

    Reference:
      J. Chem. Phys. 2016, 144, 164114.

                  Energy (a.u.)           Non-Diagonal Norm        Amplitude RMS         Timings (s)   
           ---------------------------  ---------------------  ---------------------  -----------------
    Iter.        Corr.         Delta       Hbar1      Hbar2        T1         T2        Hbar     Amp.  
    ---------------------------------------------------------------------------------------------------
        0   -0.090400438803 -9.040e-02   1.317e-01  6.324e-01   3.379e-02  1.609e-01    10.330    0.004
        1   -0.092325615385 -1.925e-03   1.343e-01  2.247e-01   1.547e-02  4.148e-02     8.510    0.004
        2   -0.092797047094 -4.714e-04   1.140e-01  1.611e-01   3.213e-03  1.321e-02     8.112    0.004
        3   -0.092822547248 -2.550e-05   1.166e-01  1.609e-01   1.398e-03  4.337e-03     8.249    0.004
        4   -0.092828847620 -6.300e-06   1.153e-01  1.583e-01   3.701e-04  1.361e-03     8.174    0.004
        5   -0.092824757423  4.090e-06   1.156e-01  1.587e-01   1.438e-04  4.394e-04     8.240    0.004 -> DIIS
        6   -0.092824585796  1.716e-07   1.155e-01  1.585e-01   3.936e-05  1.369e-04     8.114    0.004 -> DIIS
        7   -0.092823755331  8.305e-07   1.155e-01  1.585e-01   7.332e-07  5.120e-06     8.182    0.004 -> DIIS
        8   -0.092823801419 -4.609e-08   1.155e-01  1.585e-01   3.512e-07  1.503e-06     8.224    0.004 -> DIIS
        9   -0.092823800074  1.346e-09   1.155e-01  1.585e-01   9.409e-08  5.230e-07     8.023    0.004
    ---------------------------------------------------------------------------------------------------

  ==> MR-LDSRG(2) Energy Summary <==

    E0 (reference)                 =     -99.406056113283228
    MR-LDSRG(2) correlation energy =      -0.092823800073547
    MR-LDSRG(2) total energy       =     -99.498879913356774

  ==> Final Excitation Amplitudes Summary <==

    Active Indices:    1    2 
    Largest T1 amplitudes for spin case A:
       i       a                  i       a                  i       a               
    --------------------------------------------------------------------------------
    [  2       4    ]-0.090634 [  2       3    ]-0.088699 [  0       1    ] 0.048879 
    [  1       4    ]-0.015009 [  0       2    ]-0.010821 [  1       3    ] 0.005682 
    [  2       5    ] 0.002591 [  1       5    ] 0.002100 [  0       4    ] 0.000818 
    [  0       5    ]-0.000692 [  6       7    ] 0.000572 [  8       9    ] 0.000572 
    [  0       3    ] 0.000569 
    --------------------------------------------------------------------------------
    Norm of T1A vector: (nonzero elements: 13)                    0.137328039096772.
    --------------------------------------------------------------------------------
    Largest T1 amplitudes for spin case B:
       _       _                  _       _                  _       _               
       i       a                  i       a                  i       a               
    --------------------------------------------------------------------------------
    [  2       4    ]-0.090634 [  2       3    ]-0.088699 [  0       1    ] 0.048879 
    [  1       4    ]-0.015009 [  0       2    ]-0.010821 [  1       3    ] 0.005682 
    [  2       5    ] 0.002591 [  1       5    ] 0.002100 [  0       4    ] 0.000818 
    [  0       5    ]-0.000692 [  6       7    ] 0.000572 [  8       9    ] 0.000572 
    [  0       3    ] 0.000569 
    --------------------------------------------------------------------------------
    Norm of T1B vector: (nonzero elements: 13)                    0.137328039096772.
    --------------------------------------------------------------------------------
    Largest T2 amplitudes for spin case AA:
       i   j   a   b              i   j   a   b              i   j   a   b           
    --------------------------------------------------------------------------------
    [  0   1   1   2] 0.040654 [  1   6   1   7]-0.037832 [  1   8   1   9]-0.037832 
    [  2   6   1   7]-0.029862 [  2   8   1   9]-0.029862 [  1   8   2   9]-0.025518 
    [  1   6   2   7]-0.025518 [  2   6   2   7]-0.024581 [  2   8   2   9]-0.024581 
    [  6   8   7   9]-0.023013 [  1   2   1   3]-0.021268 [  0   2   1   2]-0.016892 
    [  0   1   1   5]-0.016259 [  1   2   2   3]-0.016128 [  1   8   4   9]-0.014322 
    --------------------------------------------------------------------------------
    Norm of T2AA vector: (nonzero elements: 240)                  0.226551194656783.
    --------------------------------------------------------------------------------
    Largest T2 amplitudes for spin case AB:
           _       _                  _       _                  _       _           
       i   j   a   b              i   j   a   b              i   j   a   b           
    --------------------------------------------------------------------------------
    [  0   0   1   1]-0.067804 [  2   2   2   3]-0.059844 [  1   2   1   3]-0.048007 
    [  6   6   7   7]-0.041626 [  8   8   9   9]-0.041626 [  1   8   1   9]-0.041333 
    [  1   6   1   7]-0.041333 [  0   0   1   2]-0.040296 [  2   2   3   3]-0.036984 
    [  2   8   1   9]-0.035308 [  2   6   1   7]-0.035308 [  2   2   1   4]-0.035032 
    [  1   2   2   4]-0.030500 [  2   6   2   7]-0.030378 [  2   8   2   9]-0.030378 
    --------------------------------------------------------------------------------
    Norm of T2AB vector: (nonzero elements: 405)                  0.298694783453321.
    --------------------------------------------------------------------------------
    Largest T2 amplitudes for spin case BB:
       _   _   _   _              _   _   _   _              _   _   _   _           
       i   j   a   b              i   j   a   b              i   j   a   b           
    --------------------------------------------------------------------------------
    [  0   1   1   2] 0.040654 [  1   6   1   7]-0.037832 [  1   8   1   9]-0.037832 
    [  2   6   1   7]-0.029862 [  2   8   1   9]-0.029862 [  1   8   2   9]-0.025518 
    [  1   6   2   7]-0.025518 [  2   6   2   7]-0.024581 [  2   8   2   9]-0.024581 
    [  6   8   7   9]-0.023013 [  1   2   1   3]-0.021268 [  0   2   1   2]-0.016892 
    [  0   1   1   5]-0.016259 [  1   2   2   3]-0.016128 [  1   6   4   7]-0.014322 
    --------------------------------------------------------------------------------
    Norm of T2BB vector: (nonzero elements: 240)                  0.226551194656783.
    --------------------------------------------------------------------------------

  ==> Possible Intruders <==

    T1 amplitudes larger than 0.1000 for spin case A: NULL
    T1 amplitudes larger than 0.1000 for spin case B: NULL
    T2 amplitudes larger than 0.1000 for spin case AA: NULL
    T2 amplitudes larger than 0.1000 for spin case AB: NULL
    T2 amplitudes larger than 0.1000 for spin case BB: NULL

  ==> De-Normal-Order DSRG Transformed Hamiltonian <==

    Computing the scalar term                ... Done. Timing    0.001 s
    Computing the 1-body term                ... Done. Timing    0.001 s

  ==> Rotate DSRG Transformed Hamiltonian back to Original Basis <==

    Rotating 1-body term to original basis   ... Done. Timing    0.000 s
    Rotating 2-body term to original basis   ... Done. Timing    0.003 s

                -----------------------------------------------
                  String-based Full Configuration Interaction
                          by Francesco A. Evangelista
                -----------------------------------------------

  Number of electrons: 10
  Charge: 0
  Multiplicity: 1
  Davidson subspace max dim: 8
  Davidson subspace min dim: 2
  M_s: 0

  ==> String Lists <==

  Number of alpha electrons     = 1
  Number of beta electrons      = 1
  Number of alpha strings       = 2
  Number of beta strings        = 2
  Timing for strings        =      0.000 s
  Timing for NN strings     =      0.000 s
  Timing for VO strings     =      0.000 s
  Timing for OO strings     =      0.000 s
  Timing for VVOO strings   =      0.000 s
  Timing for VOVO strings   =      0.000 s
  Timing for 1-hole strings =      0.000 s
  Timing for 2-hole strings =      0.000 s
  Timing for 3-hole strings =      0.000 s
  Total timing              =      0.000 s

  ==> FCI Solver <==

    Number of determinants                           4
    Symmetry                                         0
    Multiplicity                                     1
    Number of roots                                  1
    Target root                                      0
    Trial vectors per root                          10

  Allocating memory for the Hamiltonian algorithm. Size: 2 x 2 x 2.   Memory: 0.000000 GB

  ==> FCI Initial Guess <==

  ---------------------------------------------
    Root            Energy     <S^2>   Spin
  ---------------------------------------------
      0      -99.500286824390  0.000  singlet
      1      -99.368948955338  2.000  triplet
      2      -99.096089400731  0.000  singlet
      3      -98.769701065302  0.000  singlet
  ---------------------------------------------
  Timing for initial guess  =      0.000 s

  Projecting out root 1
  ==> Diagonalizing Hamiltonian <==

  ----------------------------------------
    Iter.      Avg. Energy       Delta_E
  ----------------------------------------
      1      -99.500286824390  -9.950e+01
      2      -99.500286824390  -1.421e-14
  ----------------------------------------
  The Davidson-Liu algorithm converged in 3 iterations.

  ==> Root No. 0 <==

    20      0.96245266
    02     -0.27004930

    Total Energy:       -99.500286824389676

  ==> Computing RDMs for Root No. 0 <==

    Timing for 1-RDM: 0.000 s
    Timing for 2-RDM: 0.000 s
    Timing for 3-RDM: 0.000 s

  ==> NATURAL ORBITALS <==

        1A1     1.853814      2A1     0.146186  

  The following reference rotation will make the new reference and integrals in the same basis.

  ==> Reference Transformation to Semicanonical Basis <==

    Transformed 1 cumulants.
    Transformed 2 cumulants and RDMs.
    Transformed 3 cumulants.

  ==> Semicanonicalize Orbitals <==

  Took 0.000547 s to build Fock matrix

  ==> Checking Fock Matrix Diagonal Blocks <==

    Off-Diag. Elements       Max           2-Norm
    ------------------------------------------------
    Fa actv              0.0039775460   0.0056250996
    Fb actv              0.0039775460   0.0056250996
    ------------------------------------------------
    Fa core              0.0000000000   0.0000000000
    Fb core              0.0000000000   0.0000000000
    ------------------------------------------------
    Fa virt              0.0020434931   0.0047595004
    Fb virt              0.0020434931   0.0047595004
    ------------------------------------------------

  ==> Integral Transformation to Semicanonical Basis <==
    Molecular point group: c2v
    Full point group: C_inf_v

    Geometry (in Angstrom), charge = 0, multiplicity = 1:

       Center              X                  Y                   Z               Mass       
    ------------   -----------------  -----------------  -----------------  -----------------
         F            0.000000000000     0.000000000000    -0.075563346012    18.998403224000
         H            0.000000000000     0.000000000000     1.424436653988     1.007825032070

  -AO BASIS SET INFORMATION:
    Name                   = 3-21G
    Blend                  = 3-21G
    Total number of shells = 7
    Number of primitives   = 12
    Number of AO           = 11
    Number of SO           = 11
    Maximum AM             = 1
    Spherical Harmonics    = FALSE

  -Contraction Scheme:
    Atom   Type   All Primitives // Shells:
   ------ ------ --------------------------
       1     F     6s 3p // 3s 2p 
       2     H     3s // 2s 

  ==> AO Basis Functions <==

    [ 3-21G ]
    cartesian
    ****
    F   1
    S   3 1.00
                       413.80100000           0.05854830
                        62.24460000           0.34930800
                        13.43400000           0.70963200
    S   2 1.00
                         9.77759000          -0.40732700
                         2.08617000           1.22314000
    P   2 1.00
                         9.77759000           0.24668000
                         2.08617000           0.85232100
    S   1 1.00
                         0.48238300           1.00000000
    P   1 1.00
                         0.48238300           1.00000000
    ****
    H   2
    S   2 1.00
                         5.44717800           0.15628500
                         0.82454700           0.90469100
    S   1 1.00
                         0.18319200           1.00000000
    ****


 Integrals are about to be computed.
 Computing the Cholesky Vectors 

    Computing CD Integrals               ......Done. Timing        0.016383 s
 Need 0.000039 GB to store cd integrals in core

 Number of cholesky vectors 43 to satisfy       0.000100000000 tolerance

 Integrals are about to be updated.
  Frozen-core energy            -75.818535537075 a.u.

  FrozenOneBody Operator takes  0.04697900 s
  Resorting integrals after freezing core.
  Frozen Orbitals takes     0.047 s.

  ==> Reference Transformation to Semicanonical Basis <==

    Transformed 1 cumulants.
    Transformed 2 cumulants and RDMs.
    Transformed 3 cumulants.
  SemiCanonicalize takes 0.280519 s.

  ==> Density Cumulant Summary <==

    2-body             AA           AB           BB
    -----------------------------------------------
    max          0.067750     0.259208     0.067750
    norm         0.135501     0.392251     0.135501
    -----------------------------------------------
    3-body            AAA          AAB          ABB          BBB
    ------------------------------------------------------------
    max          0.000000     0.057688     0.057688     0.000000
    norm         0.000000     0.163614     0.163614     0.000000
    ------------------------------------------------------------

  ==> MR-DSRG Reference Relaxation Iter. 1 <==


  ==> Build Initial Amplitude from DSRG-MRPT2 <==

    Computing T2 amplitudes ...          Done. Timing      0.004 s
    Computing T1 amplitudes ...          Done. Timing      0.001 s

  ==> First-Order Excitation Amplitudes Summary <==

    Active Indices:    1    2 
    Largest T1 amplitudes for spin case A:
       i       a                  i       a                  i       a               
    --------------------------------------------------------------------------------
    [  2       4    ] 0.105124 [  2       3    ] 0.095019 [  0       1    ]-0.041029 
    [  1       4    ] 0.020386 [  1       3    ]-0.007342 [  0       2    ] 0.007220 
    [  2       5    ]-0.005489 [  1       5    ]-0.003136 [  6       7    ]-0.001895 
    [  8       9    ]-0.001895 [  0       5    ] 0.001092 [  0       4    ]-0.000075 
    [  0       3    ]-0.000067 
    --------------------------------------------------------------------------------
    Norm of T1A vector: (nonzero elements: 13)                    0.149441986864919.
    --------------------------------------------------------------------------------
    Largest T1 amplitudes for spin case B:
       _       _                  _       _                  _       _               
       i       a                  i       a                  i       a               
    --------------------------------------------------------------------------------
    [  2       4    ] 0.105124 [  2       3    ] 0.095019 [  0       1    ]-0.041029 
    [  1       4    ] 0.020386 [  1       3    ]-0.007342 [  0       2    ] 0.007220 
    [  2       5    ]-0.005489 [  1       5    ]-0.003136 [  6       7    ]-0.001895 
    [  8       9    ]-0.001895 [  0       5    ] 0.001092 [  0       4    ]-0.000075 
    [  0       3    ]-0.000067 
    --------------------------------------------------------------------------------
    Norm of T1B vector: (nonzero elements: 13)                    0.149441986864919.
    --------------------------------------------------------------------------------
    Largest T2 amplitudes for spin case AA:
       i   j   a   b              i   j   a   b              i   j   a   b           
    --------------------------------------------------------------------------------
    [  1   6   1   7]-0.046381 [  1   8   1   9]-0.046381 [  2   6   1   7]-0.045772 
    [  2   8   1   9]-0.045772 [  2   6   2   7]-0.036567 [  2   8   2   9]-0.036567 
    [  0   1   1   2]-0.034458 [  1   8   2   9]-0.030709 [  1   6   2   7]-0.030709 
    [  1   2   1   3] 0.024429 [  6   8   7   9]-0.024097 [  0   1   1   5]-0.021064 
    [  1   2   1   4] 0.019726 [  2   6   4   7] 0.019689 [  2   8   4   9] 0.019689 
    --------------------------------------------------------------------------------
    Norm of T2AA vector: (nonzero elements: 240)                  0.282508851656411.
    --------------------------------------------------------------------------------
    Largest T2 amplitudes for spin case AB:
           _       _                  _       _                  _       _           
       i   j   a   b              i   j   a   b              i   j   a   b           
    --------------------------------------------------------------------------------
    [  2   2   1   4] 0.075083 [  2   2   2   3] 0.074804 [  0   0   1   1]-0.060628 
    [  2   2   3   3]-0.052065 [  1   2   1   3] 0.050808 [  2   6   1   7]-0.050402 
    [  2   8   1   9]-0.050402 [  1   2   1   4] 0.049767 [  1   6   1   7]-0.048262 
    [  1   8   1   9]-0.048262 [  1   2   2   4] 0.046377 [  2   6   2   7]-0.040435 
    [  2   8   2   9]-0.040435 [  6   6   7   7]-0.036341 [  8   8   9   9]-0.036341 
    --------------------------------------------------------------------------------
    Norm of T2AB vector: (nonzero elements: 405)                  0.349785151670128.
    --------------------------------------------------------------------------------
    Largest T2 amplitudes for spin case BB:
       _   _   _   _              _   _   _   _              _   _   _   _           
       i   j   a   b              i   j   a   b              i   j   a   b           
    --------------------------------------------------------------------------------
    [  1   6   1   7]-0.046381 [  1   8   1   9]-0.046381 [  2   6   1   7]-0.045772 
    [  2   8   1   9]-0.045772 [  2   6   2   7]-0.036567 [  2   8   2   9]-0.036567 
    [  0   1   1   2]-0.034458 [  1   8   2   9]-0.030709 [  1   6   2   7]-0.030709 
    [  1   2   1   3] 0.024429 [  6   8   7   9]-0.024097 [  0   1   1   5]-0.021064 
    [  1   2   1   4] 0.019726 [  2   6   4   7] 0.019689 [  2   8   4   9] 0.019689 
    --------------------------------------------------------------------------------
    Norm of T2BB vector: (nonzero elements: 240)                  0.282508851656411.
    --------------------------------------------------------------------------------

  ==> Possible Intruders <==

    T1 amplitudes larger than 0.1000 for spin case A:
        Amplitude         Value                  Denominator              
    ----------------------------------------------------------------------
    [  2       4    ]    0.10512378 (  0.086063 -   2.310275 =  -2.224213)
    ----------------------------------------------------------------------
    T1 amplitudes larger than 0.1000 for spin case B:
        Amplitude         Value                  Denominator              
    ----------------------------------------------------------------------
    [  2       4    ]    0.10512378 (  0.086063 -   2.310275 =  -2.224213)
    ----------------------------------------------------------------------
    T2 amplitudes larger than 0.1000 for spin case AA: NULL
    T2 amplitudes larger than 0.1000 for spin case AB: NULL
    T2 amplitudes larger than 0.1000 for spin case BB: NULL

  ==> Computing MR-LDSRG(2) Energy <==

    Reference:
      J. Chem. Phys. 2016, 144, 164114.

                  Energy (a.u.)           Non-Diagonal Norm        Amplitude RMS         Timings (s)   
           ---------------------------  ---------------------  ---------------------  -----------------
    Iter.        Corr.         Delta       Hbar1      Hbar2        T1         T2        Hbar     Amp.  
    ---------------------------------------------------------------------------------------------------
        0   -0.093568805843 -9.357e-02   1.372e-01  6.385e-01   3.472e-02  1.634e-01     8.753    0.004
        1   -0.095288141933 -1.719e-03   1.378e-01  2.309e-01   1.525e-02  4.302e-02     8.156    0.004
        2   -0.095739211252 -4.511e-04   1.182e-01  1.648e-01   3.097e-03  1.367e-02     8.181    0.004
        3   -0.095748533209 -9.322e-06   1.207e-01  1.648e-01   1.358e-03  4.505e-03     8.397    0.004
        4   -0.095759254223 -1.072e-05   1.195e-01  1.621e-01   3.555e-04  1.399e-03     8.208    0.004
        5   -0.095754144578  5.110e-06   1.198e-01  1.626e-01   1.392e-04  4.486e-04     8.329    0.004 -> DIIS
        6   -0.095754503698 -3.591e-07   1.197e-01  1.623e-01   3.768e-05  1.378e-04     8.469    0.004 -> DIIS
        7   -0.095753621969  8.817e-07   1.197e-01  1.624e-01   1.128e-06  5.404e-06     8.326    0.004 -> DIIS
        8   -0.095753647584 -2.562e-08   1.197e-01  1.623e-01   3.799e-07  1.480e-06     8.551    0.004 -> DIIS
        9   -0.095753641346  6.238e-09   1.197e-01  1.623e-01   1.123e-07  4.716e-07     8.664    0.004
    ---------------------------------------------------------------------------------------------------

  ==> MR-LDSRG(2) Energy Summary <==

    E0 (reference)                 =     -99.404263212369870
    MR-LDSRG(2) correlation energy =      -0.095753641345621
    MR-LDSRG(2) total energy       =     -99.500016853715493

  ==> Final Excitation Amplitudes Summary <==

    Active Indices:    1    2 
    Largest T1 amplitudes for spin case A:
       i       a                  i       a                  i       a               
    --------------------------------------------------------------------------------
    [  2       4    ] 0.092472 [  2       3    ] 0.087213 [  0       1    ]-0.050361 
    [  1       4    ] 0.015080 [  0       2    ] 0.011045 [  1       3    ]-0.005279 
    [  2       5    ]-0.002967 [  1       5    ]-0.002144 [  8       9    ]-0.001093 
    [  6       7    ]-0.001093 [  0       4    ] 0.000675 [  0       3    ] 0.000556 
    [  0       5    ] 0.000166 
    --------------------------------------------------------------------------------
    Norm of T1A vector: (nonzero elements: 13)                    0.138156971873974.
    --------------------------------------------------------------------------------
    Largest T1 amplitudes for spin case B:
       _       _                  _       _                  _       _               
       i       a                  i       a                  i       a               
    --------------------------------------------------------------------------------
    [  2       4    ] 0.092472 [  2       3    ] 0.087213 [  0       1    ]-0.050361 
    [  1       4    ] 0.015080 [  0       2    ] 0.011045 [  1       3    ]-0.005279 
    [  2       5    ]-0.002967 [  1       5    ]-0.002144 [  6       7    ]-0.001093 
    [  8       9    ]-0.001093 [  0       4    ] 0.000675 [  0       3    ] 0.000556 
    [  0       5    ] 0.000166 
    --------------------------------------------------------------------------------
    Norm of T1B vector: (nonzero elements: 13)                    0.138156971873974.
    --------------------------------------------------------------------------------
    Largest T2 amplitudes for spin case AA:
       i   j   a   b              i   j   a   b              i   j   a   b           
    --------------------------------------------------------------------------------
    [  0   1   1   2]-0.040759 [  1   6   1   7]-0.037430 [  1   8   1   9]-0.037430 
    [  2   8   1   9]-0.029887 [  2   6   1   7]-0.029887 [  1   6   2   7]-0.025577 
    [  1   8   2   9]-0.025577 [  2   8   2   9]-0.024853 [  2   6   2   7]-0.024853 
    [  6   8   7   9]-0.022991 [  1   2   1   3] 0.021128 [  0   2   1   2] 0.016578 
    [  1   2   2   3] 0.016428 [  0   1   1   5]-0.016075 [  1   8   4   9] 0.014196 
    --------------------------------------------------------------------------------
    Norm of T2AA vector: (nonzero elements: 240)                  0.226222692211186.
    --------------------------------------------------------------------------------
    Largest T2 amplitudes for spin case AB:
           _       _                  _       _                  _       _           
       i   j   a   b              i   j   a   b              i   j   a   b           
    --------------------------------------------------------------------------------
    [  0   0   1   1]-0.067114 [  2   2   2   3] 0.058398 [  1   2   1   3] 0.047567 
    [  6   6   7   7]-0.041623 [  8   8   9   9]-0.041623 [  1   6   1   7]-0.040876 
    [  1   8   1   9]-0.040876 [  0   0   1   2]-0.040432 [  2   2   3   3]-0.036958 
    [  2   8   1   9]-0.035259 [  2   6   1   7]-0.035259 [  2   2   1   4] 0.035014 
    [  2   8   2   9]-0.030702 [  2   6   2   7]-0.030702 [  1   2   2   4] 0.030588 
    --------------------------------------------------------------------------------
    Norm of T2AB vector: (nonzero elements: 405)                  0.297586139691020.
    --------------------------------------------------------------------------------
    Largest T2 amplitudes for spin case BB:
       _   _   _   _              _   _   _   _              _   _   _   _           
       i   j   a   b              i   j   a   b              i   j   a   b           
    --------------------------------------------------------------------------------
    [  0   1   1   2]-0.040759 [  1   6   1   7]-0.037430 [  1   8   1   9]-0.037430 
    [  2   8   1   9]-0.029887 [  2   6   1   7]-0.029887 [  1   8   2   9]-0.025577 
    [  1   6   2   7]-0.025577 [  2   6   2   7]-0.024853 [  2   8   2   9]-0.024853 
    [  6   8   7   9]-0.022991 [  1   2   1   3] 0.021128 [  0   2   1   2] 0.016578 
    [  1   2   2   3] 0.016428 [  0   1   1   5]-0.016075 [  1   8   4   9] 0.014196 
    --------------------------------------------------------------------------------
    Norm of T2BB vector: (nonzero elements: 240)                  0.226222692211186.
    --------------------------------------------------------------------------------

  ==> Possible Intruders <==

    T1 amplitudes larger than 0.1000 for spin case A: NULL
    T1 amplitudes larger than 0.1000 for spin case B: NULL
    T2 amplitudes larger than 0.1000 for spin case AA: NULL
    T2 amplitudes larger than 0.1000 for spin case AB: NULL
    T2 amplitudes larger than 0.1000 for spin case BB: NULL

  ==> De-Normal-Order DSRG Transformed Hamiltonian <==

    Computing the scalar term                ... Done. Timing    0.002 s
    Computing the 1-body term                ... Done. Timing    0.001 s

  ==> Rotate DSRG Transformed Hamiltonian back to Original Basis <==

    Rotating 1-body term to original basis   ... Done. Timing    0.000 s
    Rotating 2-body term to original basis   ... Done. Timing    0.002 s

                -----------------------------------------------
                  String-based Full Configuration Interaction
                          by Francesco A. Evangelista
                -----------------------------------------------

  Number of electrons: 10
  Charge: 0
  Multiplicity: 1
  Davidson subspace max dim: 8
  Davidson subspace min dim: 2
  M_s: 0

  ==> String Lists <==

  Number of alpha electrons     = 1
  Number of beta electrons      = 1
  Number of alpha strings       = 2
  Number of beta strings        = 2
  Timing for strings        =      0.000 s
  Timing for NN strings     =      0.000 s
  Timing for VO strings     =      0.000 s
  Timing for OO strings     =      0.000 s
  Timing for VVOO strings   =      0.000 s
  Timing for VOVO strings   =      0.000 s
  Timing for 1-hole strings =      0.000 s
  Timing for 2-hole strings =      0.000 s
  Timing for 3-hole strings =      0.000 s
  Total timing              =      0.000 s

  ==> FCI Solver <==

    Number of determinants                           4
    Symmetry                                         0
    Multiplicity                                     1
    Number of roots                                  1
    Target root                                      0
    Trial vectors per root                          10

  Allocating memory for the Hamiltonian algorithm. Size: 2 x 2 x 2.   Memory: 0.000000 GB

  ==> FCI Initial Guess <==

  ---------------------------------------------
    Root            Energy     <S^2>   Spin
  ---------------------------------------------
      0      -99.500017722107  0.000  singlet
      1      -99.368142665093  2.000  triplet
      2      -99.094681801713  0.000  singlet
      3      -98.768114698159  0.000  singlet
  ---------------------------------------------
  Timing for initial guess  =      0.000 s

  Projecting out root 1
  ==> Diagonalizing Hamiltonian <==

  ----------------------------------------
    Iter.      Avg. Energy       Delta_E
  ----------------------------------------
      1      -99.500017722107  -9.950e+01
      2      -99.500017722107  +0.000e+00
  ----------------------------------------
  The Davidson-Liu algorithm converged in 3 iterations.

  ==> Root No. 0 <==

    20      0.96076752
    02     -0.26693810

    Total Energy:       -99.500017722106762

  ==> Computing RDMs for Root No. 0 <==

    Timing for 1-RDM: 0.000 s
    Timing for 2-RDM: 0.000 s
    Timing for 3-RDM: 0.000 s

  ==> NATURAL ORBITALS <==

        1A1     1.855017      2A1     0.144983  

  The following reference rotation will make the new reference and integrals in the same basis.

  ==> Reference Transformation to Semicanonical Basis <==

    Transformed 1 cumulants.
    Transformed 2 cumulants and RDMs.
    Transformed 3 cumulants.

  ==> Semicanonicalize Orbitals <==

  Took 0.000583 s to build Fock matrix

  ==> Checking Fock Matrix Diagonal Blocks <==

    Off-Diag. Elements       Max           2-Norm
    ------------------------------------------------
    Fa actv              0.0000878393   0.0001242236
    Fb actv              0.0000878393   0.0001242236
    ------------------------------------------------
    Fa core              0.0000000000   0.0000000000
    Fb core              0.0000000000   0.0000000000
    ------------------------------------------------
    Fa virt              0.0000440526   0.0001025023
    Fb virt              0.0000440526   0.0001025023
    ------------------------------------------------

  ==> Integral Transformation to Semicanonical Basis <==
    Molecular point group: c2v
    Full point group: C_inf_v

    Geometry (in Angstrom), charge = 0, multiplicity = 1:

       Center              X                  Y                   Z               Mass       
    ------------   -----------------  -----------------  -----------------  -----------------
         F            0.000000000000     0.000000000000    -0.075563346012    18.998403224000
         H            0.000000000000     0.000000000000     1.424436653988     1.007825032070

  -AO BASIS SET INFORMATION:
    Name                   = 3-21G
    Blend                  = 3-21G
    Total number of shells = 7
    Number of primitives   = 12
    Number of AO           = 11
    Number of SO           = 11
    Maximum AM             = 1
    Spherical Harmonics    = FALSE

  -Contraction Scheme:
    Atom   Type   All Primitives // Shells:
   ------ ------ --------------------------
       1     F     6s 3p // 3s 2p 
       2     H     3s // 2s 

  ==> AO Basis Functions <==

    [ 3-21G ]
    cartesian
    ****
    F   1
    S   3 1.00
                       413.80100000           0.05854830
                        62.24460000           0.34930800
                        13.43400000           0.70963200
    S   2 1.00
                         9.77759000          -0.40732700
                         2.08617000           1.22314000
    P   2 1.00
                         9.77759000           0.24668000
                         2.08617000           0.85232100
    S   1 1.00
                         0.48238300           1.00000000
    P   1 1.00
                         0.48238300           1.00000000
    ****
    H   2
    S   2 1.00
                         5.44717800           0.15628500
                         0.82454700           0.90469100
    S   1 1.00
                         0.18319200           1.00000000
    ****


 Integrals are about to be computed.
 Computing the Cholesky Vectors 

    Computing CD Integrals               ......Done. Timing        0.016299 s
 Need 0.000039 GB to store cd integrals in core

 Number of cholesky vectors 43 to satisfy       0.000100000000 tolerance

 Integrals are about to be updated.
  Frozen-core energy            -75.818535537075 a.u.

  FrozenOneBody Operator takes  0.04710200 s
  Resorting integrals after freezing core.
  Frozen Orbitals takes     0.047 s.

  ==> Reference Transformation to Semicanonical Basis <==

    Transformed 1 cumulants.
    Transformed 2 cumulants and RDMs.
    Transformed 3 cumulants.
  SemiCanonicalize takes 0.280016 s.

  ==> Density Cumulant Summary <==

    2-body             AA           AB           BB
    -----------------------------------------------
    max          0.067237     0.258252     0.067237
    norm         0.134473     0.390585     0.134473
    -----------------------------------------------
    3-body            AAA          AAB          ABB          BBB
    ------------------------------------------------------------
    max          0.000000     0.057335     0.057335     0.000000
    norm         0.000000     0.162602     0.162602     0.000000
    ------------------------------------------------------------

  ==> MRDSRG Reference Relaxation Summary <==

                  Fixed Ref. (a.u.)               Relaxed Ref. (a.u.)      
           -------------------------------  -------------------------------
    Iter.      Total Energy        Delta        Total Energy        Delta  
    -----------------------------------------------------------------------
        0      -99.498879913357 -9.950e+01      -99.500286824390 -9.950e+01
        1      -99.500016853715 -1.137e-03      -99.500017722107  2.691e-04
    -----------------------------------------------------------------------
    MRDSRG Total Energy            =     -99.500016853715493
    MRDSRG Total Energy (relaxed)  =     -99.500017722106762


  ==> Total Timings (s) for Computing Commutators <==

             [H1, T1]    [H1, T2]    [H2, T1]    [H2, T2]
    -----------------------------------------------------
    -> C0       0.132       0.255       0.498       7.856
    -> C1       0.303       1.818       3.042      42.931
    -> C2                   7.017      17.293     100.525
    -----------------------------------------------------
	MRDSRG unrelaxed energy...........................................PASSED
	MRDSRG partially relaxed energy...................................PASSED
	MRDSRG relaxed energy.............................................PASSED

    Psi4 stopped on: Thursday, 05 July 2018 09:46PM
    Psi4 wall time for execution: 0:03:06.45

*** Psi4 exiting successfully. Buy a developer a beer!
