    -----------------------------------------------------------------------
          Psi4: An Open-Source Ab Initio Electronic Structure Package
                              Psi4 0.3.869 Driver

                          Git: Rev {master} ace9693 

    J. M. Turney, A. C. Simmonett, R. M. Parrish, E. G. Hohenstein,
    F. A. Evangelista, J. T. Fermann, B. J. Mintz, L. A. Burns, J. J. Wilke,
    M. L. Abrams, N. J. Russ, M. L. Leininger, C. L. Janssen, E. T. Seidl,
    W. D. Allen, H. F. Schaefer, R. A. King, E. F. Valeev, C. D. Sherrill,
    and T. D. Crawford, WIREs Comput. Mol. Sci. 2, 556-565 (2012)
    (doi: 10.1002/wcms.93)

                         Additional Contributions by
    A. E. DePrince, M. Saitow, U. Bozkaya, A. Yu. Sokolov
    -----------------------------------------------------------------------


    Psi4 started on: Tue May 10 15:46:49 2016

    Process ID:  53168
    PSI4DATADIR: /Users/ChenyangLi/src/psi4public/share
    Memory level set to 256.000 MB

  ==> Input File <==

--------------------------------------------------------------------------
#! Generated using commit GITCOMMIT

import v2rdm_casscf
import forte

#! cc-pvdz N2 (6,6) active space Test DQG
refscf     = -108.953796240158  # RHF
refv2rdm_4 = -109.094685844148  # V2RDM-CASSCF r_convergence 4
refpt2_4   = -109.245629804471  # DSRG-MRPT2
refv2rdm   = -109.094651151711  # V2RDM-CASSCF r_convergence 5
refpt2     = -109.245618929207  # DSRG-MRPT2 

molecule N2 {
  0 1
  N
  N 1 r

  r = 1.1
}

set {
  basis            cc-pvdz
  scf_type         out_of_core
  d_convergence    1e-10
  maxiter          500
  restricted_docc  [ 2, 0, 0, 0, 0, 2, 0, 0 ]
  restricted_uocc  [ 4, 1, 2, 2, 1, 4, 2, 2 ]
}

set v2rdm_casscf {
  positivity                dqg
  r_convergence             1e-5
  e_convergence             1e-5
  maxiter                   100000
  semicanonicalize_orbitals false
  tpdm_write                true
}

set forte{
  job_type               dsrg-mrpt2
  cas_type               v2rdm
  frozen_docc            [1,0,0,0,0,1,0,0]
  restricted_docc        [1,0,0,0,0,1,0,0]
  active                 [1,0,1,1,0,1,1,1]
  root_sym               0
  nroot                  1
  dsrg_s                 1.0
# avg_dens_spin          true
  threepdc               zero
}

activate(N2)
Ev2rdm, wfn = energy('v2rdm-casscf', return_wfn=True)
compare_values(refscf, get_variable("SCF TOTAL ENERGY"), 8, "SCF total energy")
compare_values(refv2rdm, get_variable("CURRENT ENERGY"), 4, "v2RDM-CASSCF total energy")

energy('forte',ref_wfn=wfn)
compare_values(refpt2, get_variable("CURRENT ENERGY"), 4, "DSRG-MRPT2 total energy")
--------------------------------------------------------------------------
/Users/ChenyangLi/src/v2rdm_casscf/v2rdm_casscf.so loaded.
/Users/ChenyangLi/src/forte/forte.so loaded.

*** tstart() called on dhcp189-136.emerson.emory.edu
*** at Tue May 10 15:46:50 2016


         ---------------------------------------------------------
                                   SCF
            by Justin Turney, Rob Parrish, and Andy Simmonett
                              RHF Reference
                        1 Threads,    256 MiB Core
         ---------------------------------------------------------

  ==> Geometry <==

    Molecular point group: d2h
    Full point group: D_inf_h

    Geometry (in Angstrom), charge = 0, multiplicity = 1:

       Center              X                  Y                   Z               Mass       
    ------------   -----------------  -----------------  -----------------  -----------------
           N          0.000000000000     0.000000000000    -0.550000000000    14.003074004780
           N          0.000000000000     0.000000000000     0.550000000000    14.003074004780

  Running in d2h symmetry.

  Rotational constants: A = ************  B =      1.98984  C =      1.98984 [cm^-1]
  Rotational constants: A = ************  B =  59653.84444  C =  59653.84444 [MHz]
  Nuclear repulsion =   23.572439291736362

  Charge       = 0
  Multiplicity = 1
  Electrons    = 14
  Nalpha       = 7
  Nbeta        = 7

  ==> Algorithm <==

  SCF Algorithm Type is OUT_OF_CORE.
  DIIS enabled.
  MOM disabled.
  Fractional occupation disabled.
  Guess Type is CORE.
  Energy threshold   = 1.00e-08
  Density threshold  = 1.00e-10
  Integral threshold = 0.00e+00

  ==> Primary Basis <==

  Basis Set: CC-PVDZ
    Number of shells: 12
    Number of basis function: 28
    Number of Cartesian functions: 30
    Spherical Harmonics?: true
    Max angular momentum: 2

  ==> Pre-Iterations <==

   -------------------------------------------------------
    Irrep   Nso     Nmo     Nalpha   Nbeta   Ndocc  Nsocc
   -------------------------------------------------------
     Ag         7       7       0       0       0       0
     B1g        1       1       0       0       0       0
     B2g        3       3       0       0       0       0
     B3g        3       3       0       0       0       0
     Au         1       1       0       0       0       0
     B1u        7       7       0       0       0       0
     B2u        3       3       0       0       0       0
     B3u        3       3       0       0       0       0
   -------------------------------------------------------
    Total      28      28       7       7       7       0
   -------------------------------------------------------

  ==> Integral Setup <==

  ==> DiskJK: Disk-Based J/K Matrices <==

    J tasked:                  Yes
    K tasked:                  Yes
    wK tasked:                  No
    Memory (MB):               183
    Schwarz Cutoff:          1E-12

  Minimum eigenvalue in the overlap matrix is 6.1906036234E-03.
  Using Symmetric Orthogonalization.
  SCF Guess: Core (One-Electron) Hamiltonian.

  ==> Iterations <==

                        Total Energy        Delta E     RMS |[F,P]|

    Occupation by irrep:
             Ag   B1g   B2g   B3g    Au   B1u   B2u   B3u 
    DOCC [     3,    0,    0,    0,    0,    2,    1,    1 ]

   @RHF iter   1:   -99.92451059046812   -9.99245e+01   2.54409e-01 
   @RHF iter   2:  -106.57820116901654   -6.65369e+00   1.86593e-01 DIIS
   @RHF iter   3:  -108.86479913107645   -2.28660e+00   3.60266e-02 DIIS
   @RHF iter   4:  -108.95061571228540   -8.58166e-02   5.37124e-03 DIIS
   @RHF iter   5:  -108.95370946577715   -3.09375e-03   9.43948e-04 DIIS
   @RHF iter   6:  -108.95379548518746   -8.60194e-05   8.59846e-05 DIIS
   @RHF iter   7:  -108.95379622788026   -7.42693e-07   1.25229e-05 DIIS
   @RHF iter   8:  -108.95379623997199   -1.20917e-08   1.54430e-06 DIIS
   @RHF iter   9:  -108.95379624015673   -1.84741e-10   1.00777e-07 DIIS
   @RHF iter  10:  -108.95379624015762   -8.81073e-13   8.46540e-09 DIIS
   @RHF iter  11:  -108.95379624015767   -5.68434e-14   7.64925e-10 DIIS
   @RHF iter  12:  -108.95379624015753    1.42109e-13   6.51584e-11 DIIS

  DF guess converged.

  ==> Integral Setup <==

  ==> DiskJK: Disk-Based J/K Matrices <==

    J tasked:                  Yes
    K tasked:                  Yes
    wK tasked:                  No
    Memory (MB):               183
    Schwarz Cutoff:          1E-12

   @RHF iter  13:  -108.95379624015764   -1.13687e-13   9.05203e-12 DIIS

  ==> Post-Iterations <==

    Orbital Energies (a.u.)
    -----------------------

    Doubly Occupied:                                                      

       1Ag   -15.687167     1B1u  -15.683810     2Ag    -1.469497  
       2B1u   -0.774851     3Ag    -0.626026     1B2u   -0.607175  
       1B3u   -0.607175  

    Virtual:                                                              

       1B3g    0.174428     1B2g    0.174428     3B1u    0.593893  
       4Ag     0.820946     2B2u    0.872872     2B3u    0.872872  
       5Ag     0.991969     2B3g    1.050510     2B2g    1.050510  
       4B1u    1.140849     5B1u    1.640840     1B1g    1.758149  
       6Ag     1.758149     3B3u    1.879691     3B2u    1.879691  
       1Au     2.297394     6B1u    2.297394     7Ag     2.871857  
       3B2g    2.993863     3B3g    2.993863     7B1u    3.278667  

    Final Occupation by Irrep:
             Ag   B1g   B2g   B3g    Au   B1u   B2u   B3u 
    DOCC [     3,    0,    0,    0,    0,    2,    1,    1 ]

  Energy converged.

  @RHF Final Energy:  -108.95379624015764

   => Energetics <=

    Nuclear Repulsion Energy =             23.5724392917363623
    One-Electron Energy =                -194.1410686716369298
    Two-Electron Energy =                  61.6148331397429345
    DFT Exchange-Correlation Energy =       0.0000000000000000
    Empirical Dispersion Energy =           0.0000000000000000
    PCM Polarization Energy =               0.0000000000000000
    EFP Energy =                            0.0000000000000000
    Total Energy =                       -108.9537962401576294

    Alert: EFP and PCM quantities not currently incorporated into SCF psivars.

Properties will be evaluated at   0.000000,   0.000000,   0.000000 Bohr
  ==> Properties <==


Properties computed using the SCF density matrix

  Nuclear Dipole Moment: (a.u.)
     X:     0.0000      Y:     0.0000      Z:     0.0000

  Electronic Dipole Moment: (a.u.)
     X:     0.0000      Y:     0.0000      Z:     0.0000

  Dipole Moment: (a.u.)
     X:     0.0000      Y:     0.0000      Z:     0.0000     Total:     0.0000

  Dipole Moment: (Debye)
     X:     0.0000      Y:     0.0000      Z:     0.0000     Total:     0.0000


  Saving occupied orbitals to File 180.

*** tstop() called on dhcp189-136.emerson.emory.edu at Tue May 10 15:46:50 2016
Module time:
	user time   =       0.12 seconds =       0.00 minutes
	system time =       0.02 seconds =       0.00 minutes
	total time  =          0 seconds =       0.00 minutes
Total time:
	user time   =       0.12 seconds =       0.00 minutes
	system time =       0.02 seconds =       0.00 minutes
	total time  =          0 seconds =       0.00 minutes

Reading options from the V2RDM_CASSCF block
Calling plugin /Users/ChenyangLi/src/v2rdm_casscf/v2rdm_casscf.so.



*** tstart() called on dhcp189-136.emerson.emory.edu
*** at Tue May 10 15:46:50 2016



        ****************************************************
        *                                                  *
        *    v2RDM-CASSCF                                  *
        *                                                  *
        *    A variational 2-RDM-driven approach to the    *
        *    active space self-consistent field method     *
        *                                                  *
        ****************************************************


        The following papers should be cited when using v2RDM-CASSCF:

        J. Fosso-Tande, D. R. Nascimento, and A. E. DePrince III,
        Mol. Phys. 114, 423-430 (2015).

            URL: http://dx.doi.org/10.1080/00268976.2015.1078008

        J. Fosso-Tande, T.-S. Nguyen, G. Gidofalvi, and
        A. E. DePrince III, J. Chem. Theory Comput. accepted (2016).

            URL: http://dx.doi.org/10.1021/acs.jctc.6b00190



  ==> Convergence parameters <==

        r_convergence:                      1.000e-05
        e_convergence:                      1.000e-05
        cg_convergence:                     1.000e-05
        maxiter:                               100000
        cg_maxiter:                             10000

  ==> Active space details <==

        Number of frozen core orbitals:             0
        Number of restricted occupied orbitals:     4
        Number of active occupied orbitals:         3
        Number of active virtual orbitals:          3
        Number of restricted virtual orbitals:     18
        Number of frozen virtual orbitals:          0

        Irrep:             Ag, B1g, B2g, B3g,  Au, B1u, B2u, B3u 
 
        frozen_docc     [   0,   0,   0,   0,   0,   0,   0,   0 ]
        restricted_docc [   2,   0,   0,   0,   0,   2,   0,   0 ]
        active          [   1,   0,   1,   1,   0,   1,   1,   1 ]
        restricted_uocc [   4,   1,   2,   2,   1,   4,   2,   2 ]
        frozen_uocc     [   0,   0,   0,   0,   0,   0,   0,   0 ]

  ==> Orbital optimization parameters <==

        1-step algorithm:                       1
        g_convergence:                  1.000e-04
        e_convergence:                  1.000e-08
        maximum iterations:                    20
        frequency:                            500
        active-active rotations:                0
        exact diagonal Hessian:                 0
        number of DIIS vectors:                 0
        print iteration info:                   0

  ==> Memory requirements <==

        D2:                          0.00 mb
        Q2:                          0.00 mb
        G2:                          0.01 mb

        Total number of variables:           1668
        Total number of constraints:         1555
        Total memory requirements:        4.88 mb

    ==> Transform two-electron integrals <==

	Presorting SO-basis two-electron integrals.
	Sorting File: SO Ints (nn|nn) nbuckets = 1
	Transforming the one-electron integrals and constructing Fock matrices
	Starting first half-transformation.
	Sorting half-transformed integrals.
	First half integral transformation complete.
	Starting second half-transformation.
	Two-electron integral transformation complete.

        Time for integral transformation:     0.01 s


        Read integrals......done.


    reference energy:        -108.953796240158
    frozen core energy:      -121.129833723342
    initial 2-RDM energy:    -100.714436764794

      oiter iiter        E(p)        E(d)      E gap)      mu     eps(p)     eps(d)
          0    83 -105.406812  103.821833  209.228644   1.000   61.80437   58.54265
          1    45  -98.293698 -346.084930  247.791232   1.000   10.11133   32.47411
          2    52 -116.890589 -162.395104   45.504514   1.000   13.93682    7.29145
          3    43 -107.405965 -137.515183   30.109218   1.000    7.65587    3.52835
          4    42 -110.417335 -120.962908   10.545573   1.000    6.52837    3.09216
          5    42 -107.019624 -111.626348    4.606724   1.000    3.38518    2.60000
          6    40 -108.211321 -105.925924    2.285397   1.000    2.56601    2.28796
          7    38 -107.081093 -104.659837    2.421257   1.000    1.27026    2.44692
          8    42 -107.897623 -107.515789    0.381834   1.000    0.72166    1.49179
          9    42 -107.602564 -106.860834    0.741730   1.000    0.44317    0.88441
         10    38 -107.925642 -107.491105    0.434537   1.000    0.28122    0.57518
         11    38 -107.835115 -107.214017    0.621098   1.000    0.19129    0.41563
         12    38 -107.941071 -107.496990    0.444080   1.000    0.22997    0.32716
         13    42 -107.925834 -107.535492    0.390341   1.000    0.24362    0.26471
         14    35 -107.996312 -107.740173    0.256139   1.000    0.16019    0.24412
         15    37 -108.026206 -107.688464    0.337742   1.000    0.09342    0.23653
         16    38 -108.082008 -107.652027    0.429981   1.000    0.10285    0.22781
         17    37 -108.123555 -107.582845    0.540710   1.000    0.15238    0.21878
         18    35 -108.174223 -107.601169    0.573054   1.000    0.18578    0.20639
         19    32 -108.214576 -107.690085    0.524490   1.000    0.17427    0.19555
         20    32 -108.259051 -107.812820    0.446232   1.000    0.11660    0.19655
         21    33 -108.298475 -107.848991    0.449484   1.000    0.07608    0.19749
         22    41 -108.334799 -107.856819    0.477980   1.000    0.09847    0.19298
         23    38 -108.365277 -107.824258    0.541019   1.000    0.13097    0.18765
         24    34 -108.388360 -107.814036    0.574324   1.000    0.13916    0.18224
         25    33 -108.414108 -107.831995    0.582113   1.000    0.13474    0.17743
         26    33 -108.443518 -107.868612    0.574906   1.000    0.11144    0.17613
         27    33 -108.469088 -107.900431    0.568657   1.000    0.08148    0.17439
         28    32 -108.490853 -107.944996    0.545856   1.000    0.07188    0.16687
         29    38 -108.511465 -108.018403    0.493062   1.000    0.07380    0.15570
         30    38 -108.532149 -108.105326    0.426823   1.000    0.06736    0.14766
         31    40 -108.551459 -108.170796    0.380663   1.000    0.05375    0.14370
         32    41 -108.567015 -108.190760    0.376255   1.000    0.05528    0.13731
         33    42 -108.578450 -108.193783    0.384668   1.000    0.06205    0.12854
         34    39 -108.589190 -108.214849    0.374340   1.000    0.06185    0.12164
         35    39 -108.598544 -108.252648    0.345895   1.000    0.05254    0.11810
         36    39 -108.606734 -108.295369    0.311364   1.000    0.03735    0.11634
         37    42 -108.616211 -108.326054    0.290157   1.000    0.03088    0.11503
         38    38 -108.627410 -108.346798    0.280612   1.000    0.02875    0.11289
         39    38 -108.637955 -108.347202    0.290753   1.000    0.03030    0.10995
         40    42 -108.647823 -108.328863    0.318960   1.000    0.03245    0.10667
         41    42 -108.656983 -108.306166    0.350816   1.000    0.03355    0.10364
         42    42 -108.665223 -108.293059    0.372164   1.000    0.03445    0.10109
         43    41 -108.673142 -108.295969    0.377173   1.000    0.03568    0.09916
         44    41 -108.679661 -108.316196    0.363465   1.000    0.03635    0.09777
         45    41 -108.686171 -108.345943    0.340228   1.000    0.03453    0.09700
         46    41 -108.692434 -108.371844    0.320590   1.000    0.03325    0.09660
         47    38 -108.701484 -108.386957    0.314527   1.000    0.03121    0.09588
         48    39 -108.712879 -108.388531    0.324348   1.000    0.02902    0.09449
         49    39 -108.724497 -108.385541    0.338956   1.000    0.02783    0.09254
         50    39 -108.733233 -108.381125    0.352107   1.000    0.02841    0.09116
         51    39 -108.739594 -108.384398    0.355196   1.000    0.02564    0.09217
         52    42 -108.748748 -108.415898    0.332851   1.000    0.02469    0.09016
         53    38 -108.756681 -108.414861    0.341820   1.000    0.02657    0.08920
         54    38 -108.764757 -108.410907    0.353851   1.000    0.02867    0.08810
         55    34 -108.770928 -108.397961    0.372967   1.000    0.02406    0.08755
         56    38 -108.776880 -108.394025    0.382855   1.000    0.01913    0.08728
         57    39 -108.783096 -108.396851    0.386245   1.000    0.01629    0.08703
         58    40 -108.791755 -108.404035    0.387720   1.000    0.01610    0.08670
         59    42 -108.799210 -108.409783    0.389428   1.000    0.01557    0.08643
         60    42 -108.806401 -108.416220    0.390181   1.000    0.01452    0.08629
         61    42 -108.813615 -108.421071    0.392543   1.000    0.01327    0.08626
         62    41 -108.821227 -108.423924    0.397303   1.000    0.01225    0.08624
         63    39 -108.828417 -108.423051    0.405366   1.000    0.01141    0.08617
         64    37 -108.835524 -108.421542    0.413982   1.000    0.01079    0.08605
         65    38 -108.842334 -108.419508    0.422826   1.000    0.00991    0.08592
         66    36 -108.849027 -108.417986    0.431041   1.000    0.00908    0.08580
         67    41 -108.855614 -108.417124    0.438490   1.000    0.00886    0.08565
         68    39 -108.862303 -108.416482    0.445821   1.000    0.00933    0.08545
         69    39 -108.869031 -108.416272    0.452758   1.000    0.01023    0.08521
         70    39 -108.876014 -108.415975    0.460039   1.000    0.01116    0.08493
         71    39 -108.882644 -108.416825    0.465819   1.000    0.01198    0.08461
         72    41 -108.889880 -108.419097    0.470783   1.000    0.01247    0.08429
         73    42 -108.897341 -108.423363    0.473978   1.000    0.01331    0.08392
         74    42 -108.904800 -108.426015    0.478785   1.000    0.01442    0.08353
         75    40 -108.910957 -108.435840    0.475117   1.000    0.01407    0.08303
         76    42 -108.918164 -108.446943    0.471221   1.000    0.01562    0.08250
         77    42 -108.926122 -108.455035    0.471087   1.000    0.01825    0.08179
         78    39 -108.933512 -108.466090    0.467421   1.000    0.02231    0.08052
         79    38 -108.937475 -108.482009    0.455466   1.000    0.01979    0.07943
         80    42 -108.943594 -108.502184    0.441410   1.000    0.02145    0.07780
         81    38 -108.948641 -108.525642    0.422999   1.000    0.02300    0.07579
         82    38 -108.953863 -108.547751    0.406112   1.000    0.02492    0.07355
         83    37 -108.955913 -108.578901    0.377012   1.000    0.03364    0.06893
         84    37 -108.958461 -108.638507    0.319954   1.000    0.03589    0.06436
         85    38 -108.959434 -108.685388    0.274046   1.000    0.03797    0.06254
         86    33 -108.960669 -108.725481    0.235188   1.000    0.03855    0.06098
         87    38 -108.962985 -108.763618    0.199366   1.000    0.03297    0.05964
         88    38 -108.966883 -108.774216    0.192667   1.000    0.02666    0.05848
         89    38 -108.970868 -108.764988    0.205880   1.000    0.02219    0.05785
         90    42 -108.974698 -108.750028    0.224670   1.000    0.01880    0.05712
         91    42 -108.978004 -108.745944    0.232059   1.000    0.01622    0.05575
         92    42 -108.980816 -108.745991    0.234826   1.000    0.01565    0.05402
         93    42 -108.982939 -108.755070    0.227869   1.000    0.01516    0.05229
         94    38 -108.984057 -108.750865    0.233192   1.000    0.01429    0.05134
         95    42 -108.985883 -108.760498    0.225384   1.000    0.01330    0.05032
         96    38 -108.987727 -108.760371    0.227356   1.000    0.01178    0.04968
         97    42 -108.990022 -108.766218    0.223803   1.000    0.01007    0.04905
         98    42 -108.993046 -108.766616    0.226430   1.000    0.00845    0.04836
         99    42 -108.995728 -108.767509    0.228219   1.000    0.00763    0.04766
        100    41 -108.998376 -108.769017    0.229359   1.000    0.00685    0.04708
        101    42 -109.001203 -108.776379    0.224824   1.000    0.00680    0.04639
        102    42 -109.003587 -108.778346    0.225241   1.000    0.00744    0.04576
        103    38 -109.005981 -108.783252    0.222729   1.000    0.00799    0.04517
        104    37 -109.008127 -108.785963    0.222163   1.000    0.00795    0.04463
        105    39 -109.010107 -108.790040    0.220067   1.000    0.00793    0.04408
        106    41 -109.012017 -108.796731    0.215287   1.000    0.00841    0.04337
        107    41 -109.013656 -108.805380    0.208276   1.000    0.00921    0.04255
        108    41 -109.015426 -108.815295    0.200131   1.000    0.01028    0.04160
        109    38 -109.017126 -108.825554    0.191573   1.000    0.01137    0.04056
        110    38 -109.018698 -108.835317    0.183381   1.000    0.01202    0.03953
        111    33 -109.020260 -108.845609    0.174652   1.000    0.01253    0.03851
        112    33 -109.021755 -108.854923    0.166832   1.000    0.01296    0.03748
        113    33 -109.023278 -108.863420    0.159858   1.000    0.01358    0.03633
        114    33 -109.024684 -108.870472    0.154212   1.000    0.01435    0.03508
        115    34 -109.025941 -108.877569    0.148372   1.000    0.01522    0.03374
        116    35 -109.027130 -108.884752    0.142378   1.000    0.01617    0.03232
        117    37 -109.028001 -108.892855    0.135146   1.000    0.01706    0.03085
        118    37 -109.028545 -108.900663    0.127882   1.000    0.01804    0.02935
        119    35 -109.029512 -108.908038    0.121474   1.000    0.01886    0.02779
        120    35 -109.030005 -108.913228    0.116777   1.000    0.01963    0.02623
        121    33 -109.030710 -108.917780    0.112930   1.000    0.02016    0.02470
        122    34 -109.031285 -108.922046    0.109239   1.000    0.02042    0.02324
        123    34 -109.031864 -108.926498    0.105366   1.000    0.02043    0.02194
        124    34 -109.032335 -108.930840    0.101494   1.000    0.02035    0.02082
        125    35 -109.032740 -108.935391    0.097349   1.000    0.02017    0.01986
        126    35 -109.033024 -108.940059    0.092965   1.000    0.01998    0.01904
        127    35 -109.033270 -108.944744    0.088525   1.000    0.01956    0.01833
        128    33 -109.033131 -108.949444    0.083687   1.000    0.01897    0.01772
        129    33 -109.032867 -108.954595    0.078272   1.000    0.01814    0.01717
        130    35 -109.032335 -108.960129    0.072206   1.000    0.01700    0.01664
        131    34 -109.031679 -108.966185    0.065494   1.000    0.01564    0.01608
        132    32 -109.030939 -108.973456    0.057483   1.000    0.01418    0.01546
        133    32 -109.030018 -108.980186    0.049832   1.000    0.01250    0.01478
        134    31 -109.028638 -108.986700    0.041938   1.000    0.01061    0.01421
        135    32 -109.028212 -108.994922    0.033289   1.000    0.00969    0.01333
        136    32 -109.027611 -108.998905    0.028706   1.000    0.00850    0.01249
        137    32 -109.027421 -109.002228    0.025194   1.000    0.00754    0.01165
        138    32 -109.027165 -109.003140    0.024025   1.000    0.00664    0.01083
        139    34 -109.027076 -109.004272    0.022804   1.000    0.00595    0.01008
        140    37 -109.027016 -109.004419    0.022597   1.000    0.00541    0.00941
        141    35 -109.026798 -109.004779    0.022019   1.000    0.00502    0.00879
        142    33 -109.026650 -109.005671    0.020979   1.000    0.00476    0.00815
        143    35 -109.026438 -109.006430    0.020007   1.000    0.00456    0.00753
        144    32 -109.026300 -109.007091    0.019208   1.000    0.00444    0.00694
        145    33 -109.026165 -109.007545    0.018619   1.000    0.00435    0.00641
        146    34 -109.026071 -109.007753    0.018318   1.000    0.00428    0.00595
        147    37 -109.026013 -109.007684    0.018329   1.000    0.00422    0.00553
        148    38 -109.025968 -109.007647    0.018321   1.000    0.00419    0.00514
        149    37 -109.025941 -109.007667    0.018274   1.000    0.00415    0.00479
        150    39 -109.025852 -109.008024    0.017827   1.000    0.00403    0.00447
        151    38 -109.025584 -109.008384    0.017201   1.000    0.00405    0.00422
        152    39 -109.025768 -109.009162    0.016606   1.000    0.00393    0.00398
        153    38 -109.025702 -109.008788    0.016914   1.000    0.00395    0.00378
        154    39 -109.025824 -109.009171    0.016653   1.000    0.00387    0.00362
        155    38 -109.025905 -109.009439    0.016466   1.000    0.00384    0.00349
        156    38 -109.026057 -109.009595    0.016462   1.000    0.00381    0.00339
        157    39 -109.026185 -109.009521    0.016665   1.000    0.00383    0.00330
        158    39 -109.026320 -109.009416    0.016905   1.000    0.00387    0.00320
        159    39 -109.026421 -109.009332    0.017089   1.000    0.00391    0.00310
        160    39 -109.026510 -109.009497    0.017013   1.000    0.00396    0.00302
        161    39 -109.026434 -109.010276    0.016158   1.000    0.00375    0.00297
        162    39 -109.026287 -109.011708    0.014579   1.000    0.00347    0.00318
        163    38 -109.026385 -109.015044    0.011341   1.000    0.00329    0.00307
        164    38 -109.026283 -109.016379    0.009904   1.000    0.00333    0.00288
        165    38 -109.026289 -109.018826    0.007463   1.000    0.00333    0.00260
        166    38 -109.026251 -109.020081    0.006170   1.000    0.00329    0.00232
        167    38 -109.026233 -109.021283    0.004950   1.000    0.00320    0.00213
        168    38 -109.026169 -109.021713    0.004456   1.000    0.00309    0.00205
        169    38 -109.026085 -109.022015    0.004070   1.000    0.00298    0.00202
        170    41 -109.025971 -109.022114    0.003856   1.000    0.00290    0.00201
        171    42 -109.025860 -109.022295    0.003564   1.000    0.00283    0.00198
        172    42 -109.025752 -109.022659    0.003094   1.000    0.00279    0.00193
        173    42 -109.025666 -109.023221    0.002446   1.000    0.00276    0.00189
        174    42 -109.025601 -109.023978    0.001623   1.000    0.00273    0.00184
        175    42 -109.025548 -109.024867    0.000682   1.000    0.00268    0.00179
        176    42 -109.025507 -109.025701    0.000194   1.000    0.00262    0.00174
        177    43 -109.025464 -109.026376    0.000912   1.000    0.00257    0.00166
        178    43 -109.025424 -109.026837    0.001413   1.000    0.00254    0.00156
        179    49 -109.025367 -109.027107    0.001740   1.000    0.00252    0.00143
        180    48 -109.025307 -109.027206    0.001899   1.000    0.00251    0.00128
        181    48 -109.025237 -109.027148    0.001911   1.000    0.00250    0.00114
        182    48 -109.025164 -109.026976    0.001812   1.000    0.00250    0.00101
        183    48 -109.025092 -109.026694    0.001602   1.000    0.00248    0.00090
        184    48 -109.025029 -109.026315    0.001285   1.000    0.00247    0.00081
        185    48 -109.024971 -109.025832    0.000861   1.000    0.00234    0.00089
        186    48 -109.025012 -109.025553    0.000541   1.000    0.00218    0.00087
        187    48 -109.025049 -109.024840    0.000209   1.000    0.00213    0.00080
        188    49 -109.025077 -109.024062    0.001016   1.000    0.00209    0.00071
        189    53 -109.025063 -109.023169    0.001894   1.000    0.00205    0.00075
        190    48 -109.025055 -109.022494    0.002561   1.000    0.00202    0.00080
        191    47 -109.025072 -109.021886    0.003185   1.000    0.00201    0.00084
        192    48 -109.025118 -109.021318    0.003799   1.000    0.00200    0.00088
        193    48 -109.025181 -109.020770    0.004411   1.000    0.00199    0.00091
        194    48 -109.025253 -109.020305    0.004948   1.000    0.00197    0.00093
        195    48 -109.025324 -109.019985    0.005339   1.000    0.00195    0.00094
        196    48 -109.025392 -109.019856    0.005536   1.000    0.00194    0.00093
        197    48 -109.025456 -109.019918    0.005538   1.000    0.00193    0.00092
        198    48 -109.025509 -109.020142    0.005367   1.000    0.00193    0.00090
        199    48 -109.025558 -109.020492    0.005067   1.000    0.00194    0.00087
        200    48 -109.025595 -109.020929    0.004666   1.000    0.00194    0.00084
        201    48 -109.025623 -109.021427    0.004196   1.000    0.00195    0.00080
        202    48 -109.025649 -109.021966    0.003683   1.000    0.00194    0.00077
        203    48 -109.025661 -109.022523    0.003138   1.000    0.00194    0.00074
        204    48 -109.025671 -109.023085    0.002586   1.000    0.00193    0.00072
        205    50 -109.025668 -109.023633    0.002035   1.000    0.00191    0.00071
        206    48 -109.025656 -109.024148    0.001508   1.000    0.00190    0.00071
        207    50 -109.025639 -109.024627    0.001012   1.000    0.00188    0.00072
        208    49 -109.025610 -109.025043    0.000567   1.000    0.00186    0.00074
        209    48 -109.025577 -109.025406    0.000172   1.000    0.00184    0.00075
        210    48 -109.025542 -109.025701    0.000159   1.000    0.00182    0.00077
        211    48 -109.025501 -109.025936    0.000434   1.000    0.00180    0.00079
        212    48 -109.025464 -109.026113    0.000650   1.000    0.00178    0.00080
        213    48 -109.025425 -109.026240    0.000815   1.000    0.00176    0.00081
        214    48 -109.025387 -109.026320    0.000933   1.000    0.00174    0.00082
        215    48 -109.025352 -109.026360    0.001008   1.000    0.00173    0.00082
        216    48 -109.025319 -109.026362    0.001043   1.000    0.00172    0.00081
        217    49 -109.025290 -109.026330    0.001040   1.000    0.00171    0.00081
        218    47 -109.025263 -109.026264    0.001002   1.000    0.00170    0.00079
        219    48 -109.025239 -109.026170    0.000931   1.000    0.00169    0.00078
        220    48 -109.025220 -109.026048    0.000828   1.000    0.00168    0.00077
        221    48 -109.025204 -109.025903    0.000699   1.000    0.00167    0.00075
        222    48 -109.025190 -109.025737    0.000547   1.000    0.00166    0.00074
        223    48 -109.025180 -109.025555    0.000375   1.000    0.00166    0.00074
        224    48 -109.025172 -109.025360    0.000187   1.000    0.00165    0.00073
        225    50 -109.025169 -109.025157    0.000012   1.000    0.00164    0.00073
        226    48 -109.025167 -109.024945    0.000222   1.000    0.00163    0.00073
        227    48 -109.025168 -109.024739    0.000428   1.000    0.00162    0.00074
        228    48 -109.025174 -109.024535    0.000639   1.000    0.00161    0.00074
        229    50 -109.025180 -109.024344    0.000836   1.000    0.00159    0.00075
        230    50 -109.025192 -109.024165    0.001026   1.000    0.00158    0.00076
        231    48 -109.025203 -109.024009    0.001194   1.000    0.00156    0.00077
        232    49 -109.025223 -109.023975    0.001248   1.000    0.00153    0.00084
        233    48 -109.025254 -109.024162    0.001092   1.000    0.00149    0.00082
        234    48 -109.025252 -109.024100    0.001151   1.000    0.00148    0.00081
        235    47 -109.025263 -109.024169    0.001094   1.000    0.00147    0.00081
        236    48 -109.025266 -109.024136    0.001130   1.000    0.00146    0.00080
        237    48 -109.025273 -109.024151    0.001123   1.000    0.00145    0.00080
        238    48 -109.025276 -109.024144    0.001132   1.000    0.00145    0.00079
        239    48 -109.025279 -109.024170    0.001109   1.000    0.00144    0.00077
        240    48 -109.025279 -109.024198    0.001081   1.000    0.00144    0.00076
        241    48 -109.025280 -109.024243    0.001037   1.000    0.00143    0.00076
        242    48 -109.025282 -109.024293    0.000989   1.000    0.00143    0.00075
        243    47 -109.025282 -109.024352    0.000930   1.000    0.00141    0.00076
        244    49 -109.025289 -109.024566    0.000723   1.000    0.00141    0.00076
        245    48 -109.025284 -109.024750    0.000534   1.000    0.00141    0.00077
        246    43 -109.025276 -109.024861    0.000415   1.000    0.00141    0.00078
        247    43 -109.025269 -109.025115    0.000154   1.000    0.00140    0.00079
        248    43 -109.025269 -109.025428    0.000159   1.000    0.00138    0.00087
        249    40 -109.025281 -109.026094    0.000813   1.000    0.00135    0.00083
        250    42 -109.025265 -109.026418    0.001153   1.000    0.00136    0.00079
        251    40 -109.025241 -109.026854    0.001612   1.000    0.00136    0.00076
        252    40 -109.025204 -109.027030    0.001827   1.000    0.00138    0.00073
        253    40 -109.025162 -109.027147    0.001985   1.000    0.00138    0.00071
        254    40 -109.025115 -109.027082    0.001967   1.000    0.00139    0.00068
        255    42 -109.025068 -109.026948    0.001880   1.000    0.00137    0.00071
        256    40 -109.025041 -109.026951    0.001910   1.000    0.00137    0.00067
        257    40 -109.025006 -109.026824    0.001818   1.000    0.00136    0.00066
        258    40 -109.024969 -109.026603    0.001634   1.000    0.00136    0.00065
        259    40 -109.024939 -109.026332    0.001393   1.000    0.00136    0.00064
        260    40 -109.024921 -109.026012    0.001091   1.000    0.00136    0.00062
        261    43 -109.024910 -109.025682    0.000772   1.000    0.00135    0.00060
        262    43 -109.024906 -109.025344    0.000438   1.000    0.00134    0.00057
        263    43 -109.024908 -109.025037    0.000130   1.000    0.00132    0.00055
        264    48 -109.024912 -109.024768    0.000144   1.000    0.00130    0.00053
        265    50 -109.024925 -109.024530    0.000395   1.000    0.00128    0.00051
        266    50 -109.024938 -109.024352    0.000586   1.000    0.00125    0.00051
        267    50 -109.024955 -109.024214    0.000741   1.000    0.00122    0.00051
        268    49 -109.024972 -109.024129    0.000843   1.000    0.00118    0.00051
        269    48 -109.024990 -109.024081    0.000909   1.000    0.00115    0.00051
        270    49 -109.025009 -109.024074    0.000935   1.000    0.00113    0.00050
        271    49 -109.025026 -109.024096    0.000930   1.000    0.00110    0.00049
        272    48 -109.025042 -109.024148    0.000895   1.000    0.00109    0.00048
        273    43 -109.025058 -109.024216    0.000842   1.000    0.00107    0.00046
        274    43 -109.025070 -109.024321    0.000748   1.000    0.00106    0.00044
        275    43 -109.025080 -109.024433    0.000647   1.000    0.00106    0.00041
        276    43 -109.025087 -109.024565    0.000522   1.000    0.00105    0.00040
        277    43 -109.025090 -109.024701    0.000389   1.000    0.00104    0.00038
        278    43 -109.025090 -109.024841    0.000249   1.000    0.00102    0.00041
        279    43 -109.025093 -109.025114    0.000021   1.000    0.00101    0.00040
        280    43 -109.025093 -109.025392    0.000299   1.000    0.00101    0.00041
        281    43 -109.025082 -109.025593    0.000510   1.000    0.00101    0.00040
        282    43 -109.025068 -109.025781    0.000713   1.000    0.00101    0.00040
        283    48 -109.025049 -109.025900    0.000851   1.000    0.00102    0.00039
        284    43 -109.025030 -109.025947    0.000917   1.000    0.00102    0.00038
        285    48 -109.025008 -109.025966    0.000958   1.000    0.00102    0.00037
        286    43 -109.024989 -109.025900    0.000911   1.000    0.00102    0.00036
        287    48 -109.024968 -109.025853    0.000885   1.000    0.00102    0.00034
        288    43 -109.024952 -109.025738    0.000786   1.000    0.00102    0.00033
        289    49 -109.024935 -109.025670    0.000735   1.000    0.00102    0.00031
        290    44 -109.024923 -109.025540    0.000616   1.000    0.00101    0.00030
        291    49 -109.024915 -109.025462    0.000548   1.000    0.00100    0.00029
        292    49 -109.024905 -109.025330    0.000425   1.000    0.00099    0.00029
        293    49 -109.024904 -109.025235    0.000331   1.000    0.00097    0.00028
        294    50 -109.024900 -109.025123    0.000222   1.000    0.00096    0.00028
        295    49 -109.024902 -109.025041    0.000139   1.000    0.00094    0.00027
        296    49 -109.024902 -109.024969    0.000066   1.000    0.00093    0.00027
        297    44 -109.024905 -109.024920    0.000015   1.000    0.00092    0.00026
        298    49 -109.024908 -109.024905    0.000003   1.000    0.00090    0.00025
        299    49 -109.024911 -109.024891    0.000020   1.000    0.00089    0.00024
        300    49 -109.024913 -109.024904    0.000009   1.000    0.00088    0.00023
        301    49 -109.024916 -109.024915    0.000000   1.000    0.00087    0.00022
        302    49 -109.024918 -109.024936    0.000019   1.000    0.00086    0.00022
        303    49 -109.024919 -109.024954    0.000035   1.000    0.00085    0.00021
        304    49 -109.024920 -109.024972    0.000052   1.000    0.00085    0.00021
        305    49 -109.024920 -109.024985    0.000065   1.000    0.00084    0.00021
        306    50 -109.024921 -109.024995    0.000074   1.000    0.00083    0.00021
        307    49 -109.024920 -109.024998    0.000078   1.000    0.00083    0.00020
        308    50 -109.024919 -109.024997    0.000078   1.000    0.00082    0.00020
        309    50 -109.024917 -109.024991    0.000074   1.000    0.00081    0.00019
        310    50 -109.024915 -109.024982    0.000067   1.000    0.00081    0.00018
        311    49 -109.024914 -109.024972    0.000058   1.000    0.00081    0.00017
        312    49 -109.024912 -109.024961    0.000049   1.000    0.00080    0.00017
        313    49 -109.024910 -109.024951    0.000041   1.000    0.00080    0.00016
        314    49 -109.024908 -109.024944    0.000036   1.000    0.00079    0.00016
        315    55 -109.024907 -109.024938    0.000031   1.000    0.00079    0.00015
        316    55 -109.024906 -109.024940    0.000034   1.000    0.00078    0.00015
        317    50 -109.024902 -109.024943    0.000041   1.000    0.00078    0.00015
        318    49 -109.024901 -109.024949    0.000048   1.000    0.00077    0.00015
        319    56 -109.024898 -109.024959    0.000061   1.000    0.00076    0.00014
        320    50 -109.024895 -109.024976    0.000080   1.000    0.00076    0.00014
        321    55 -109.024893 -109.024988    0.000095   1.000    0.00076    0.00014
        322    49 -109.024889 -109.025009    0.000120   1.000    0.00075    0.00013
        323    49 -109.024886 -109.025024    0.000137   1.000    0.00075    0.00013
        324    49 -109.024883 -109.025043    0.000160   1.000    0.00074    0.00012
        325    49 -109.024879 -109.025057    0.000178   1.000    0.00074    0.00012
        326    49 -109.024876 -109.025071    0.000195   1.000    0.00073    0.00012
        327    49 -109.024872 -109.025080    0.000208   1.000    0.00073    0.00011
        328    49 -109.024868 -109.025085    0.000217   1.000    0.00073    0.00011
        329    49 -109.024865 -109.025086    0.000222   1.000    0.00072    0.00011
        330    55 -109.024861 -109.025082    0.000220   1.000    0.00072    0.00011
        331    49 -109.024858 -109.025074    0.000217   1.000    0.00071    0.00011
        332    55 -109.024855 -109.025059    0.000204   1.000    0.00071    0.00011
        333    56 -109.024852 -109.025044    0.000192   1.000    0.00070    0.00011
        334    56 -109.024850 -109.025023    0.000173   1.000    0.00070    0.00010
        335    55 -109.024848 -109.025002    0.000154   1.000    0.00069    0.00010
        336    55 -109.024846 -109.024978    0.000132   1.000    0.00069    0.00010
        337    56 -109.024845 -109.024954    0.000109   1.000    0.00068    0.00010
        338    55 -109.024845 -109.024931    0.000086   1.000    0.00068    0.00009
        339    55 -109.024844 -109.024909    0.000065   1.000    0.00067    0.00009
        340    56 -109.024844 -109.024890    0.000046   1.000    0.00067    0.00009
        341    56 -109.024844 -109.024875    0.000031   1.000    0.00066    0.00009
        342    56 -109.024844 -109.024863    0.000019   1.000    0.00066    0.00009
        343    55 -109.024844 -109.024856    0.000012   1.000    0.00065    0.00009
        344    56 -109.024845 -109.024853    0.000008   1.000    0.00065    0.00009
        345    55 -109.024845 -109.024854    0.000009   1.000    0.00064    0.00009
        346    56 -109.024845 -109.024858    0.000013   1.000    0.00064    0.00008
        347    55 -109.024845 -109.024866    0.000022   1.000    0.00064    0.00008
        348    56 -109.024844 -109.024876    0.000032   1.000    0.00063    0.00008
        349    55 -109.024843 -109.024888    0.000045   1.000    0.00063    0.00008
        350    56 -109.024842 -109.024901    0.000059   1.000    0.00063    0.00008
        351    55 -109.024841 -109.024913    0.000073   1.000    0.00062    0.00008
        352    56 -109.024838 -109.024925    0.000086   1.000    0.00062    0.00008
        353    55 -109.024836 -109.024935    0.000098   1.000    0.00062    0.00008
        354    56 -109.024834 -109.024943    0.000108   1.000    0.00062    0.00009
        355    56 -109.024832 -109.024948    0.000116   1.000    0.00061    0.00009
        356    55 -109.024830 -109.024950    0.000120   1.000    0.00061    0.00009
        357    55 -109.024827 -109.024949    0.000122   1.000    0.00061    0.00009
        358    56 -109.024825 -109.024946    0.000121   1.000    0.00061    0.00009
        359    49 -109.024822 -109.024941    0.000119   1.000    0.00060    0.00009
        360    55 -109.024821 -109.024930    0.000110   1.000    0.00060    0.00009
        361    50 -109.024818 -109.024923    0.000105   1.000    0.00060    0.00009
        362    49 -109.024817 -109.024909    0.000093   1.000    0.00060    0.00009
        363    49 -109.024815 -109.024898    0.000083   1.000    0.00059    0.00009
        364    50 -109.024814 -109.024886    0.000072   1.000    0.00059    0.00009
        365    50 -109.024813 -109.024874    0.000061   1.000    0.00059    0.00009
        366    56 -109.024812 -109.024862    0.000050   1.000    0.00058    0.00009
        367    49 -109.024811 -109.024854    0.000043   1.000    0.00058    0.00009
        368    50 -109.024811 -109.024844    0.000034   1.000    0.00058    0.00009
        369    50 -109.024810 -109.024839    0.000028   1.000    0.00058    0.00009
        370    50 -109.024810 -109.024833    0.000024   1.000    0.00057    0.00009
        371    49 -109.024809 -109.024830    0.000021   1.000    0.00057    0.00009
        372    50 -109.024809 -109.024829    0.000020   1.000    0.00057    0.00009
        373    54 -109.024809 -109.024829    0.000020   1.000    0.00057    0.00009
        374    50 -109.024809 -109.024831    0.000022   1.000    0.00056    0.00009
        375    50 -109.024808 -109.024833    0.000025   1.000    0.00056    0.00009
        376    55 -109.024808 -109.024836    0.000028   1.000    0.00056    0.00009
        377    50 -109.024807 -109.024840    0.000033   1.000    0.00056    0.00009
        378    50 -109.024806 -109.024843    0.000037   1.000    0.00055    0.00009
        379    50 -109.024806 -109.024847    0.000042   1.000    0.00055    0.00009
        380    50 -109.024805 -109.024850    0.000045   1.000    0.00055    0.00009
        381    50 -109.024804 -109.024853    0.000049   1.000    0.00055    0.00009
        382    50 -109.024803 -109.024855    0.000052   1.000    0.00055    0.00009
        383    50 -109.024802 -109.024856    0.000054   1.000    0.00054    0.00009
        384    49 -109.024801 -109.024856    0.000055   1.000    0.00054    0.00009
        385    50 -109.024800 -109.024855    0.000055   1.000    0.00054    0.00009
        386    49 -109.024799 -109.024854    0.000055   1.000    0.00054    0.00009
        387    50 -109.024798 -109.024851    0.000054   1.000    0.00054    0.00009
        388    50 -109.024796 -109.024849    0.000052   1.000    0.00053    0.00009
        389    50 -109.024796 -109.024845    0.000050   1.000    0.00053    0.00009
        390    49 -109.024794 -109.024842    0.000047   1.000    0.00053    0.00010
        391    50 -109.024794 -109.024838    0.000044   1.000    0.00053    0.00010
        392    50 -109.024793 -109.024834    0.000042   1.000    0.00053    0.00010
        393    49 -109.024792 -109.024831    0.000039   1.000    0.00053    0.00010
        394    50 -109.024791 -109.024827    0.000036   1.000    0.00053    0.00010
        395    50 -109.024790 -109.024824    0.000033   1.000    0.00052    0.00010
        396    49 -109.024789 -109.024820    0.000031   1.000    0.00052    0.00010
        397    50 -109.024789 -109.024818    0.000029   1.000    0.00052    0.00010
        398    48 -109.024788 -109.024815    0.000027   1.000    0.00052    0.00010
        399    50 -109.024788 -109.024812    0.000025   1.000    0.00052    0.00010
        400    48 -109.024787 -109.024810    0.000024   1.000    0.00052    0.00010
        401    50 -109.024786 -109.024808    0.000021   1.000    0.00052    0.00010
        402    48 -109.024785 -109.024806    0.000021   1.000    0.00051    0.00010
        403    48 -109.024785 -109.024804    0.000018   1.000    0.00051    0.00010
        404    48 -109.024784 -109.024802    0.000017   1.000    0.00051    0.00010
        405    48 -109.024784 -109.024800    0.000016   1.000    0.00051    0.00010
        406    49 -109.024784 -109.024798    0.000014   1.000    0.00051    0.00010
        407    48 -109.024783 -109.024796    0.000013   1.000    0.00051    0.00010
        408    48 -109.024783 -109.024794    0.000011   1.000    0.00051    0.00009
        409    50 -109.024782 -109.024792    0.000009   1.000    0.00050    0.00009
        410    48 -109.024782 -109.024790    0.000008   1.000    0.00050    0.00009
        411    48 -109.024782 -109.024788    0.000007   1.000    0.00050    0.00009
        412    48 -109.024781 -109.024787    0.000006   1.000    0.00050    0.00009
        413    49 -109.024781 -109.024786    0.000005   1.000    0.00050    0.00009
        414    48 -109.024781 -109.024785    0.000004   1.000    0.00050    0.00009
        415    48 -109.024780 -109.024785    0.000004   1.000    0.00050    0.00009
        416    48 -109.024780 -109.024784    0.000004   1.000    0.00050    0.00009
        417    48 -109.024780 -109.024784    0.000005   1.000    0.00050    0.00009
        418    48 -109.024779 -109.024785    0.000006   1.000    0.00049    0.00009
        419    48 -109.024779 -109.024785    0.000007   1.000    0.00049    0.00009
        420    48 -109.024778 -109.024786    0.000008   1.000    0.00049    0.00009
        421    48 -109.024778 -109.024787    0.000009   1.000    0.00049    0.00009
        422    43 -109.024777 -109.024788    0.000011   1.000    0.00049    0.00009
        423    48 -109.024777 -109.024788    0.000012   1.000    0.00049    0.00009
        424    43 -109.024776 -109.024790    0.000014   1.000    0.00049    0.00009
        425    48 -109.024776 -109.024790    0.000014   1.000    0.00049    0.00009
        426    43 -109.024775 -109.024791    0.000016   1.000    0.00049    0.00009
        427    48 -109.024775 -109.024790    0.000015   1.000    0.00049    0.00009
        428    43 -109.024774 -109.024790    0.000017   1.000    0.00048    0.00009
        429    48 -109.024773 -109.024789    0.000015   1.000    0.00048    0.00009
        430    43 -109.024773 -109.024789    0.000016   1.000    0.00048    0.00009
        431    48 -109.024772 -109.024786    0.000014   1.000    0.00048    0.00009
        432    43 -109.024772 -109.024786    0.000014   1.000    0.00048    0.00009
        433    49 -109.024771 -109.024782    0.000011   1.000    0.00048    0.00009
        434    43 -109.024770 -109.024781    0.000011   1.000    0.00048    0.00009
        435    48 -109.024770 -109.024778    0.000007   1.000    0.00048    0.00009
        436    43 -109.024770 -109.024776    0.000006   1.000    0.00048    0.00008
        437    48 -109.024769 -109.024772    0.000003   1.000    0.00048    0.00008
        438    43 -109.024769 -109.024771    0.000002   1.000    0.00048    0.00008
        439    48 -109.024769 -109.024767    0.000002   1.000    0.00048    0.00008
        440    43 -109.024769 -109.024766    0.000003   1.000    0.00047    0.00008
        441    48 -109.024768 -109.024762    0.000006   1.000    0.00047    0.00008
        442    43 -109.024768 -109.024762    0.000006   1.000    0.00047    0.00008
        443    48 -109.024768 -109.024759    0.000009   1.000    0.00047    0.00008
        444    43 -109.024768 -109.024759    0.000009   1.000    0.00047    0.00008
        445    48 -109.024768 -109.024757    0.000011   1.000    0.00047    0.00008
        446    43 -109.024767 -109.024757    0.000010   1.000    0.00047    0.00008
        447    48 -109.024768 -109.024755    0.000012   1.000    0.00047    0.00008
        448    43 -109.024767 -109.024756    0.000010   1.000    0.00047    0.00008
        449    48 -109.024767 -109.024755    0.000012   1.000    0.00047    0.00008
        450    43 -109.024766 -109.024757    0.000010   1.000    0.00047    0.00008
        451    48 -109.024767 -109.024756    0.000011   1.000    0.00047    0.00008
        452    43 -109.024766 -109.024757    0.000009   1.000    0.00047    0.00008
        453    48 -109.024766 -109.024757    0.000009   1.000    0.00047    0.00008
        454    48 -109.024766 -109.024758    0.000008   1.000    0.00046    0.00008
        455    48 -109.024765 -109.024758    0.000007   1.000    0.00046    0.00007
        456    49 -109.024765 -109.024759    0.000007   1.000    0.00046    0.00007
        457    49 -109.024765 -109.024759    0.000006   1.000    0.00046    0.00007
        458    49 -109.024765 -109.024759    0.000005   1.000    0.00046    0.00007
        459    48 -109.024764 -109.024759    0.000005   1.000    0.00046    0.00007
        460    48 -109.024764 -109.024759    0.000005   1.000    0.00046    0.00007
        461    49 -109.024764 -109.024759    0.000005   1.000    0.00046    0.00007
        462    49 -109.024763 -109.024759    0.000004   1.000    0.00046    0.00007
        463    48 -109.024763 -109.024759    0.000005   1.000    0.00046    0.00007
        464    48 -109.024763 -109.024758    0.000005   1.000    0.00046    0.00007
        465    49 -109.024763 -109.024757    0.000005   1.000    0.00046    0.00007
        466    48 -109.024762 -109.024757    0.000005   1.000    0.00046    0.00007
        467    48 -109.024762 -109.024756    0.000006   1.000    0.00046    0.00007
        468    49 -109.024761 -109.024755    0.000006   1.000    0.00046    0.00007
        469    48 -109.024761 -109.024754    0.000007   1.000    0.00046    0.00007
        470    48 -109.024761 -109.024754    0.000008   1.000    0.00045    0.00007
        471    48 -109.024761 -109.024753    0.000008   1.000    0.00045    0.00007
        472    48 -109.024761 -109.024752    0.000009   1.000    0.00045    0.00006
        473    48 -109.024760 -109.024751    0.000009   1.000    0.00045    0.00006
        474    49 -109.024760 -109.024750    0.000010   1.000    0.00045    0.00006
        475    48 -109.024760 -109.024750    0.000011   1.000    0.00045    0.00006
        476    48 -109.024760 -109.024749    0.000011   1.000    0.00045    0.00006
        477    48 -109.024760 -109.024748    0.000012   1.000    0.00045    0.00006
        478    48 -109.024759 -109.024747    0.000012   1.000    0.00045    0.00006
        479    49 -109.024760 -109.024747    0.000013   1.000    0.00045    0.00006
        480    48 -109.024759 -109.024746    0.000013   1.000    0.00045    0.00006
        481    48 -109.024759 -109.024745    0.000014   1.000    0.00045    0.00006
        482    49 -109.024759 -109.024745    0.000014   1.000    0.00045    0.00006
        483    49 -109.024759 -109.024744    0.000014   1.000    0.00045    0.00006
        484    48 -109.024758 -109.024744    0.000015   1.000    0.00045    0.00006
        485    50 -109.024759 -109.024744    0.000015   1.000    0.00045    0.00006
        486    50 -109.024758 -109.024743    0.000015   1.000    0.00045    0.00006
        487    48 -109.024758 -109.024743    0.000015   1.000    0.00045    0.00006
        488    50 -109.024758 -109.024743    0.000015   1.000    0.00045    0.00006
        489    48 -109.024758 -109.024743    0.000015   1.000    0.00044    0.00006
        490    49 -109.024758 -109.024742    0.000015   1.000    0.00044    0.00006
        491    48 -109.024758 -109.024742    0.000015   1.000    0.00044    0.00005
        492    50 -109.024758 -109.024742    0.000015   1.000    0.00044    0.00005
        493    48 -109.024757 -109.024742    0.000015   1.000    0.00044    0.00005
        494    49 -109.024757 -109.024742    0.000015   1.000    0.00044    0.00005
        495    48 -109.024757 -109.024742    0.000015   1.000    0.00044    0.00005
        496    50 -109.024757 -109.024742    0.000014   1.000    0.00044    0.00005
        497    48 -109.024757 -109.024742    0.000014   1.000    0.00044    0.00005
        498    48 -109.024756 -109.024742    0.000014   1.000    0.00044    0.00005
        499    50 -109.024756 -109.024742    0.000014   1.000    0.00044    0.00005

        ==> Orbital Optimization <==

            Orbital Optimization did not converge in  20 iterations 
            Total energy change: -3.773575e-02
            Final gradient norm: 9.809686e-05

        500    50 -109.062492 -108.994749    0.067743   8.626    0.00044    0.00005
        501   109 -109.069162 -108.615765    0.453397   8.626    0.01281    0.20220
        502    61 -109.073771 -108.815951    0.257820   8.626    0.01708    0.13548
        503    55 -109.074696 -109.047184    0.027512   8.626    0.01488    0.10739
        504    47 -109.073689 -109.103106    0.029417   8.626    0.01198    0.11123
        505    49 -109.073875 -109.091345    0.017470   8.626    0.00900    0.11650
        506    49 -109.074981 -109.102174    0.027193   8.626    0.00753    0.11556
        507    42 -109.069594 -109.157155    0.087561   8.626    0.00604    0.10743
        508    50 -109.070759 -109.222000    0.151240   8.626    0.00561    0.09555
        509    56 -109.069469 -109.285261    0.215792   8.626    0.00579    0.08233
        510    48 -109.070980 -109.301656    0.230675   8.626    0.00631    0.07566
        511    50 -109.071393 -109.294175    0.222782   8.626    0.00598    0.07316
        512    56 -109.072425 -109.269163    0.196739   8.626    0.00541    0.07345
        513    56 -109.071627 -109.263683    0.192056   8.626    0.00339    0.07251
        514    60 -109.072523 -109.259219    0.186696   8.626    0.00313    0.06953
        515    61 -109.072751 -109.250212    0.177461   8.626    0.00335    0.06611
        516    50 -109.073147 -109.243189    0.170042   8.626    0.00330    0.06434
        517    55 -109.073221 -109.252076    0.178855   8.626    0.00350    0.06072
        518    56 -109.073154 -109.248579    0.175424   8.626    0.00364    0.05813
        519    56 -109.072963 -109.241036    0.168073   8.626    0.00379    0.05547
        520    56 -109.072874 -109.225012    0.152138   8.626    0.00393    0.05273
        521    56 -109.072893 -109.204758    0.131865   8.626    0.00402    0.05005
        522    56 -109.072772 -109.179945    0.107173   8.626    0.00363    0.04776
        523    56 -109.072991 -109.157361    0.084370   8.626    0.00343    0.04597
        524    56 -109.073160 -109.137747    0.064586   8.626    0.00315    0.04429
        525    55 -109.073443 -109.117736    0.044293   8.626    0.00301    0.04282
        526    55 -109.073723 -109.100234    0.026510   8.626    0.00296    0.04138
        527    56 -109.074049 -109.084243    0.010194   8.626    0.00299    0.04004
        528    50 -109.074370 -109.071310    0.003060   8.626    0.00306    0.03884
        529    50 -109.074714 -109.061741    0.012973   8.626    0.00316    0.03765
        530    50 -109.075056 -109.058270    0.016786   8.626    0.00327    0.03631
        531    55 -109.075382 -109.060867    0.014516   8.626    0.00339    0.03467
        532    55 -109.075595 -109.067226    0.008368   8.626    0.00349    0.03285
        533    55 -109.075749 -109.078321    0.002573   8.626    0.00357    0.03107
        534    50 -109.075990 -109.093539    0.017549   8.626    0.00358    0.02977
        535    50 -109.076140 -109.103823    0.027683   8.626    0.00348    0.02889
        536    50 -109.076290 -109.109609    0.033319   8.626    0.00341    0.02798
        537    56 -109.076421 -109.110564    0.034143   8.626    0.00332    0.02700
        538    56 -109.076319 -109.110534    0.034214   8.626    0.00309    0.02609
        539    55 -109.076248 -109.113107    0.036858   8.626    0.00294    0.02518
        540    56 -109.076234 -109.117836    0.041602   8.626    0.00283    0.02430
        541    56 -109.076198 -109.121526    0.045327   8.626    0.00269    0.02364
        542    56 -109.076184 -109.125040    0.048856   8.626    0.00256    0.02319
        543    50 -109.076166 -109.127759    0.051592   8.626    0.00243    0.02284
        544    50 -109.076160 -109.130390    0.054230   8.626    0.00231    0.02245
        545    50 -109.076157 -109.132555    0.056398   8.626    0.00219    0.02192
        546    45 -109.076159 -109.134963    0.058804   8.626    0.00206    0.02155
        547    50 -109.076173 -109.140993    0.064820   8.626    0.00193    0.02095
        548    50 -109.076135 -109.143180    0.067045   8.626    0.00185    0.02029
        549    50 -109.076076 -109.145588    0.069512   8.626    0.00181    0.01958
        550    50 -109.075987 -109.147080    0.071093   8.626    0.00179    0.01887
        551    50 -109.075888 -109.148970    0.073081   8.626    0.00173    0.01900
        552    55 -109.075764 -109.155350    0.079586   8.626    0.00160    0.01819
        553    55 -109.075658 -109.155222    0.079564   8.626    0.00142    0.01800
        554    50 -109.075572 -109.159839    0.084268   8.626    0.00126    0.01784
        555    56 -109.075479 -109.160229    0.084750   8.626    0.00116    0.01745
        556    56 -109.075356 -109.154782    0.079426   8.626    0.00114    0.01702
        557    56 -109.075241 -109.150080    0.074839   8.626    0.00114    0.01656
        558    56 -109.075134 -109.143657    0.068523   8.626    0.00115    0.01613
        559    60 -109.075048 -109.137848    0.062800   8.626    0.00109    0.01621
        560    55 -109.075026 -109.135617    0.060591   8.626    0.00106    0.01540
        561    56 -109.074984 -109.129929    0.054944   8.626    0.00097    0.01520
        562    55 -109.075011 -109.128546    0.053535   8.626    0.00095    0.01434
        563    56 -109.075008 -109.122916    0.047908   8.626    0.00092    0.01377
        564    56 -109.075022 -109.118687    0.043665   8.626    0.00089    0.01337
        565    56 -109.075039 -109.113523    0.038484   8.626    0.00084    0.01316
        566    56 -109.075072 -109.108634    0.033562   8.626    0.00079    0.01309
        567    60 -109.075109 -109.103351    0.028243   8.626    0.00073    0.01307
        568    56 -109.075156 -109.098404    0.023249   8.626    0.00067    0.01307
        569    56 -109.075209 -109.093681    0.018472   8.626    0.00061    0.01305
        570    56 -109.075277 -109.089581    0.014304   8.626    0.00054    0.01301
        571    55 -109.075358 -109.086188    0.010830   8.626    0.00048    0.01293
        572    60 -109.075452 -109.084090    0.008638   8.626    0.00044    0.01271
        573    60 -109.075551 -109.083175    0.007623   8.626    0.00048    0.01227
        574    60 -109.075644 -109.084740    0.009096   8.626    0.00056    0.01150
        575    61 -109.075721 -109.087238    0.011516   8.626    0.00061    0.01082
        576    60 -109.075770 -109.089689    0.013918   8.626    0.00061    0.01039
        577    60 -109.075807 -109.092290    0.016483   8.626    0.00058    0.01019
        578    58 -109.075842 -109.094878    0.019037   8.626    0.00053    0.01011
        579    59 -109.075875 -109.097301    0.021426   8.626    0.00047    0.01008
        580    54 -109.075904 -109.099415    0.023511   8.626    0.00042    0.01005
        581    59 -109.075921 -109.101157    0.025236   8.626    0.00040    0.00999
        582    60 -109.075926 -109.102418    0.026493   8.626    0.00042    0.00983
        583    56 -109.075915 -109.103240    0.027325   8.626    0.00046    0.00957
        584    56 -109.075827 -109.103636    0.027809   8.626    0.00039    0.00933
        585    55 -109.075812 -109.105780    0.029968   8.626    0.00041    0.00905
        586    59 -109.075764 -109.106488    0.030724   8.626    0.00040    0.00878
        587    56 -109.075761 -109.105986    0.030225   8.626    0.00041    0.00859
        588    56 -109.075746 -109.104425    0.028678   8.626    0.00042    0.00846
        589    55 -109.075749 -109.102285    0.026536   8.626    0.00043    0.00835
        590    55 -109.075749 -109.099888    0.024139   8.626    0.00043    0.00826
        591    55 -109.075759 -109.097683    0.021924   8.626    0.00043    0.00819
        592    50 -109.075772 -109.095940    0.020168   8.626    0.00042    0.00811
        593    43 -109.075790 -109.094838    0.019047   8.626    0.00042    0.00802
        594    43 -109.075810 -109.094428    0.018618   8.626    0.00042    0.00789
        595    54 -109.075836 -109.095052    0.019216   8.626    0.00043    0.00773
        596    54 -109.075853 -109.095816    0.019962   8.626    0.00045    0.00755
        597    54 -109.075819 -109.096927    0.021108   8.626    0.00031    0.00742
        598    55 -109.075783 -109.098361    0.022578   8.626    0.00028    0.00730
        599    56 -109.075793 -109.100032    0.024239   8.626    0.00026    0.00724
        600    54 -109.075762 -109.101147    0.025385   8.626    0.00023    0.00721
        601    54 -109.075744 -109.101970    0.026225   8.626    0.00020    0.00718
        602    61 -109.075711 -109.102112    0.026401   8.626    0.00019    0.00715
        603    56 -109.075685 -109.101768    0.026082   8.626    0.00018    0.00708
        604    56 -109.075658 -109.100959    0.025301   8.626    0.00020    0.00699
        605    56 -109.075637 -109.099843    0.024207   8.626    0.00022    0.00688
        606    56 -109.075618 -109.098509    0.022891   8.626    0.00024    0.00675
        607    50 -109.075607 -109.097052    0.021445   8.626    0.00026    0.00663
        608    44 -109.075602 -109.095662    0.020061   8.626    0.00028    0.00651
        609    44 -109.075604 -109.094275    0.018671   8.626    0.00029    0.00641
        610    50 -109.075612 -109.093030    0.017418   8.626    0.00029    0.00632
        611    50 -109.075624 -109.091831    0.016207   8.626    0.00028    0.00626
        612    50 -109.075638 -109.090703    0.015065   8.626    0.00026    0.00621
        613    50 -109.075654 -109.089714    0.014060   8.626    0.00024    0.00616
        614    49 -109.075673 -109.088902    0.013229   8.626    0.00022    0.00611
        615    50 -109.075693 -109.088312    0.012619   8.626    0.00020    0.00605
        616    45 -109.075714 -109.087968    0.012255   8.626    0.00019    0.00598
        617    43 -109.075735 -109.087888    0.012153   8.626    0.00018    0.00591
        618    50 -109.075756 -109.088051    0.012295   8.626    0.00018    0.00583
        619    43 -109.075776 -109.088414    0.012637   8.626    0.00018    0.00576
        620    43 -109.075794 -109.088945    0.013150   8.626    0.00018    0.00570
        621    43 -109.075810 -109.089566    0.013756   8.626    0.00018    0.00564
        622    43 -109.075823 -109.090234    0.014412   8.626    0.00018    0.00558
        623    56 -109.075832 -109.090879    0.015047   8.626    0.00018    0.00553
        624    54 -109.075837 -109.091470    0.015632   8.626    0.00018    0.00548
        625    55 -109.075840 -109.091946    0.016105   8.626    0.00018    0.00542
        626    55 -109.075840 -109.092291    0.016450   8.626    0.00018    0.00536
        627    56 -109.075839 -109.092482    0.016643   8.626    0.00018    0.00530
        628    55 -109.075837 -109.092525    0.016688   8.626    0.00019    0.00524
        629    56 -109.075834 -109.092431    0.016597   8.626    0.00019    0.00518
        630    55 -109.075832 -109.092231    0.016399   8.626    0.00019    0.00513
        631    55 -109.075831 -109.091956    0.016126   8.626    0.00019    0.00509
        632    55 -109.075831 -109.091646    0.015815   8.626    0.00020    0.00505
        633    55 -109.075831 -109.091337    0.015505   8.626    0.00020    0.00501
        634    54 -109.075833 -109.091058    0.015225   8.626    0.00019    0.00498
        635    56 -109.075836 -109.090833    0.014997   8.626    0.00019    0.00494
        636    54 -109.075839 -109.090680    0.014841   8.626    0.00019    0.00491
        637    54 -109.075843 -109.090597    0.014754   8.626    0.00018    0.00487
        638    49 -109.075846 -109.090592    0.014746   8.626    0.00018    0.00483
        639    50 -109.075851 -109.090819    0.014968   8.626    0.00018    0.00479
        640    49 -109.075854 -109.090915    0.015060   8.626    0.00018    0.00475
        641    43 -109.075856 -109.090995    0.015139   8.626    0.00018    0.00471
        642    43 -109.075856 -109.091001    0.015145   8.626    0.00018    0.00467
        643    49 -109.075856 -109.090979    0.015123   8.626    0.00018    0.00463
        644    50 -109.075855 -109.090922    0.015066   8.626    0.00018    0.00459
        645    50 -109.075854 -109.090853    0.014998   8.626    0.00018    0.00455
        646    44 -109.075853 -109.090743    0.014890   8.626    0.00018    0.00451
        647    44 -109.075852 -109.090586    0.014735   8.626    0.00018    0.00447
        648    44 -109.075851 -109.090350    0.014499   8.626    0.00018    0.00444
        649    44 -109.075850 -109.090054    0.014204   8.626    0.00018    0.00441
        650    49 -109.075853 -109.089816    0.013964   8.626    0.00018    0.00438
        651    50 -109.075854 -109.089311    0.013457   8.626    0.00019    0.00435
        652    50 -109.075854 -109.088821    0.012967   8.626    0.00019    0.00432
        653    49 -109.075822 -109.088256    0.012435   8.626    0.00016    0.00431
        654    56 -109.075834 -109.088022    0.012188   8.626    0.00015    0.00428
        655    56 -109.075827 -109.087554    0.011726   8.626    0.00015    0.00425
        656    56 -109.075833 -109.087185    0.011351   8.626    0.00015    0.00422
        657    56 -109.075833 -109.086753    0.010920   8.626    0.00015    0.00419
        658    56 -109.075839 -109.086396    0.010556   8.626    0.00015    0.00416
        659    56 -109.075844 -109.086084    0.010240   8.626    0.00015    0.00413
        660    56 -109.075852 -109.085872    0.010020   8.626    0.00015    0.00409
        661    55 -109.075854 -109.085744    0.009890   8.626    0.00016    0.00406
        662    55 -109.075859 -109.085820    0.009961   8.626    0.00016    0.00403
        663    55 -109.075866 -109.085902    0.010036   8.626    0.00016    0.00400
        664    56 -109.075875 -109.085951    0.010077   8.626    0.00016    0.00397
        665    50 -109.075882 -109.085980    0.010098   8.626    0.00017    0.00395
        666    50 -109.075889 -109.086010    0.010121   8.626    0.00017    0.00392
        667    50 -109.075893 -109.086072    0.010178   8.626    0.00017    0.00390
        668    50 -109.075896 -109.086160    0.010264   8.626    0.00017    0.00387
        669    50 -109.075898 -109.086278    0.010380   8.626    0.00017    0.00385
        670    50 -109.075899 -109.086413    0.010514   8.626    0.00018    0.00383
        671    50 -109.075899 -109.086553    0.010654   8.626    0.00018    0.00380
        672    49 -109.075899 -109.086681    0.010783   8.626    0.00018    0.00378
        673    50 -109.075898 -109.086783    0.010885   8.626    0.00018    0.00376
        674    50 -109.075897 -109.086843    0.010946   8.626    0.00018    0.00374
        675    50 -109.075894 -109.086854    0.010960   8.626    0.00018    0.00372
        676    51 -109.075891 -109.086814    0.010923   8.626    0.00018    0.00369
        677    50 -109.075888 -109.086727    0.010839   8.626    0.00018    0.00367
        678    50 -109.075884 -109.086599    0.010715   8.626    0.00018    0.00364
        679    49 -109.075880 -109.086436    0.010556   8.626    0.00018    0.00362
        680    50 -109.075877 -109.086245    0.010368   8.626    0.00018    0.00359
        681    50 -109.075875 -109.086031    0.010156   8.626    0.00018    0.00357
        682    50 -109.075873 -109.085796    0.009923   8.626    0.00018    0.00354
        683    50 -109.075872 -109.085543    0.009671   8.626    0.00018    0.00352
        684    50 -109.075872 -109.085274    0.009403   8.626    0.00017    0.00349
        685    50 -109.075872 -109.084995    0.009123   8.626    0.00017    0.00347
        686    50 -109.075873 -109.084708    0.008835   8.626    0.00017    0.00345
        687    50 -109.075875 -109.084418    0.008544   8.626    0.00017    0.00343
        688    50 -109.075877 -109.084131    0.008254   8.626    0.00017    0.00340
        689    50 -109.075880 -109.083851    0.007971   8.626    0.00017    0.00338
        690    50 -109.075884 -109.083583    0.007699   8.626    0.00017    0.00336
        691    50 -109.075888 -109.083330    0.007441   8.626    0.00017    0.00334
        692    50 -109.075893 -109.083096    0.007203   8.626    0.00017    0.00332
        693    50 -109.075898 -109.082884    0.006987   8.626    0.00017    0.00329
        694    49 -109.075903 -109.082698    0.006796   8.626    0.00017    0.00327
        695    50 -109.075908 -109.082540    0.006632   8.626    0.00017    0.00325
        696    50 -109.075912 -109.082409    0.006496   8.626    0.00018    0.00323
        697    50 -109.075917 -109.082306    0.006389   8.626    0.00018    0.00321
        698    50 -109.075921 -109.082229    0.006308   8.626    0.00018    0.00318
        699    50 -109.075925 -109.082177    0.006252   8.626    0.00018    0.00316
        700    50 -109.075928 -109.082145    0.006216   8.626    0.00018    0.00314
        701    50 -109.075931 -109.082129    0.006198   8.626    0.00018    0.00311
        702    50 -109.075933 -109.082127    0.006194   8.626    0.00018    0.00309
        703    50 -109.075935 -109.082134    0.006199   8.626    0.00018    0.00307
        704    50 -109.075937 -109.082147    0.006210   8.626    0.00018    0.00305
        705    50 -109.075938 -109.082161    0.006223   8.626    0.00018    0.00302
        706    50 -109.075939 -109.082174    0.006235   8.626    0.00018    0.00300
        707    50 -109.075940 -109.082183    0.006243   8.626    0.00018    0.00298
        708    50 -109.075941 -109.082186    0.006245   8.626    0.00018    0.00297
        709    50 -109.075941 -109.082179    0.006238   8.626    0.00018    0.00295
        710    50 -109.075941 -109.082161    0.006220   8.626    0.00018    0.00293
        711    50 -109.075941 -109.082131    0.006190   8.626    0.00017    0.00291
        712    50 -109.075941 -109.082088    0.006146   8.626    0.00017    0.00289
        713    50 -109.075941 -109.082030    0.006088   8.626    0.00017    0.00287
        714    50 -109.075942 -109.081958    0.006016   8.626    0.00017    0.00286
        715    50 -109.075942 -109.081871    0.005930   8.626    0.00017    0.00284
        716    50 -109.075942 -109.081771    0.005829   8.626    0.00017    0.00282
        717    49 -109.075942 -109.081658    0.005716   8.626    0.00017    0.00280
        718    50 -109.075942 -109.081533    0.005591   8.626    0.00017    0.00278
        719    50 -109.075942 -109.081397    0.005455   8.626    0.00017    0.00277
        720    56 -109.075943 -109.081251    0.005308   8.626    0.00017    0.00275
        721    56 -109.075943 -109.081098    0.005155   8.626    0.00017    0.00273
        722    50 -109.075944 -109.080938    0.004994   8.626    0.00016    0.00272
        723    56 -109.075944 -109.080770    0.004825   8.626    0.00016    0.00270
        724    56 -109.075945 -109.080601    0.004656   8.626    0.00016    0.00268
        725    56 -109.075946 -109.080429    0.004483   8.626    0.00016    0.00267
        726    56 -109.075947 -109.080259    0.004311   8.626    0.00016    0.00265
        727    56 -109.075949 -109.080091    0.004142   8.626    0.00016    0.00264
        728    56 -109.075951 -109.079927    0.003976   8.626    0.00016    0.00262
        729    56 -109.075952 -109.079771    0.003818   8.626    0.00016    0.00261
        730    56 -109.075955 -109.079623    0.003669   8.626    0.00016    0.00259
        731    55 -109.075957 -109.079486    0.003529   8.626    0.00016    0.00258
        732    56 -109.075959 -109.079362    0.003403   8.626    0.00015    0.00256
        733    56 -109.075962 -109.079251    0.003289   8.626    0.00015    0.00255
        734    56 -109.075964 -109.079156    0.003191   8.626    0.00015    0.00254
        735    56 -109.075967 -109.079074    0.003107   8.626    0.00015    0.00252
        736    56 -109.075970 -109.079009    0.003040   8.626    0.00015    0.00251
        737    56 -109.075972 -109.078957    0.002984   8.626    0.00015    0.00249
        738    56 -109.075975 -109.078921    0.002946   8.626    0.00015    0.00248
        739    56 -109.075977 -109.078896    0.002919   8.626    0.00015    0.00247
        740    56 -109.075979 -109.078883    0.002904   8.626    0.00015    0.00245
        741    56 -109.075981 -109.078878    0.002897   8.626    0.00015    0.00244
        742    56 -109.075983 -109.078881    0.002899   8.626    0.00015    0.00242
        743    56 -109.075984 -109.078889    0.002905   8.626    0.00014    0.00241
        744    56 -109.075985 -109.078900    0.002914   8.626    0.00014    0.00240
        745    56 -109.075986 -109.078911    0.002925   8.626    0.00014    0.00239
        746    56 -109.075987 -109.078919    0.002933   8.626    0.00014    0.00238
        747    56 -109.075987 -109.078926    0.002939   8.626    0.00014    0.00236
        748    56 -109.075987 -109.078926    0.002939   8.626    0.00014    0.00235
        749    56 -109.075987 -109.078919    0.002932   8.626    0.00014    0.00234
        750    56 -109.075987 -109.078905    0.002919   8.626    0.00014    0.00233
        751    56 -109.075986 -109.078882    0.002896   8.626    0.00014    0.00232
        752    56 -109.075986 -109.078851    0.002865   8.626    0.00014    0.00231
        753    56 -109.075986 -109.078810    0.002825   8.626    0.00014    0.00230
        754    56 -109.075985 -109.078761    0.002776   8.626    0.00013    0.00229
        755    56 -109.075985 -109.078703    0.002718   8.626    0.00013    0.00228
        756    56 -109.075985 -109.078638    0.002653   8.626    0.00013    0.00227
        757    56 -109.075985 -109.078567    0.002582   8.626    0.00013    0.00226
        758    56 -109.075985 -109.078489    0.002505   8.626    0.00013    0.00225
        759    56 -109.075985 -109.078408    0.002423   8.626    0.00013    0.00224
        760    56 -109.075985 -109.078323    0.002338   8.626    0.00013    0.00223
        761    56 -109.075985 -109.078237    0.002252   8.626    0.00013    0.00222
        762    56 -109.075986 -109.078149    0.002163   8.626    0.00013    0.00221
        763    56 -109.075986 -109.078063    0.002077   8.626    0.00013    0.00220
        764    56 -109.075987 -109.077978    0.001991   8.626    0.00013    0.00219
        765    56 -109.075988 -109.077896    0.001908   8.626    0.00013    0.00218
        766    56 -109.075989 -109.077818    0.001829   8.626    0.00012    0.00217
        767    56 -109.075990 -109.077744    0.001754   8.626    0.00012    0.00216
        768    56 -109.075991 -109.077676    0.001685   8.626    0.00012    0.00215
        769    56 -109.075992 -109.077614    0.001622   8.626    0.00012    0.00214
        770    56 -109.075993 -109.077558    0.001565   8.626    0.00012    0.00213
        771    56 -109.075994 -109.077509    0.001515   8.626    0.00012    0.00212
        772    56 -109.075995 -109.077468    0.001473   8.626    0.00012    0.00211
        773    56 -109.075996 -109.077433    0.001437   8.626    0.00012    0.00210
        774    56 -109.075997 -109.077406    0.001409   8.626    0.00012    0.00209
        775    56 -109.075998 -109.077387    0.001388   8.626    0.00012    0.00209
        776    56 -109.075999 -109.077374    0.001375   8.626    0.00012    0.00208
        777    56 -109.076000 -109.077368    0.001368   8.626    0.00012    0.00207
        778    56 -109.076001 -109.077369    0.001367   8.626    0.00012    0.00206
        779    56 -109.076002 -109.077374    0.001372   8.626    0.00012    0.00205
        780    56 -109.076003 -109.077385    0.001382   8.626    0.00012    0.00204
        781    55 -109.076003 -109.077399    0.001396   8.626    0.00012    0.00203
        782    56 -109.076003 -109.077417    0.001413   8.626    0.00012    0.00202
        783    56 -109.076004 -109.077436    0.001432   8.626    0.00012    0.00201
        784    56 -109.076004 -109.077456    0.001452   8.626    0.00012    0.00200
        785    56 -109.076004 -109.077477    0.001473   8.626    0.00012    0.00199
        786    56 -109.076004 -109.077496    0.001492   8.626    0.00011    0.00198
[...]
       3016    42 -109.094651 -109.094612    0.000039   2.996    0.00001    0.00002
       3017    42 -109.094652 -109.094601    0.000051   2.996    0.00001    0.00002
       3018    42 -109.094653 -109.094595    0.000058   2.996    0.00001    0.00003
       3019    41 -109.094654 -109.094592    0.000062   2.996    0.00001    0.00002
       3020    39 -109.094655 -109.094593    0.000062   2.996    0.00001    0.00002
       3021    38 -109.094656 -109.094596    0.000061   2.996    0.00001    0.00002
       3022    38 -109.094657 -109.094600    0.000057   2.996    0.00001    0.00002
       3023    38 -109.094658 -109.094607    0.000051   2.996    0.00001    0.00002
       3024    38 -109.094658 -109.094615    0.000043   2.996    0.00001    0.00002
       3025    38 -109.094658 -109.094624    0.000034   2.996    0.00001    0.00002
       3026    38 -109.094658 -109.094633    0.000025   2.996    0.00001    0.00002
       3027    38 -109.094657 -109.094641    0.000016   2.996    0.00001    0.00002
       3028    38 -109.094657 -109.094647    0.000009   2.996    0.00001    0.00002
       3029    42 -109.094656 -109.094652    0.000005   2.996    0.00001    0.00002
       3030    39 -109.094656 -109.094654    0.000002   2.996    0.00001    0.00002
       3031    39 -109.094655 -109.094654    0.000001   2.996    0.00001    0.00002
       3032    42 -109.094655 -109.094653    0.000002   2.996    0.00001    0.00002
       3033    42 -109.094655 -109.094650    0.000005   2.996    0.00001    0.00002
       3034    42 -109.094654 -109.094646    0.000009   2.996    0.00001    0.00002
       3035    42 -109.094654 -109.094641    0.000013   2.996    0.00001    0.00002
       3036    42 -109.094654 -109.094636    0.000018   2.996    0.00001    0.00002
       3037    42 -109.094654 -109.094631    0.000023   2.996    0.00001    0.00002
       3038    42 -109.094655 -109.094627    0.000028   2.996    0.00001    0.00002
       3039    42 -109.094655 -109.094624    0.000031   2.996    0.00001    0.00002
       3040    42 -109.094655 -109.094621    0.000034   2.996    0.00001    0.00002
       3041    43 -109.094656 -109.094621    0.000035   2.996    0.00001    0.00002
       3042    43 -109.094656 -109.094621    0.000035   2.996    0.00001    0.00001
       3043    43 -109.094656 -109.094623    0.000033   2.996    0.00001    0.00001
       3044    40 -109.094656 -109.094626    0.000030   2.996    0.00001    0.00001
       3045    43 -109.094656 -109.094630    0.000026   2.996    0.00001    0.00001
       3046    40 -109.094656 -109.094635    0.000022   2.996    0.00001    0.00001
       3047    43 -109.094656 -109.094639    0.000017   2.996    0.00001    0.00001
       3048    42 -109.094656 -109.094643    0.000013   2.996    0.00001    0.00001
       3049    42 -109.094656 -109.094647    0.000009   2.996    0.00001    0.00001
       3050    41 -109.094656 -109.094649    0.000007   2.996    0.00001    0.00001
       3051    42 -109.094656 -109.094651    0.000004   2.996    0.00001    0.00001
       3052    42 -109.094655 -109.094652    0.000004   2.996    0.00001    0.00001
       3053    42 -109.094655 -109.094652    0.000003   2.996    0.00001    0.00001
       3054    42 -109.094655 -109.094651    0.000004   2.996    0.00001    0.00001
       3055    42 -109.094655 -109.094650    0.000005   2.996    0.00001    0.00001
       3056    42 -109.094655 -109.094648    0.000007   2.996    0.00001    0.00001
       3057    42 -109.094655 -109.094647    0.000008   2.996    0.00001    0.00001
       3058    42 -109.094655 -109.094645    0.000010   2.996    0.00001    0.00001
       3059    42 -109.094655 -109.094644    0.000011   2.996    0.00001    0.00001
       3060    42 -109.094655 -109.094643    0.000011   2.996    0.00001    0.00001
       3061    42 -109.094655 -109.094643    0.000012   2.996    0.00001    0.00001
       3062    41 -109.094655 -109.094643    0.000012   2.996    0.00001    0.00001
       3063    40 -109.094655 -109.094644    0.000011   2.996    0.00001    0.00001
       3064    40 -109.094655 -109.094644    0.000010   2.996    0.00001    0.00001
       3065    40 -109.094655 -109.094645    0.000010   2.996    0.00001    0.00001

        ==> Orbital Optimization <==

            Orbital Optimization converged in   1 iterations 
            Total energy change: -1.232934e-09
            Final gradient norm: 3.116779e-05


      v2RDM iterations converged!

      v2RDM total spin [S(S+1)]:            -0.000001
    * v2RDM total energy:           -109.094654952539


 # Natural Orbital Occupation Numbers (alpha) #
 Irrep: 1
      1:  1.0000000
      2:  1.0000000
      3:  0.9906035
      4:  0.0000000
      5:  0.0000000
      6:  0.0000000
      7:  0.0000000

 Irrep: 2
      1:  0.0000000

 Irrep: 3
      1:  0.0326187
      2:  0.0000000
      3:  0.0000000

 Irrep: 4
      1:  0.0326187
      2:  0.0000000
      3:  0.0000000

 Irrep: 5
      1:  0.0000000

 Irrep: 6
      1:  1.0000000
      2:  1.0000000
      3:  0.0093995
      4:  0.0000000
      5:  0.0000000
      6:  0.0000000
      7:  0.0000000

 Irrep: 7
      1:  0.9673798
      2:  0.0000000
      3:  0.0000000

 Irrep: 8
      1:  0.9673798
      2:  0.0000000
      3:  0.0000000


 # Natural Orbital Occupation Numbers (beta) #
 Irrep: 1
      1:  1.0000000
      2:  1.0000000
      3:  0.9906035
      4:  0.0000000
      5:  0.0000000
      6:  0.0000000
      7:  0.0000000

 Irrep: 2
      1:  0.0000000

 Irrep: 3
      1:  0.0326187
      2:  0.0000000
      3:  0.0000000

 Irrep: 4
      1:  0.0326187
      2:  0.0000000
      3:  0.0000000

 Irrep: 5
      1:  0.0000000

 Irrep: 6
      1:  1.0000000
      2:  1.0000000
      3:  0.0093995
      4:  0.0000000
      5:  0.0000000
      6:  0.0000000
      7:  0.0000000

 Irrep: 7
      1:  0.9673798
      2:  0.0000000
      3:  0.0000000

 Irrep: 8
      1:  0.9673798
      2:  0.0000000
      3:  0.0000000


  ==> Iteration count <==

      Microiterations:                  146668
      Macroiterations:                    3066
      Orbital optimization steps:            7

  ==> Wall time <==

      Microiterations:                    5.59 s
      Macroiterations:                    2.47 s
      Orbital optimization:               0.14 s
      Total:                              8.43 s


*** tstop() called on dhcp189-136.emerson.emory.edu at Tue May 10 15:46:58 2016
Module time:
	user time   =       8.40 seconds =       0.14 minutes
	system time =       0.04 seconds =       0.00 minutes
	total time  =          8 seconds =       0.13 minutes
Total time:
	user time   =       8.52 seconds =       0.14 minutes
	system time =       0.06 seconds =       0.00 minutes
	total time  =          8 seconds =       0.13 minutes
	SCF total energy..................................................PASSED
	v2RDM-CASSCF total energy.........................................PASSED

Reading options from the FORTE block
Calling plugin /Users/ChenyangLi/src/forte/forte.so.




  ==> MO Space Information <==

  Read options for space FROZEN_DOCC
  Read options for space RESTRICTED_DOCC
  Read options for space ACTIVE
  Read options for space RESTRICTED_UOCC
 Removing orbital 0
 Removing orbital 15
  -------------------------------------------------------------------------
                       Ag   B1g   B2g   B3g    Au   B1u   B2u   B3u   Sum
  -------------------------------------------------------------------------
    FROZEN_DOCC         1     0     0     0     0     1     0     0     2
    RESTRICTED_DOCC     1     0     0     0     0     1     0     0     2
    ACTIVE              1     0     1     1     0     1     1     1     6
    RESTRICTED_UOCC     4     1     2     2     1     4     2     2    18
    FROZEN_UOCC         0     0     0     0     0     0     0     0     0
    Total               7     1     3     3     1     7     3     3    28
  -------------------------------------------------------------------------

  ==> Integral Transformation <==

  Number of molecular orbitals:               28
  Number of correlated molecular orbitals:    26
  Number of frozen occupied orbitals:          2
  Number of frozen unoccupied orbitals:        0


  Overall Conventional Integrals timings

	Presorting SO-basis two-electron integrals.
	Sorting File: SO Ints (nn|nn) nbuckets = 1
	Transforming the one-electron integrals and constructing Fock matrices
	Starting first half-transformation.
	Sorting half-transformed integrals.
	First half integral transformation complete.
	Starting second half-transformation.
	Two-electron integral transformation complete.

  Integral transformation done. 0.01249000 s
  Reading the two-electron integrals from disk
  Size of two-electron integrals:   0.013739 GB
  Frozen-core energy           -101.010386849034 a.u.

 FrozenOneBody Operator takes  0.06466000 s
  Resorting integrals after freezing core.
  Conventional integrals take 0.14461700 s

                           --------------------------
                             V2RDM-CASSCF Interface
                           --------------------------

  Testing if 2RDM files exist                   ...    OK.
  Reading 2RDMs                                 ...    Done.
  Computing 1RDM                                ...    Done.
  Computing reference energy                    ...    Done.
  Converting to Reference                       ...    Done.

              ----------------------------------------------------
                 Driven Similarity Renormalization Group MBPT2
                Chenyang Li, Kevin Hannon, Francesco Evangelista
              ----------------------------------------------------


  ==> Checking Orbitals <==

    Checking if orbitals are semi-canonicalized ...
    Warning! Orbitals are not semi-canonicalized!
    Off-Diagonal norms of the core, active, virtual blocks of Fock matrix
                  core          active         virtual
    ---------------------------------------------------
    Fa    0.0000000000    0.0000000000    0.3880294849
    Fb    0.0000000000    0.0000000000    0.3880294849
    ---------------------------------------------------

    Orbital invariant formulasm is employed for DSRG-MRPT2.

  ==> Calculation Information <==

    ntamp                                           15
    flow parameter                           1.000e+00
    taylor expansion threshold               1.000e-03
    intruder_tamp                            1.000e-01
    int_type                                CONVENTIONAL
    source operator                           STANDARD
    reference relaxation                          NONE

  ==> Computing DSRG-MRPT2 ... <==

    Computing T2 amplitudes                  ...  Done. Timing        0.107377 s
    Computing T1 amplitudes                  ...  Done. Timing        0.006243 s
    Renormalizing two-electron integrals     ...  Done. Timing        0.105741 s
    Renormalizing Fock matrix elements       ...  Done. Timing        0.006342 s
    Computing <[F, T1]>                      ...  Done. Timing        0.000575 s
    Computing <[F, T2]>                      ...  Done. Timing        0.001354 s
    Computing <[V, T1]>                      ...  Done. Timing        0.001334 s
    Computing <[V, T2]> (C_2)^4              ...  Done. Timing        0.009352 s
    Computing <[V, T2]> C_4 (C_2)^2 HH       ...  Done. Timing        0.003170 s
    Computing <[V, T2]> C_4 (C_2)^2 PP       ...  Done. Timing        0.002843 s
    Computing <[V, T2]> C_4 (C_2)^2 PH       ...  Done. Timing        0.009012 s
    Computing <[V, T2]> C_6 C_2              ...  Done. Timing        0.000012 s

  ==> Excitation Amplitudes Summary <==

    Active Indices:    1    7   10   15   20   23 
    Largest T1 amplitudes for spin case A:
       i       a                  i       a                  i       a               
    --------------------------------------------------------------------------------
    [ 15      19    ] 0.268924 [  7       8    ]-0.157807 [ 10      11    ]-0.157806 
    [ 15      16    ] 0.111122 [ 10      12    ]-0.061083 [  7       9    ]-0.061081 
    [ 23      24    ]-0.017329 [ 20      21    ]-0.017329 [ 20      22    ]-0.008119 
    [ 23      25    ]-0.008119 [ 15      17    ] 0.007391 [  0       1    ]-0.005816 
    [  1       2    ]-0.004135 [  1       5    ]-0.003033 [ 14      15    ] 0.001619 
    --------------------------------------------------------------------------------
    Norm of T1A vector: (nonzero elements: 26)                    0.377871533481663.
    --------------------------------------------------------------------------------
    Largest T1 amplitudes for spin case B:
       _       _                  _       _                  _       _               
       i       a                  i       a                  i       a               
    --------------------------------------------------------------------------------
    [ 15      19    ] 0.268924 [  7       8    ]-0.157807 [ 10      11    ]-0.157806 
    [ 15      16    ] 0.111122 [ 10      12    ]-0.061083 [  7       9    ]-0.061081 
    [ 23      24    ]-0.017329 [ 20      21    ]-0.017329 [ 20      22    ]-0.008119 
    [ 23      25    ]-0.008119 [ 15      17    ] 0.007391 [  0       1    ]-0.005816 
    [  1       2    ]-0.004135 [  1       5    ]-0.003033 [ 14      15    ] 0.001619 
    --------------------------------------------------------------------------------
    Norm of T1B vector: (nonzero elements: 26)                    0.377871533481663.
    --------------------------------------------------------------------------------
    Largest T2 amplitudes for spin case AA:
       i   j   a   b              i   j   a   b              i   j   a   b           
    --------------------------------------------------------------------------------
    [ 15  20  15  21]-0.093310 [ 15  23  15  24]-0.093310 [  1  23   1  24]-0.081169 
    [  1  20   1  21]-0.081169 [  7  20   7  21]-0.071336 [ 10  23  10  24]-0.071336 
    [ 14  15  15  16] 0.064787 [ 20  23  20  24]-0.061743 [ 20  23  21  23]-0.061743 
    [  7  15   8  15]-0.061372 [ 10  15  11  15]-0.061372 [  1   7   1   8]-0.057988 
    [  1  10   1  11]-0.057988 [  1  14   1  16]-0.056799 [  0  15   3  15] 0.053545 
    --------------------------------------------------------------------------------
    Norm of T2AA vector: (nonzero elements: 3990)                 0.896233604838542.
    --------------------------------------------------------------------------------
    Largest T2 amplitudes for spin case AB:
           _       _                  _       _                  _       _           
       i   j   a   b              i   j   a   b              i   j   a   b           
    --------------------------------------------------------------------------------
    [ 15  23  15  24]-0.108359 [ 15  20  15  21]-0.108359 [  1  23   1  24]-0.099503 
    [  1  20   1  21]-0.099503 [  1   1   1   2]-0.089634 [  1  15   2  15]-0.087074 
    [  7  23   7  24]-0.085337 [ 10  20  10  21]-0.085337 [ 15  15  15  19] 0.079928 
    [  1  15   1  19] 0.076784 [  7  20   7  21]-0.076442 [ 10  23  10  24]-0.076442 
    [  7  15   8  15]-0.071388 [ 10  15  11  15]-0.071388 [ 23  23  23  24]-0.068996 
    --------------------------------------------------------------------------------
    Norm of T2AB vector: (nonzero elements: 4696)                 0.890571498386155.
    --------------------------------------------------------------------------------
    Largest T2 amplitudes for spin case BB:
       _   _   _   _              _   _   _   _              _   _   _   _           
       i   j   a   b              i   j   a   b              i   j   a   b           
    --------------------------------------------------------------------------------
    [ 15  20  15  21]-0.093310 [ 15  23  15  24]-0.093310 [  1  23   1  24]-0.081169 
    [  1  20   1  21]-0.081169 [  7  20   7  21]-0.071336 [ 10  23  10  24]-0.071336 
    [ 14  15  15  16] 0.064787 [ 20  23  20  24]-0.061743 [ 20  23  21  23]-0.061743 
    [  7  15   8  15]-0.061372 [ 10  15  11  15]-0.061372 [  1   7   1   8]-0.057988 
    [  1  10   1  11]-0.057988 [  1  14   1  16]-0.056799 [  0  15   3  15] 0.053545 
    --------------------------------------------------------------------------------
    Norm of T2BB vector: (nonzero elements: 3986)                 0.896233604838542.
    --------------------------------------------------------------------------------

  ==> Possible Intruders <==

    T1 amplitudes larger than 0.1000 for spin case A:
        Amplitude         Value                  Denominator              
    ----------------------------------------------------------------------
    [ 15      19    ]    0.26892391 (  1.271926 -   3.166295 =  -1.894368)
    [  7       8    ]   -0.15780689 (  0.304359 -   0.937339 =  -0.632980)
    [ 10      11    ]   -0.15780615 (  0.304359 -   0.937339 =  -0.632980)
    [ 15      16    ]    0.11112214 (  1.271926 -   0.710656 =   0.561270)
    ----------------------------------------------------------------------
    T1 amplitudes larger than 0.1000 for spin case B:
        Amplitude         Value                  Denominator              
    ----------------------------------------------------------------------
    [ 15      19    ]    0.26892391 (  1.271926 -   3.166295 =  -1.894368)
    [  7       8    ]   -0.15780689 (  0.304359 -   0.937339 =  -0.632980)
    [ 10      11    ]   -0.15780615 (  0.304359 -   0.937339 =  -0.632980)
    [ 15      16    ]    0.11112214 (  1.271926 -   0.710656 =   0.561270)
    ----------------------------------------------------------------------
    T2 amplitudes larger than 0.1000 for spin case AA: NULL
    T2 amplitudes larger than 0.1000 for spin case AB:
        Amplitude         Value                               Denominator                           
    ------------------------------------------------------------------------------------------------
    [ 15  23  15  24]   -0.10835927 (  1.271926 +  -0.582819 -   1.271926 -   0.879571 =  -1.462391)
    [ 15  20  15  21]   -0.10835927 (  1.271926 +  -0.582820 -   1.271926 -   0.879571 =  -1.462391)
    ------------------------------------------------------------------------------------------------
    T2 amplitudes larger than 0.1000 for spin case BB: NULL

  ==> DSRG-MRPT2 Energy Summary <==

    E0 (reference)                 =   -109.094651237396761
    <[F, T1]>                      =     -0.016862826924605
    <[F, T2]>                      =      0.012181829030864
    <[V, T1]>                      =      0.014420446948472
    <[V, T2]> (C_2)^4              =     -0.202651601345086
    <[V, T2]> C_4 (C_2)^2 HH       =      0.003504443732812
    <[V, T2]> C_4 (C_2)^2 PP       =      0.014010630533804
    <[V, T2]> C_4 (C_2)^2 PH       =      0.024429212216249
    <[V, T2]> C_6 C_2              =      0.000000000000000
    <[V, T2]>                      =     -0.160707314862221
    DSRG-MRPT2 correlation energy  =     -0.150967865807489
    DSRG-MRPT2 total energy        =   -109.245619103204248
    max(T1)                        =      0.268923912930988
    max(T2)                        =      0.108359273355200
    ||T1||                         =      0.534391047484487
    ||T2||                         =      2.186078617944656

  Energy took 0.26631000 s

  ==> Total Timings (s) for Computing Commutators <==

             [H1, T1]    [H1, T2]    [H2, T1]    [H2, T2]
    -----------------------------------------------------
    -> C0       0.001       0.001       0.001       0.024
    -> C1       0.000       0.000       0.000       0.000
    -> C2                   0.000       0.000       0.000
    -----------------------------------------------------


  Your calculation took 0.43329900 seconds
	DSRG-MRPT2 total energy...........................................PASSED

*** PSI4 exiting successfully. Buy a developer a beer!
