    -----------------------------------------------------------------------
          Psi4: An Open-Source Ab Initio Electronic Structure Package
                              Psi4 1.0rc128 Driver

                          Git: Rev {master} 00a658f 

    J. M. Turney, A. C. Simmonett, R. M. Parrish, E. G. Hohenstein,
    F. A. Evangelista, J. T. Fermann, B. J. Mintz, L. A. Burns, J. J. Wilke,
    M. L. Abrams, N. J. Russ, M. L. Leininger, C. L. Janssen, E. T. Seidl,
    W. D. Allen, H. F. Schaefer, R. A. King, E. F. Valeev, C. D. Sherrill,
    and T. D. Crawford, WIREs Comput. Mol. Sci. 2, 556-565 (2012)
    (doi: 10.1002/wcms.93)

                         Additional Contributions by
    A. E. DePrince, U. Bozkaya, A. Yu. Sokolov, D. G. A. Smith, R. Di Remigio,
    R. M. Richard, J. F. Gonthier, H. R. McAlexander, M. Saitow, and
    B. P. Pritchard
    -----------------------------------------------------------------------


    Psi4 started on: Thu Jul 14 15:13:44 2016

    Process ID:  39715
    PSI4DATADIR: /Users/zxu66/src/psi4public/share
    Memory level set to 256.000 MB

  ==> Input File <==

--------------------------------------------------------------------------
#! Generated using commit GITCOMMIT

import forte

refcasscf    = -108.789661408880420
Esrgpt2_mb   = -108.964152102097472

memory 50 mb

molecule HF{
  0 1
  N
  N  1 R
  R = 2.00
}

set globals{
  basis                  cc-pvdz
  reference              rhf
  scf_type               out_of_core
  maxiter                300
  e_convergence          10
  d_convergence          8
  docc                   [3,0,0,0,0,2,1,1]
  restricted_docc        [2,0,0,0,0,2,0,0]
  active                 [1,0,1,1,0,1,1,1]
  mcscf_maxiter          100
  mcscf_r_convergence    8
  mcscf_e_convergence    10
}

set forte{
  job_type           mrdsrg
  corr_level         srg_pt2
  frozen_docc        [1,0,0,0,0,1,0,0]
  frozen_uocc        [0,0,0,0,0,0,0,0]
  restricted_docc    [1,0,0,0,0,1,0,0]
  active             [1,0,1,1,0,1,1,1]
  root_sym           0
  nroot              1
  dsrg_s             0.5
  maxiter            100
  e_convergence      8
}

Ecas, wfn = energy('casscf', return_wfn=True)
compare_values(refcasscf,get_variable("CURRENT ENERGY"),10,"CASSCF energy") #TEST

Esrgpt2_ode = energy('forte', ref_wfn=wfn)
compare_values(Esrgpt2_mb,Esrgpt2_ode,6,"SRG-MRPT2 energy") #TEST
--------------------------------------------------------------------------
/Users/zxu66/src/v2rdm_casscf/v2rdm_casscf.so loaded.
/Users/zxu66/src/forte/forte.so loaded.

  Memory set to  50.000 MiB by Python script.

*** tstart() called on che-zxu66-01i
*** at Thu Jul 14 15:13:45 2016


         ---------------------------------------------------------
                                   SCF
            by Justin Turney, Rob Parrish, and Andy Simmonett
                              RHF Reference
                        1 Threads,     50 MiB Core
         ---------------------------------------------------------

  ==> Geometry <==

    Molecular point group: d2h
    Full point group: D_inf_h

    Geometry (in Angstrom), charge = 0, multiplicity = 1:

       Center              X                  Y                   Z               Mass       
    ------------   -----------------  -----------------  -----------------  -----------------
           N          0.000000000000     0.000000000000    -1.000000000000    14.003074004780
           N          0.000000000000     0.000000000000     1.000000000000    14.003074004780

  Running in d2h symmetry.

  Rotational constants: A = ************  B =      0.60193  C =      0.60193 [cm^-1]
  Rotational constants: A = ************  B =  18045.28794  C =  18045.28794 [MHz]
  Nuclear repulsion =   12.964841610454998

  Charge       = 0
  Multiplicity = 1
  Electrons    = 14
  Nalpha       = 7
  Nbeta        = 7

  ==> Algorithm <==

  SCF Algorithm Type is OUT_OF_CORE.
  DIIS enabled.
  MOM disabled.
  Fractional occupation disabled.
  Guess Type is SAD.
  Energy threshold   = 1.00e-10
  Density threshold  = 1.00e-08
  Integral threshold = 0.00e+00

  ==> Primary Basis <==

  Basis Set: CC-PVDZ
    Number of shells: 12
    Number of basis function: 28
    Number of Cartesian functions: 30
    Spherical Harmonics?: true
    Max angular momentum: 2

  ==> Pre-Iterations <==

   -------------------------------------------------------
    Irrep   Nso     Nmo     Nalpha   Nbeta   Ndocc  Nsocc
   -------------------------------------------------------
     Ag         7       7       3       3       3       0
     B1g        1       1       0       0       0       0
     B2g        3       3       0       0       0       0
     B3g        3       3       0       0       0       0
     Au         1       1       0       0       0       0
     B1u        7       7       2       2       2       0
     B2u        3       3       1       1       1       0
     B3u        3       3       1       1       1       0
   -------------------------------------------------------
    Total      28      28       7       7       7       0
   -------------------------------------------------------

  ==> Integral Setup <==

  ==> DiskJK: Disk-Based J/K Matrices <==

    J tasked:                  Yes
    K tasked:                  Yes
    wK tasked:                  No
    Memory (MB):                35
    Schwarz Cutoff:          1E-12

  Minimum eigenvalue in the overlap matrix is 7.6048492079E-02.
  Using Symmetric Orthogonalization.
  SCF Guess: Superposition of Atomic Densities via on-the-fly atomic UHF.

  ==> Iterations <==

                        Total Energy        Delta E     RMS |[F,P]|

   @RHF iter   0:  -107.70305487004273   -1.07703e+02   2.81433e-02 
   @RHF iter   1:  -108.31632268873217   -6.13268e-01   1.39848e-02 
   @RHF iter   2:  -108.32949177603219   -1.31691e-02   3.19855e-03 DIIS
   @RHF iter   3:  -108.33046563334607   -9.73857e-04   9.06759e-04 DIIS
   @RHF iter   4:  -108.33058212694114   -1.16494e-04   7.95278e-05 DIIS
   @RHF iter   5:  -108.33058273991473   -6.12974e-07   1.00258e-05 DIIS
   @RHF iter   6:  -108.33058274865395   -8.73922e-09   1.32910e-06 DIIS
   @RHF iter   7:  -108.33058274887803   -2.24077e-10   9.84757e-08 DIIS
   @RHF iter   8:  -108.33058274887914   -1.10845e-12   5.83183e-09 DIIS

  ==> Post-Iterations <==

    Orbital Energies (a.u.)
    -----------------------

    Doubly Occupied:                                                      

       1Ag   -15.825404     1B1u  -15.825114     2Ag    -1.096660  
       2B1u   -0.965744     3Ag    -0.477196     1B2u   -0.400541  
       1B3u   -0.400541  

    Virtual:                                                              

       1B3g   -0.083332     1B2g   -0.083332     3B1u    0.039530  
       2B3u    0.878195     2B2u    0.878195     4B1u    0.895961  
       4Ag     0.950937     2B3g    0.990302     2B2g    0.990302  
       5Ag     1.087967     5B1u    1.329344     6Ag     1.793671  
       3B2u    1.887539     3B3u    1.887539     1B1g    1.972674  
       7Ag     1.972674     1Au     2.008888     6B1u    2.008888  
       3B2g    2.141040     3B3g    2.141040     7B1u    2.641581  

    Final Occupation by Irrep:
             Ag   B1g   B2g   B3g    Au   B1u   B2u   B3u 
    DOCC [     3,    0,    0,    0,    0,    2,    1,    1 ]

  Energy converged.

  @RHF Final Energy:  -108.33058274887914

   => Energetics <=

    Nuclear Repulsion Energy =             12.9648416104549984
    One-Electron Energy =                -172.6084511215641157
    Two-Electron Energy =                  51.3130267622299669
    DFT Exchange-Correlation Energy =       0.0000000000000000
    Empirical Dispersion Energy =           0.0000000000000000
    PCM Polarization Energy =               0.0000000000000000
    EFP Energy =                            0.0000000000000000
    Total Energy =                       -108.3305827488791380


  Saving occupied orbitals to File 180.

*** tstop() called on che-zxu66-01i at Thu Jul 14 15:13:45 2016
Module time:
	user time   =       0.23 seconds =       0.00 minutes
	system time =       0.04 seconds =       0.00 minutes
	total time  =          0 seconds =       0.00 minutes
Total time:
	user time   =       0.23 seconds =       0.00 minutes
	system time =       0.04 seconds =       0.00 minutes
	total time  =          0 seconds =       0.00 minutes


Properties will be evaluated at   0.000000,   0.000000,   0.000000 Bohr

Properties computed using the SCF density matrix

  Nuclear Dipole Moment: (a.u.)
     X:     0.0000      Y:     0.0000      Z:     0.0000

  Electronic Dipole Moment: (a.u.)
     X:     0.0000      Y:     0.0000      Z:     0.0000

  Dipole Moment: (a.u.)
     X:     0.0000      Y:     0.0000      Z:     0.0000     Total:     0.0000

  Dipole Moment: (Debye)
     X:     0.0000      Y:     0.0000      Z:     0.0000     Total:     0.0000


         ---------------------------------------------------------
                                 D E T C I  

                             C. David Sherrill
                             Matt L. Leininger
                               18 June 1999
         ---------------------------------------------------------


DETCI PARAMETERS: 
   EX LEVEL      =        6      H0 BLOCKSIZE =     1000
   VAL EX LEVEL  =        0      H0 GUESS SIZE=     1000
   H0COUPLINGSIZE=        0      H0 COUPLING  =       no
   MAXITER       =       12      NUM PRINT    =       20
   NUM ROOTS     =        1      ICORE        =        1
   PRINT         =        1      FCI          =      yes
   R CONV        = 1.00e-07      MIXED        =      yes
   E CONV        = 1.00e-10      MIXED4       =      yes
   R4S           =       no      REPL OTF     =       no
   DIAG METHOD   =      SEM
   PRECONDITIONER= DAVIDSON      UPDATE       = DAVIDSON
   S             =   0.0000      Ms0          =      yes
   MAX NUM VECS  =       13
   RESTART       =       no
   GUESS VECTOR  =   D FILE      OPENTYPE     =     NONE
   REF SYM       =     auto
   COLLAPSE SIZE =        1      HD AVG       = EVANGELISTI
   LSE           =       no      LSE ITER     =        0
   HD OTF        =      yes      NO DFILE     =       no
   MPN           =       no      MPN SCHMIDT  =       no
   ZAPTN         =       no      MPN WIGNER   =       no
   PERT Z        =   1.0000      FOLLOW ROOT  =        0
   NUM THREADS   =        1
   FILTER GUESS  =       no      SF RESTRICT  =       no
   OPDM          =      yes      TRANS DENSITY=       no

   FILES         =  50 51 52 53

   EX ALLOW      =  1  1  1  1  1  1 
   STATE AVERAGE =  1(1.00) 

ORBITALS:
   NMO          =       28
   FROZEN CORE  =        0      RESTR CORE   =        4
   FROZEN VIRT  =        0      RESTR VIRT   =       18
   DROPPED CORE =        4      DROPPED VIRT =       18
   EXPLICIT CORE=        0      ORBS IN CI   =        6
   NUM ALP      =        7      NUM BET      =        7
   NUM ALP EXPL =        3      NUM BET EXPL =        3
   IOPEN        =       no

   DOCC            =   3   0   0   0   0   2   1   1 
   SOCC            =   0   0   0   0   0   0   0   0 

   FROZEN DOCC     =   0   0   0   0   0   0   0   0 
   RESTRICTED DOCC =   2   0   0   0   0   2   0   0 
   ACTIVE          =   1   0   1   1   0   1   1   1 
   RESTRICTED UOCC =   4   1   2   2   1   4   2   2 
   FROZEN UOCC     =   0   0   0   0   0   0   0   0 
         ---------------------------------------------------------


   ==> Setting up CI strings <==

   There are 20 alpha and 20 beta strings
   The CI space requires 56 (5.60E+01) determinants and 8 blocks


   ==> Setting up MCSCF integrals <==


   ==> Starting MCSCF iterations <==

                        Total Energy        Delta E      RMS Grad   NCI

   @MCSCF Iter   1:  -108.74113356902225   -4.1055e-01   6.8696e-02   1   Initial CI
   @MCSCF Iter   2:  -108.78708064739237   -4.5947e-02   2.2106e-02  12   APPROX
   @MCSCF Iter   3:  -108.78929478010181   -2.2141e-03   6.7626e-03  10   APPROX
   @MCSCF Iter   4:  -108.78956735066684   -2.7257e-04   2.6546e-03  10   APPROX
   @MCSCF Iter   5:  -108.78962504846881   -5.7698e-05   1.3348e-03  10   APPROX, DIIS
   @MCSCF Iter   6:  -108.78965729982964   -3.2251e-05   4.8260e-04  10   APPROX, DIIS
   @MCSCF Iter   7:  -108.78966137881491   -4.0790e-06   5.5307e-05   9   APPROX, DIIS
   @MCSCF Iter   8:  -108.78966140833525   -2.9520e-08   7.6041e-06   7   APPROX, DIIS
   @MCSCF Iter   9:  -108.78966140887037   -5.3512e-10   1.1869e-06   5   APPROX, DIIS
   @MCSCF Iter  10:  -108.78966140887994   -9.5639e-12   1.9667e-07   2   APPROX, DIIS
   @MCSCF Iter  11:  -108.78966140888024   -2.9843e-13   2.7004e-08   2   APPROX, DIIS
   @MCSCF Iter  12:  -108.78966140888026   -2.8422e-14   3.8526e-09   1   APPROX, DIIS

       MCSCF has converged!

   @MCSCF Final Energy:  -108.789661408880264


   => Energetics <=

   SCF energy =             -108.330582748879138
   Total CI energy =        -108.789661408880264


   CI Root  1 energy =      -108.789661408880264


The 20 most important determinants

*   1    0.559040  (    5,    5)  3AgX  1B2uX  1B3uX  
*   2   -0.347126  (   12,   12)  3AgX  1B3gX  1B3uX  
*   3   -0.347126  (   11,   11)  3AgX  1B2gX  1B2uX  
*   4    0.241081  (    2,    2)  3AgX  1B2gX  1B3gX  
*   5    0.214287  (   14,   15)  3AgX  1B2gB  1B3gA  1B2uA  1B3uB  
*   6    0.214287  (   15,   14)  3AgX  1B2gA  1B3gB  1B2uB  1B3uA  
*   7   -0.176035  (   13,   13)  3B1uX  1B2uX  1B3uX  
*   8    0.140153  (    4,    4)  1B3gX  3B1uX  1B3uX  
*   9    0.140153  (    3,    3)  1B2gX  3B1uX  1B2uX  
*  10   -0.127270  (   10,   10)  1B2gX  1B3gX  3B1uX  
*  11    0.123433  (   11,   12)  3AgX  1B2gA  1B3gB  1B2uA  1B3uB  
*  12    0.123433  (   12,   11)  3AgX  1B2gB  1B3gA  1B2uB  1B3uA  
*  13    0.119031  (    6,    7)  3AgA  1B3gB  3B1uA  1B2uB  1B3uX  
*  14    0.119031  (    7,    6)  3AgB  1B3gA  3B1uB  1B2uA  1B3uX  
*  15   -0.119031  (    8,    9)  3AgA  1B2gB  3B1uA  1B2uX  1B3uB  
*  16   -0.119031  (    9,    8)  3AgB  1B2gA  3B1uB  1B2uX  1B3uA  
*  17   -0.090854  (    2,    5)  3AgX  1B2gA  1B3gA  1B2uB  1B3uB  
*  18   -0.090854  (    5,    2)  3AgX  1B2gB  1B3gB  1B2uA  1B3uA  
*  19    0.087663  (   18,   19)  3AgA  1B2gX  1B3gB  3B1uA  1B2uB  
*  20    0.087663  (   19,   18)  3AgB  1B2gX  1B3gA  3B1uB  1B2uA  




Properties will be evaluated at   0.000000,   0.000000,   0.000000 Bohr

Properties computed using the CASSCF density matrix

  Nuclear Dipole Moment: (a.u.)
     X:     0.0000      Y:     0.0000      Z:     0.0000

  Electronic Dipole Moment: (a.u.)
     X:     0.0000      Y:     0.0000      Z:     0.0000

  Dipole Moment: (a.u.)
     X:     0.0000      Y:     0.0000      Z:     0.0000     Total:     0.0000

  Dipole Moment: (Debye)
     X:     0.0000      Y:     0.0000      Z:     0.0000     Total:     0.0000

	CASSCF energy.....................................................PASSED

Reading options from the FORTE block
Calling plugin /Users/zxu66/src/forte/forte.so.




  ==> MO Space Information <==

  Read options for space FROZEN_DOCC
  Read options for space RESTRICTED_DOCC
  Read options for space ACTIVE
  Read options for space FROZEN_UOCC
 Removing orbital 0
 Removing orbital 15
  -------------------------------------------------------------------------
                       Ag   B1g   B2g   B3g    Au   B1u   B2u   B3u   Sum
  -------------------------------------------------------------------------
    FROZEN_DOCC         1     0     0     0     0     1     0     0     2
    RESTRICTED_DOCC     1     0     0     0     0     1     0     0     2
    ACTIVE              1     0     1     1     0     1     1     1     6
    RESTRICTED_UOCC     4     1     2     2     1     4     2     2    18
    FROZEN_UOCC         0     0     0     0     0     0     0     0     0
    Total               7     1     3     3     1     7     3     3    28
  -------------------------------------------------------------------------

  ==> Integral Transformation <==

  Number of molecular orbitals:               28
  Number of correlated molecular orbitals:    26
  Number of frozen occupied orbitals:          2
  Number of frozen unoccupied orbitals:        0


  Overall Conventional Integrals timings

	Presorting SO-basis two-electron integrals.
	Sorting File: SO Ints (nn|nn) nbuckets = 1
	Transforming the one-electron integrals and constructing Fock matrices
	Starting first half-transformation.
	Sorting half-transformed integrals.
	First half integral transformation complete.
	Starting second half-transformation.
	Two-electron integral transformation complete.

  Integral transformation done. 0.16590000 s
  Reading the two-electron integrals from disk
  Size of two-electron integrals:   0.013739 GB
  Frozen-core energy            -95.815857418760 a.u.

 FrozenOneBody Operator takes  0.22316800 s
  Resorting integrals after freezing core.
  Conventional integrals take 0.64978200 s

                -----------------------------------------------
                  String-based Full Configuration Interaction
                          by Francesco A. Evangelista
                -----------------------------------------------

  Number of electrons: 14
  Charge: 0
  Multiplicity: 1
  Davidson subspace max dim: 8
  Davidson subspace min dim: 2
  M_s: 0

  ==> String Lists <==

  Number of alpha electrons     = 3
  Number of beta electrons      = 3
  Number of alpha strings       = 20
  Number of beta strings        = 20
  Number of alpha strings (N-3) = 1
  Number of beta strings (N-3)  = 1
  Timing for strings        =      0.000 s
  Timing for NN strings     =      0.000 s
  Timing for VO strings     =      0.001 s
  Timing for OO strings     =      0.000 s
  Timing for Knowles-Handy  =      0.000 s
  Timing for VVOO strings   =      0.000 s
  Timing for VOVO strings   =      0.000 s
  Timing for 1-hole strings =      0.000 s
  Timing for 2-hole strings =      0.000 s
  Timing for 3-hole strings =      0.000 s
  Total timing              =      0.001 s

  ==> FCI Solver <==

    Number of determinants                          56
    Symmetry                                         0
    Multiplicity                                     1
    Number of roots                                  1
    Target root                                      0
    Trial vectors per root                          10

  Allocating memory for the Hamiltonian algorithm. Size: 2 x 4 x 4.   Memory: 0.000000 GB
  Initial guess space is incomplete.
  Adding 17 determinant(s).

  ==> FCI Initial Guess <==

  ---------------------------------------------
    Root            Energy     <S^2>   Spin
  ---------------------------------------------
      0     -108.701214569430  6.000  quintet
      1     -108.644037438034  0.000  singlet
      2     -108.624254322331  6.000  quintet
      3     -108.605653074942  6.000  quintet
      4     -108.597344297532  2.000  triplet
      5     -108.596253622163  2.000  triplet
      6     -108.563175063794  0.000  singlet
      7     -108.512605023694  0.000  singlet
      8     -108.508193881924  2.000  triplet
      9     -108.491292463517  2.000  triplet
     10     -108.489434487088  2.000  triplet
     11     -108.487512181540  0.000  singlet
     12     -108.437064249026  0.000  singlet
     13     -108.435338763094  0.000  singlet
     14     -108.431437760047  2.000  triplet
     15     -108.301728579735  0.000  singlet
     16     -108.257229057364  0.000  singlet
     17     -108.216059192267  0.000  singlet
     18     -108.189508247661  2.000  triplet
     19     -108.176039748404  0.000  singlet
     20     -108.158237328707  6.000  quintet
     21     -108.154835719210  6.000  quintet
     22     -108.134215003998  2.000  triplet
     23     -108.118845806020  2.000  triplet
     24     -108.108356978480  2.000  triplet
     25     -108.079366171578  2.000  triplet
     26     -108.075912852034  2.000  triplet
     27     -108.039287800425  0.000  singlet
     28     -108.037085319659  0.000  singlet
     29     -108.005151886748  0.000  singlet
     30     -107.989877052609  0.000  singlet
     31     -107.673231766282  0.000  singlet
     32     -107.520745198543  0.000  singlet
     33     -107.363929466655  2.000  triplet
     34     -107.361728836862  2.000  triplet
     35     -106.927700422559  2.000  triplet
     36     -106.057800603858  0.000  singlet
  ---------------------------------------------
  Timing for initial guess  =      0.009 s

  Projecting out root 0
  Projecting out root 2
  Projecting out root 3
  Projecting out root 4
  Projecting out root 5
  Projecting out root 8
  Projecting out root 9
  Projecting out root 10
  Projecting out root 14
  Projecting out root 18
  Projecting out root 20
  Projecting out root 21
  Projecting out root 22
  Projecting out root 23
  Projecting out root 24
  Projecting out root 25
  Projecting out root 26
  Projecting out root 33
  Projecting out root 34
  Projecting out root 35
  ==> Diagonalizing Hamiltonian <==

  ----------------------------------------
    Iter.      Avg. Energy       Delta_E
  ----------------------------------------
      1     -108.644037438034  -1.086e+02
      2     -108.728092421838  -8.405e-02
      3     -108.754149302607  -2.606e-02
      4     -108.774466924223  -2.032e-02
      5     -108.786930600313  -1.246e-02
      6     -108.789376965911  -2.446e-03
      7     -108.789607667909  -2.307e-04
      8     -108.789645185151  -3.752e-05
      9     -108.789658319669  -1.313e-05
     10     -108.789660861814  -2.542e-06
     11     -108.789661125710  -2.639e-07
     12     -108.789661370712  -2.450e-07
     13     -108.789661404325  -3.361e-08
     14     -108.789661408238  -3.914e-09
  ----------------------------------------
  The Davidson-Liu algorithm converged in 15 iterations.

  ==> Root No. 0 <==

    2 0 0 0 2 2      0.55905060
    2 0 2 0 0 2     -0.34712998
    2 2 0 0 2 0     -0.34712998
    2 2 2 0 0 0      0.24109433
    2 a b 0 b a      0.21427085
    2 b a 0 a b      0.21427085
    0 0 0 2 2 2     -0.17604387
    0 2 0 2 2 0      0.14015350
    0 0 2 2 0 2      0.14015350
    0 2 2 2 0 0     -0.12726656
    2 a b 0 a b      0.12342969
    2 b a 0 b a      0.12342969
    b 0 a b a 2      0.11902877
    b a 0 b 2 a     -0.11902877
    a b 0 a 2 b     -0.11902877
    a 0 b a b 2      0.11902877

    Total Energy:      -108.789661408238260

  ==> RDMs for Root No. 0 <==
    Timing for 1-RDM: 0.000 s

  ==> NATURAL ORBITALS <==

        1Ag     1.641664      1B3u    1.289774      1B2u    1.289774  
        1B3g    0.710225      1B2g    0.710225      1B1u    0.358339  



                          ----------------------------
                            Semi-Canonical Orbitals
                            Francesco A. Evangelista
                          ----------------------------

 Took 0.000475 s to build fock matrix

  ==> Integral transformation <==
	Presorting SO-basis two-electron integrals.
	Sorting File: SO Ints (nn|nn) nbuckets = 1
	Transforming the one-electron integrals and constructing Fock matrices
	Starting first half-transformation.
	Sorting half-transformed integrals.
	First half integral transformation complete.
	Starting second half-transformation.
	Two-electron integral transformation complete.

  Integral transformation done. 0.19298000 s
  Reading the two-electron integrals from disk
  Size of two-electron integrals:   0.013739 GB
  Frozen-core energy            -95.815857418760 a.u.

 FrozenOneBody Operator takes  0.23107700 s
  Resorting integrals after freezing core.
  Frozen Orbitals takes     0.239 s.
 SemiCanonicalize takes 0.695643 s.

                -----------------------------------------------
                  String-based Full Configuration Interaction
                          by Francesco A. Evangelista
                -----------------------------------------------

  Number of electrons: 14
  Charge: 0
  Multiplicity: 1
  Davidson subspace max dim: 8
  Davidson subspace min dim: 2
  M_s: 0

  ==> String Lists <==

  Number of alpha electrons     = 3
  Number of beta electrons      = 3
  Number of alpha strings       = 20
  Number of beta strings        = 20
  Number of alpha strings (N-3) = 1
  Number of beta strings (N-3)  = 1
  Timing for strings        =      0.000 s
  Timing for NN strings     =      0.000 s
  Timing for VO strings     =      0.000 s
  Timing for OO strings     =      0.000 s
  Timing for Knowles-Handy  =      0.000 s
  Timing for VVOO strings   =      0.000 s
  Timing for VOVO strings   =      0.000 s
  Timing for 1-hole strings =      0.000 s
  Timing for 2-hole strings =      0.000 s
  Timing for 3-hole strings =      0.000 s
  Total timing              =      0.001 s

  ==> FCI Solver <==

    Number of determinants                          56
    Symmetry                                         0
    Multiplicity                                     1
    Number of roots                                  1
    Target root                                      0
    Trial vectors per root                          10

  Allocating memory for the Hamiltonian algorithm. Size: 2 x 4 x 4.   Memory: 0.000000 GB
  Initial guess space is incomplete.
  Adding 17 determinant(s).

  ==> FCI Initial Guess <==

  ---------------------------------------------
    Root            Energy     <S^2>   Spin
  ---------------------------------------------
      0     -108.701214569430  6.000  quintet
      1     -108.644037438034  0.000  singlet
      2     -108.624254322331  6.000  quintet
      3     -108.605653074942  6.000  quintet
      4     -108.597344297532  2.000  triplet
      5     -108.596253622163  2.000  triplet
      6     -108.563175063794  0.000  singlet
      7     -108.512605023694  0.000  singlet
      8     -108.508193881924  2.000  triplet
      9     -108.491292463517  2.000  triplet
     10     -108.489434487088  2.000  triplet
     11     -108.487512181540  0.000  singlet
     12     -108.437064249026  0.000  singlet
     13     -108.435338763094  0.000  singlet
     14     -108.431437760047  2.000  triplet
     15     -108.301728579735  0.000  singlet
     16     -108.257229057364  0.000  singlet
     17     -108.216059192267  0.000  singlet
     18     -108.189508247661  2.000  triplet
     19     -108.176039748404  0.000  singlet
     20     -108.158237328707  6.000  quintet
     21     -108.154835719210  6.000  quintet
     22     -108.134215003998  2.000  triplet
     23     -108.118845806020  2.000  triplet
     24     -108.108356978480  2.000  triplet
     25     -108.079366171578  2.000  triplet
     26     -108.075912852034  2.000  triplet
     27     -108.039287800425  0.000  singlet
     28     -108.037085319659  0.000  singlet
     29     -108.005151886748  0.000  singlet
     30     -107.989877052609  0.000  singlet
     31     -107.673231766282  0.000  singlet
     32     -107.520745198543  0.000  singlet
     33     -107.363929466655  2.000  triplet
     34     -107.361728836862  2.000  triplet
     35     -106.927700422559  2.000  triplet
     36     -106.057800603858  0.000  singlet
  ---------------------------------------------
  Timing for initial guess  =      0.006 s

  Projecting out root 0
  Projecting out root 2
  Projecting out root 3
  Projecting out root 4
  Projecting out root 5
  Projecting out root 8
  Projecting out root 9
  Projecting out root 10
  Projecting out root 14
  Projecting out root 18
  Projecting out root 20
  Projecting out root 21
  Projecting out root 22
  Projecting out root 23
  Projecting out root 24
  Projecting out root 25
  Projecting out root 26
  Projecting out root 33
  Projecting out root 34
  Projecting out root 35
  ==> Diagonalizing Hamiltonian <==

  ----------------------------------------
    Iter.      Avg. Energy       Delta_E
  ----------------------------------------
      1     -108.644037438034  -1.086e+02
      2     -108.728092421838  -8.405e-02
      3     -108.754149302607  -2.606e-02
      4     -108.774466924223  -2.032e-02
      5     -108.786930600313  -1.246e-02
      6     -108.789376965911  -2.446e-03
      7     -108.789607667909  -2.307e-04
      8     -108.789645185151  -3.752e-05
      9     -108.789658319669  -1.313e-05
     10     -108.789660861814  -2.542e-06
     11     -108.789661125710  -2.639e-07
     12     -108.789661370712  -2.450e-07
     13     -108.789661404325  -3.361e-08
     14     -108.789661408238  -3.914e-09
  ----------------------------------------
  The Davidson-Liu algorithm converged in 15 iterations.

  ==> Root No. 0 <==

    2 0 0 0 2 2      0.55905060
    2 0 2 0 0 2     -0.34712998
    2 2 0 0 2 0     -0.34712998
    2 2 2 0 0 0      0.24109433
    2 a b 0 b a      0.21427085
    2 b a 0 a b      0.21427085
    0 0 0 2 2 2     -0.17604387
    0 2 0 2 2 0      0.14015350
    0 0 2 2 0 2      0.14015350
    0 2 2 2 0 0     -0.12726656
    2 a b 0 a b      0.12342969
    2 b a 0 b a      0.12342969
    b 0 a b a 2      0.11902877
    b a 0 b 2 a     -0.11902877
    a b 0 a 2 b     -0.11902877
    a 0 b a b 2      0.11902877

    Total Energy:      -108.789661408238260

  ==> RDMs for Root No. 0 <==
    Timing for 1-RDM: 0.000 s
    Timing for 2-RDM: 0.000 s
    Timing for 3-RDM: 0.003 s

  ==> NATURAL ORBITALS <==

        1Ag     1.641664      1B3u    1.289774      1B2u    1.289774  
        1B3g    0.710225      1B2g    0.710225      1B1u    0.358339  



           ----------------------------------------------------------
             Multireference Driven Similarity Renormalization Group
                                  Chenyang Li
           ----------------------------------------------------------


  ==> Calculation Information <==

    ntamp                                            15
    diis_min_vecs                                     2
    diis_max_vecs                                     5
    flow parameter                            5.000e-01
    taylor expansion threshold                1.000e-03
    intruder_tamp                             1.000e-01
    corr_level                                  SRG_PT2
    int_type                               CONVENTIONAL
    source operator                            STANDARD
    smart_dsrg_s                                 DSRG_S
    reference relaxation                           NONE
    dsrg transformation type                    UNITARY
    core virtual source type                     NORMAL

  Warning: I am forcing density Db = Da to avoid spin symmetry breaking.
  If this is not desired, go to mrdsrg.cc around line 190.

  ==> Density Cumulant Summary <==

    2-body               AA           AB           BB
    -------------------------------------------------
    max            0.153537     0.113460     0.153537
    norm           0.759917     1.344930     0.759917
    -------------------------------------------------
    3-body              AAA          AAB          ABB          BBB
    --------------------------------------------------------------
    max            0.004978     0.049327     0.049327     0.004978
    norm           0.078164     0.414212     0.414212     0.078164
    --------------------------------------------------------------

  ==> Checking Orbitals <==

    Checking if orbitals are semi-canonicalized ...     OK.
    Orbitals are semi-canonicalized.

  ==> Computing SRG-MRPT2 Energy <==

    Reference:
      J. Chem. Phys. 2016 (in preparation)

    Max s:               0.500000
    ODE algorithm:     FEHLBERG78
    Initial time step:   0.001000

                              Energy (a.u.)           Non-Diagonal Norm            
                       ---------------------------  ---------------------          
    Iter.       s            Corr.         Delta       Hbar1      Hbar2    Time (s)
    -------------------------------------------------------------------------------
        1     0.00000    0.000000000000  0.000e+00   5.463e-01  4.115e+00     0.000
        2     0.00100   -0.004081320286 -4.081e-03   5.457e-01  4.089e+00     4.046
        3     0.00531   -0.020248698921 -1.617e-02   5.429e-01  3.981e+00     3.825
        4     0.00965   -0.034473923951 -1.423e-02   5.401e-01  3.882e+00     3.874
        5     0.01411   -0.047323873813 -1.285e-02   5.373e-01  3.789e+00     3.820
        6     0.01871   -0.058960941379 -1.164e-02   5.344e-01  3.700e+00     3.799
        7     0.02345   -0.069529689301 -1.057e-02   5.314e-01  3.617e+00     3.852
        8     0.02833   -0.079152071142 -9.622e-03   5.284e-01  3.537e+00     3.859
        9     0.03337   -0.087931637474 -8.780e-03   5.253e-01  3.462e+00     3.857
       10     0.03858   -0.095956746409 -8.025e-03   5.221e-01  3.389e+00     3.828
       11     0.04397   -0.103303184022 -7.346e-03   5.189e-01  3.320e+00     3.909
       12     0.04956   -0.110036305246 -6.733e-03   5.155e-01  3.254e+00     3.805
       13     0.05535   -0.116212782041 -6.176e-03   5.121e-01  3.190e+00     3.780
       14     0.06136   -0.121882035223 -5.669e-03   5.086e-01  3.128e+00     3.775
       15     0.06762   -0.127087408525 -5.205e-03   5.050e-01  3.068e+00     3.788
       16     0.07414   -0.131867132906 -4.780e-03   5.012e-01  3.009e+00     3.841
       17     0.08094   -0.136255120869 -4.388e-03   4.974e-01  2.952e+00     3.810
       18     0.08805   -0.140281622343 -4.027e-03   4.934e-01  2.896e+00     3.792
       19     0.09550   -0.143973768159 -3.692e-03   4.893e-01  2.841e+00     3.768
       20     0.10331   -0.147356022114 -3.382e-03   4.850e-01  2.787e+00     3.751
       21     0.11153   -0.150450558766 -3.095e-03   4.806e-01  2.733e+00     3.747
       22     0.12020   -0.153277580760 -2.827e-03   4.760e-01  2.680e+00     3.776
       23     0.12937   -0.155855586857 -2.578e-03   4.712e-01  2.627e+00     3.777
       24     0.13909   -0.158201599725 -2.346e-03   4.662e-01  2.574e+00     3.766
       25     0.14943   -0.160331360779 -2.130e-03   4.609e-01  2.521e+00     3.772
       26     0.16045   -0.162254324395 -1.923e-03   4.554e-01  2.467e+00     3.792
       27     0.17222   -0.163984652581 -1.730e-03   4.496e-01  2.413e+00     3.726
       28     0.18474   -0.165525121761 -1.540e-03   4.436e-01  2.359e+00     3.804
       29     0.19798   -0.166878586390 -1.353e-03   4.373e-01  2.305e+00     3.760
       30     0.21201   -0.168065615284 -1.187e-03   4.308e-01  2.251e+00     3.776
       31     0.22693   -0.169103961678 -1.038e-03   4.240e-01  2.197e+00     3.779
       32     0.24286   -0.170009839182 -9.059e-04   4.169e-01  2.142e+00     3.782
       33     0.25984   -0.170794094732 -7.843e-04   4.096e-01  2.087e+00     3.766
       34     0.27778   -0.171463648983 -6.696e-04   4.020e-01  2.033e+00     3.814
       35     0.29679   -0.172035556063 -5.719e-04   3.942e-01  1.978e+00     3.787
       36     0.31700   -0.172524257041 -4.887e-04   3.861e-01  1.923e+00     3.959
       37     0.33853   -0.172941740160 -4.175e-04   3.777e-01  1.868e+00     3.821
       38     0.36136   -0.173297209738 -3.555e-04   3.691e-01  1.813e+00     3.798
       39     0.38553   -0.173600567422 -3.034e-04   3.603e-01  1.757e+00     3.800
       40     0.41110   -0.173861375533 -2.608e-04   3.513e-01  1.702e+00     3.774
       41     0.43823   -0.174089271776 -2.279e-04   3.420e-01  1.647e+00     3.764
       42     0.46711   -0.174292725975 -2.035e-04   3.326e-01  1.592e+00     3.783
       43     0.49798   -0.174479432085 -1.867e-04   3.229e-01  1.537e+00     3.773
       44     0.50000   -0.174490810734 -1.138e-05   3.222e-01  1.533e+00     3.727
    -------------------------------------------------------------------------------

  ==> SRG-MRPT2 Energy Summary <==

    E0 (reference)                 =    -108.789661408238260
    SRG-MRPT2 correlation energy   =      -0.174490810734066
    SRG-MRPT2 total energy         =    -108.964152218972330

  ==> Total Timings (s) for Computing Commutators <==

             [H1, T1]    [H1, T2]    [H2, T1]    [H2, T2]
    -----------------------------------------------------
    -> C0       0.964       3.457       0.000      59.458
    -> C1       1.564      12.345       0.000       0.000
    -> C2                  48.929       0.000       0.000
    -----------------------------------------------------


  Your calculation took 166.85886200 seconds
	SRG-MRPT2 energy..................................................PASSED

*** Psi4 exiting successfully. Buy a developer a beer!
