
    -----------------------------------------------------------------------
          Psi4: An Open-Source Ab Initio Electronic Structure Package
                               Psi4 undefined 

                         Git: Rev {master} 45315cb 


    R. M. Parrish, L. A. Burns, D. G. A. Smith, A. C. Simmonett,
    A. E. DePrince III, E. G. Hohenstein, U. Bozkaya, A. Yu. Sokolov,
    R. Di Remigio, R. M. Richard, J. F. Gonthier, A. M. James,
    H. R. McAlexander, A. Kumar, M. Saitow, X. Wang, B. P. Pritchard,
    P. Verma, H. F. Schaefer III, K. Patkowski, R. A. King, E. F. Valeev,
    F. A. Evangelista, J. M. Turney, T. D. Crawford, and C. D. Sherrill,
    J. Chem. Theory Comput. 13(7) pp 3185--3197 (2017).
    (doi: 10.1021/acs.jctc.7b00174)


                         Additional Contributions by
    P. Kraus, H. Kruse, M. H. Lechner, M. C. Schieber, R. A. Shaw,
    A. Alenaizan, R. Galvelis, Z. L. Glick, S. Lehtola, and J. P. Misiewicz

    -----------------------------------------------------------------------


    Psi4 started on: Wednesday, 24 April 2019 02:48PM

    Process ID: 3432
    Host:       juan-pablo.wireless.emory.edu
    PSIDATADIR: /Users/jeffschriber/src/psi4-debug-install/share/psi4
    Memory:     500.0 MiB
    Threads:    1
    
  ==> Input File <==

--------------------------------------------------------------------------

import forte

refscf = -75.3790205732175735
refaci = -75.436192781942
refacipt2 = -75.437191247632

molecule C2{
C  0.00000 0.00000 0.0
C  0.00000 0.00000 1.24253
}

set {
  basis 6-31g*
  scf_type pk
  e_convergence 13
  d_convergence 12
  r_convergence 12
  docc [2,0,0,0,0,2,1,1]
  guess gwh
}


set forte {
  active_space_solver aci
  frozen_docc [2,0,0,0,0,0,0,0]
  restricted_docc [0,0,0,0,0,0,0,0]
  active [1,0,1,1,0,3,2,2]
  aci_SELECT_TYPE aimed_energy
  sci_excited_algorithm root_orthogonalize
  sigma 0.001
  nroot 2
  aci_n_average 2
  charge 0
  root_sym 0
  aci_preiterations 2
  dl_maxiter 100
  diag_algorithm solver
  sigma_build_type sparse
}

set_num_threads(1)

energy('scf')

compare_values(refscf, variable("CURRENT ENERGY"),9, "SCF energy")

energy('forte')

compare_values(refaci, variable("ACI ENERGY"),5, "ACI energy")
compare_values(refacipt2, variable("ACI+PT2 ENERGY"),5, "ACI+PT2 energy")
--------------------------------------------------------------------------
  Threads set to 1 by Python driver.

*** tstart() called on juan-pablo.wireless.emory.edu
*** at Wed Apr 24 14:48:15 2019

   => Loading Basis Set <=

    Name: 6-31G*
    Role: ORBITAL
    Keyword: BASIS
    atoms 1-2 entry C          line   111 file /Users/jeffschriber/src/psi4-debug-install/share/psi4/basis/6-31gs.gbs 


         ---------------------------------------------------------
                                   SCF
               by Justin Turney, Rob Parrish, Andy Simmonett
                          and Daniel G. A. Smith
                              RHF Reference
                        1 Threads,    500 MiB Core
         ---------------------------------------------------------

  ==> Geometry <==

    Molecular point group: d2h
    Full point group: D_inf_h

    Geometry (in Angstrom), charge = 0, multiplicity = 1:

       Center              X                  Y                   Z               Mass       
    ------------   -----------------  -----------------  -----------------  -----------------
         C            0.000000000000     0.000000000000    -0.621265000000    12.000000000000
         C            0.000000000000     0.000000000000     0.621265000000    12.000000000000

  Running in d2h symmetry.

  Rotational constants: A = ************  B =      1.81983  C =      1.81983 [cm^-1]
  Rotational constants: A = ************  B =  54557.21372  C =  54557.21372 [MHz]
  Nuclear repulsion =   15.331927264629432

  Charge       = 0
  Multiplicity = 1
  Electrons    = 12
  Nalpha       = 6
  Nbeta        = 6

  ==> Algorithm <==

  SCF Algorithm Type is PK.
  DIIS enabled.
  MOM disabled.
  Fractional occupation disabled.
  Guess Type is GWH.
  Energy threshold   = 1.00e-13
  Density threshold  = 1.00e-12
  Integral threshold = 0.00e+00

  ==> Primary Basis <==

  Basis Set: 6-31G*
    Blend: 6-31G*
    Number of shells: 12
    Number of basis function: 30
    Number of Cartesian functions: 30
    Spherical Harmonics?: false
    Max angular momentum: 2

  ==> Pre-Iterations <==

   -------------------------------------------------------
    Irrep   Nso     Nmo     Nalpha   Nbeta   Ndocc  Nsocc
   -------------------------------------------------------
     Ag         8       8       2       2       2       0
     B1g        1       1       0       0       0       0
     B2g        3       3       0       0       0       0
     B3g        3       3       0       0       0       0
     Au         1       1       0       0       0       0
     B1u        8       8       2       2       2       0
     B2u        3       3       1       1       1       0
     B3u        3       3       1       1       1       0
   -------------------------------------------------------
    Total      30      30       6       6       6       0
   -------------------------------------------------------

  ==> Integral Setup <==

  Using in-core PK algorithm.
   Calculation information:
      Number of atoms:                   2
      Number of AO shells:              12
      Number of primitives:             30
      Number of atomic orbitals:        30
      Number of basis functions:        30

      Integral cutoff                 1.00e-12
      Number of threads:                 1

  Performing in-core PK
  Using 216690 doubles for integral storage.
  We computed 3081 shell quartets total.
  Whereas there are 3081 unique shell quartets.

  ==> DiskJK: Disk-Based J/K Matrices <==

    J tasked:                  Yes
    K tasked:                  Yes
    wK tasked:                  No
    Memory [MiB]:              375
    Schwarz Cutoff:          1E-12

    OpenMP threads:              1

  Minimum eigenvalue in the overlap matrix is 5.8767352577E-03.
  Using Symmetric Orthogonalization.

  SCF Guess: Generalized Wolfsberg-Helmholtz.

  ==> Iterations <==

                        Total Energy        Delta E     RMS |[F,P]|

   @RHF iter   1:   -72.76856137480569   -7.27686e+01   1.46433e-01 DIIS
   @RHF iter   2:   -75.33343046777148   -2.56487e+00   2.01048e-02 DIIS
   @RHF iter   3:   -75.37693623512583   -4.35058e-02   4.21536e-03 DIIS
   @RHF iter   4:   -75.37889814034037   -1.96191e-03   1.02749e-03 DIIS
   @RHF iter   5:   -75.37901447630237   -1.16336e-04   1.94472e-04 DIIS
   @RHF iter   6:   -75.37902046764053   -5.99134e-06   2.23228e-05 DIIS
   @RHF iter   7:   -75.37902056676879   -9.91283e-08   5.15046e-06 DIIS
   @RHF iter   8:   -75.37902057314005   -6.37127e-09   6.38215e-07 DIIS
   @RHF iter   9:   -75.37902057321678   -7.67244e-11   6.81509e-08 DIIS
   @RHF iter  10:   -75.37902057321753   -7.53175e-13   4.53603e-09 DIIS
   @RHF iter  11:   -75.37902057321759   -5.68434e-14   1.56862e-10 DIIS
   @RHF iter  12:   -75.37902057321755    4.26326e-14   1.49907e-11 DIIS
   @RHF iter  13:   -75.37902057321756   -1.42109e-14   1.37946e-12 DIIS
   @RHF iter  14:   -75.37902057321757   -1.42109e-14   1.95434e-13 DIIS
  Energy and wave function converged.


  ==> Post-Iterations <==

    Orbital Energies [Eh]
    ---------------------

    Doubly Occupied:                                                      

       1Ag   -11.355466     1B1u  -11.353230     2Ag    -1.054446  
       2B1u   -0.510238     1B2u   -0.449495     1B3u   -0.449495  

    Virtual:                                                              

       3Ag    -0.097128     1B2g    0.177458     1B3g    0.177458  
       3B1u    0.475501     4Ag     0.661375     2B3u    0.711487  
       2B2u    0.711487     5Ag     0.757290     2B3g    0.852501  
       2B2g    0.852501     4B1u    0.950480     5B1u    1.337375  
       3B2u    1.746330     3B3u    1.746330     6Ag     1.777048  
       1B1g    1.777048     6B1u    2.181934     1Au     2.181934  
       7Ag     2.437322     3B3g    2.764953     3B2g    2.764953  
       7B1u    3.142571     8Ag     4.291548     8B1u    4.439295  

    Final Occupation by Irrep:
             Ag   B1g   B2g   B3g    Au   B1u   B2u   B3u 
    DOCC [     2,    0,    0,    0,    0,    2,    1,    1 ]

  @RHF Final Energy:   -75.37902057321757

   => Energetics <=

    Nuclear Repulsion Energy =             15.3319272646294316
    One-Electron Energy =                -131.0771560769882740
    Two-Electron Energy =                  40.3662082391412795
    Total Energy =                        -75.3790205732175593

Computation Completed


Properties will be evaluated at   0.000000,   0.000000,   0.000000 [a0]

Properties computed using the SCF density matrix

  Nuclear Dipole Moment: [e a0]
     X:     0.0000      Y:     0.0000      Z:     0.0000

  Electronic Dipole Moment: [e a0]
     X:     0.0000      Y:     0.0000      Z:     0.0000

  Dipole Moment: [e a0]
     X:     0.0000      Y:     0.0000      Z:     0.0000     Total:     0.0000

  Dipole Moment: [D]
     X:     0.0000      Y:     0.0000      Z:     0.0000     Total:     0.0000


*** tstop() called on juan-pablo.wireless.emory.edu at Wed Apr 24 14:48:16 2019
Module time:
	user time   =       0.27 seconds =       0.00 minutes
	system time =       0.01 seconds =       0.00 minutes
	total time  =          1 seconds =       0.02 minutes
Total time:
	user time   =       0.27 seconds =       0.00 minutes
	system time =       0.01 seconds =       0.00 minutes
	total time  =          1 seconds =       0.02 minutes
	SCF energy........................................................PASSED

*** tstart() called on juan-pablo.wireless.emory.edu
*** at Wed Apr 24 14:48:16 2019

   => Loading Basis Set <=

    Name: 6-31G*
    Role: ORBITAL
    Keyword: BASIS
    atoms 1-2 entry C          line   111 file /Users/jeffschriber/src/psi4-debug-install/share/psi4/basis/6-31gs.gbs 


         ---------------------------------------------------------
                                   SCF
               by Justin Turney, Rob Parrish, Andy Simmonett
                          and Daniel G. A. Smith
                              RHF Reference
                        1 Threads,    500 MiB Core
         ---------------------------------------------------------

  ==> Geometry <==

    Molecular point group: d2h
    Full point group: D_inf_h

    Geometry (in Angstrom), charge = 0, multiplicity = 1:

       Center              X                  Y                   Z               Mass       
    ------------   -----------------  -----------------  -----------------  -----------------
         C            0.000000000000     0.000000000000    -0.621265000000    12.000000000000
         C            0.000000000000     0.000000000000     0.621265000000    12.000000000000

  Running in d2h symmetry.

  Rotational constants: A = ************  B =      1.81983  C =      1.81983 [cm^-1]
  Rotational constants: A = ************  B =  54557.21372  C =  54557.21372 [MHz]
  Nuclear repulsion =   15.331927264629432

  Charge       = 0
  Multiplicity = 1
  Electrons    = 12
  Nalpha       = 6
  Nbeta        = 6

  ==> Algorithm <==

  SCF Algorithm Type is PK.
  DIIS enabled.
  MOM disabled.
  Fractional occupation disabled.
  Guess Type is GWH.
  Energy threshold   = 1.00e-13
  Density threshold  = 1.00e-12
  Integral threshold = 0.00e+00

  ==> Primary Basis <==

  Basis Set: 6-31G*
    Blend: 6-31G*
    Number of shells: 12
    Number of basis function: 30
    Number of Cartesian functions: 30
    Spherical Harmonics?: false
    Max angular momentum: 2

  ==> Pre-Iterations <==

   -------------------------------------------------------
    Irrep   Nso     Nmo     Nalpha   Nbeta   Ndocc  Nsocc
   -------------------------------------------------------
     Ag         8       8       2       2       2       0
     B1g        1       1       0       0       0       0
     B2g        3       3       0       0       0       0
     B3g        3       3       0       0       0       0
     Au         1       1       0       0       0       0
     B1u        8       8       2       2       2       0
     B2u        3       3       1       1       1       0
     B3u        3       3       1       1       1       0
   -------------------------------------------------------
    Total      30      30       6       6       6       0
   -------------------------------------------------------

  ==> Integral Setup <==

  Using in-core PK algorithm.
   Calculation information:
      Number of atoms:                   2
      Number of AO shells:              12
      Number of primitives:             30
      Number of atomic orbitals:        30
      Number of basis functions:        30

      Integral cutoff                 1.00e-12
      Number of threads:                 1

  Performing in-core PK
  Using 216690 doubles for integral storage.
  We computed 3081 shell quartets total.
  Whereas there are 3081 unique shell quartets.

  ==> DiskJK: Disk-Based J/K Matrices <==

    J tasked:                  Yes
    K tasked:                  Yes
    wK tasked:                  No
    Memory [MiB]:              375
    Schwarz Cutoff:          1E-12

    OpenMP threads:              1

  Minimum eigenvalue in the overlap matrix is 5.8767352577E-03.
  Using Symmetric Orthogonalization.

  SCF Guess: Generalized Wolfsberg-Helmholtz.

  ==> Iterations <==

                        Total Energy        Delta E     RMS |[F,P]|

   @RHF iter   1:   -72.76856137480570   -7.27686e+01   1.46433e-01 DIIS
   @RHF iter   2:   -75.33343046777148   -2.56487e+00   2.01048e-02 DIIS
   @RHF iter   3:   -75.37693623512581   -4.35058e-02   4.21536e-03 DIIS
   @RHF iter   4:   -75.37889814034037   -1.96191e-03   1.02749e-03 DIIS
   @RHF iter   5:   -75.37901447630236   -1.16336e-04   1.94472e-04 DIIS
   @RHF iter   6:   -75.37902046764054   -5.99134e-06   2.23228e-05 DIIS
   @RHF iter   7:   -75.37902056676879   -9.91282e-08   5.15046e-06 DIIS
   @RHF iter   8:   -75.37902057314005   -6.37127e-09   6.38215e-07 DIIS
   @RHF iter   9:   -75.37902057321678   -7.67244e-11   6.81509e-08 DIIS
   @RHF iter  10:   -75.37902057321753   -7.53175e-13   4.53603e-09 DIIS
   @RHF iter  11:   -75.37902057321759   -5.68434e-14   1.56860e-10 DIIS
   @RHF iter  12:   -75.37902057321757    1.42109e-14   1.49902e-11 DIIS
   @RHF iter  13:   -75.37902057321749    8.52651e-14   1.37994e-12 DIIS
   @RHF iter  14:   -75.37902057321753   -4.26326e-14   1.95111e-13 DIIS
  Energy and wave function converged.


  ==> Post-Iterations <==

    Orbital Energies [Eh]
    ---------------------

    Doubly Occupied:                                                      

       1Ag   -11.355466     1B1u  -11.353230     2Ag    -1.054446  
       2B1u   -0.510238     1B2u   -0.449495     1B3u   -0.449495  

    Virtual:                                                              

       3Ag    -0.097128     1B2g    0.177458     1B3g    0.177458  
       3B1u    0.475501     4Ag     0.661375     2B2u    0.711487  
       2B3u    0.711487     5Ag     0.757290     2B3g    0.852501  
       2B2g    0.852501     4B1u    0.950480     5B1u    1.337375  
       3B2u    1.746330     3B3u    1.746330     1B1g    1.777048  
       6Ag     1.777048     1Au     2.181934     6B1u    2.181934  
       7Ag     2.437322     3B2g    2.764953     3B3g    2.764953  
       7B1u    3.142571     8Ag     4.291548     8B1u    4.439295  

    Final Occupation by Irrep:
             Ag   B1g   B2g   B3g    Au   B1u   B2u   B3u 
    DOCC [     2,    0,    0,    0,    0,    2,    1,    1 ]

  @RHF Final Energy:   -75.37902057321753

   => Energetics <=

    Nuclear Repulsion Energy =             15.3319272646294316
    One-Electron Energy =                -131.0771560769882456
    Two-Electron Energy =                  40.3662082391412795
    Total Energy =                        -75.3790205732175309

Computation Completed


Properties will be evaluated at   0.000000,   0.000000,   0.000000 [a0]

Properties computed using the SCF density matrix

  Nuclear Dipole Moment: [e a0]
     X:     0.0000      Y:     0.0000      Z:     0.0000

  Electronic Dipole Moment: [e a0]
     X:     0.0000      Y:     0.0000      Z:     0.0000

  Dipole Moment: [e a0]
     X:     0.0000      Y:     0.0000      Z:     0.0000     Total:     0.0000

  Dipole Moment: [D]
     X:     0.0000      Y:     0.0000      Z:     0.0000     Total:     0.0000


*** tstop() called on juan-pablo.wireless.emory.edu at Wed Apr 24 14:48:16 2019
Module time:
	user time   =       0.25 seconds =       0.00 minutes
	system time =       0.02 seconds =       0.00 minutes
	total time  =          0 seconds =       0.00 minutes
Total time:
	user time   =       0.54 seconds =       0.01 minutes
	system time =       0.03 seconds =       0.00 minutes
	total time  =          1 seconds =       0.02 minutes
   => Loading Basis Set <=

    Name: STO-3G
    Role: ORBITAL
    Keyword: MINAO_BASIS
    atoms 1-2 entry C          line    61 file /Users/jeffschriber/src/psi4-debug-install/share/psi4/basis/sto-3g.gbs 


  Forte
  ----------------------------------------------------------------------------
  A suite of quantum chemistry methods for strongly correlated electrons

    git branch: aci-cleanup - git commit: 83cfcc08

  Developed by:
    Francesco A. Evangelista, Chenyang Li, Kevin P. Hannon,
    Jeffrey B. Schriber, Tianyuan Zhang, Chenxi Cai,
    Nan He, Nicholas Stair, Shuhe Wang, Renke Huang
  ----------------------------------------------------------------------------

  Size of Determinant class: 16

  ==> MO Space Information <==

  Read options for space FROZEN_DOCC
  Read options for space RESTRICTED_DOCC
  Read options for space ACTIVE
  -------------------------------------------------------------------------
                       Ag   B1g   B2g   B3g    Au   B1u   B2u   B3u   Sum
  -------------------------------------------------------------------------
    FROZEN_DOCC         2     0     0     0     0     0     0     0     2
    RESTRICTED_DOCC     0     0     0     0     0     0     0     0     0
    ACTIVE              1     0     1     1     0     3     2     2    10
    RESTRICTED_UOCC     5     1     2     2     1     5     1     1    18
    FROZEN_UOCC         0     0     0     0     0     0     0     0     0
    Total               8     1     3     3     1     8     3     3    30
  -------------------------------------------------------------------------

  ==> Integral Transformation <==

  Number of molecular orbitals:                    30
  Number of correlated molecular orbitals:         28
  Number of frozen occupied orbitals:               2
  Number of frozen unoccupied orbitals:             0
  Two-electron integral type:              Conventional


  Overall Conventional Integrals timings

	Presorting SO-basis two-electron integrals.
	Sorting File: SO Ints (nn|nn) nbuckets = 1
	Transforming the one-electron integrals and constructing Fock matrices
	Starting first half-transformation.
	Sorting half-transformed integrals.
	First half integral transformation complete.
	Starting second half-transformation.
	Two-electron integral transformation complete.

  Integral transformation done. 0.03521925 s
  Reading the two-electron integrals from disk
  Size of two-electron integrals:   0.018105 GB  Using in-core PK algorithm.
   Calculation information:
      Number of atoms:                   2
      Number of AO shells:              12
      Number of primitives:             30
      Number of atomic orbitals:        30
      Number of basis functions:        30

      Integral cutoff                 1.00e-12
      Number of threads:                 1

  Performing in-core PK
  Using 216690 doubles for integral storage.
  We computed 3081 shell quartets total.
  Whereas there are 3081 unique shell quartets.


  Frozen-core energy            -50.024438976536 a.u.
  Timing for frozen one-body operator:                        0.088 s.
  Resorting integrals after freezing core.
  Timing for freezing core and virtual orbitals:              0.222 s.
  Conventional integrals take 0.45174460 s

  ==> Summary of Active Space Solver Input <==

    Irrep.  Multi.  Nstates
    -------------------------
      Ag       1        2
    -------------------------
    Total number of states: 2
    -------------------------


-------------------------------------------------------------------------------
               Selected Configuration Interaction Excited States
  written by Jeffrey B. Schriber, Tianyuan Zhang and Francesco A. Evangelista
-------------------------------------------------------------------------------

  ==> Reference Information <==

  ==> Calculation Information <==

  -----------------------------------------------------------------
    Multiplicity                             1    
    Symmetry                                 0    
    Number of roots                          2    
    Ms                                       0
    Excited Algorithm                        ROOT_ORTHOGONALIZE
  -----------------------------------------------------------------
  Using 1 threads
  Computing wavefunction for root 0

        ---------------------------------------------------------------
                      Adaptive Configuration Interaction
          written by Jeffrey B. Schriber and Francesco A. Evangelista
        ---------------------------------------------------------------

  ==> Reference Information <==

  There are 2 frozen orbitals.
  There are 10 active orbitals.

  ==> Calculation Information <==

  -----------------------------------------------------------------
    Multiplicity                             1    
    Symmetry                                 0    
    Number of roots                          1    
    Root used for properties                 0    
    Sigma (Eh)                               1.00e-03
    Gamma (Eh^(-1))                          1.00e+00
    Convergence threshold                    1.00e-09
    Ms                                       0
    Diagonalization algorithm                SOLVER
    Excited Algorithm                        ROOT_ORTHOGONALIZE
    Project out spin contaminants            True
    Enforce spin completeness of basis       True
    Enforce complete aimed selection         True
  -----------------------------------------------------------------
  Number of active alpha electrons: 4
  Number of active beta electrons: 4
  Maximum reference space size: 1000
  Number of reference determinants: 642
  Reference generated from 10 MOs

  ==> Cycle 0 <==

  Initial P space dimension: 642
  Spin-complete dimension of the P space: 642 determinants

  ==> Computing Coupling Lists <==
  --------------------------------
        α          0.005085 s
        β          0.005250 s
        αα         0.007380 s
        ββ         0.006961 s
        αβ         0.016704 s
  --------------------------------

  Davidson-Liu solver algorithm
  Using SPARSE sigma builder
  Initial guess space is incomplete!
  Trying to add 6 determinant(s).  6 determinant(s) added.
  Initial guess found 46 solutions with 2S+1 = 1 *
  Initial guess found 44 solutions with 2S+1 = 3  
  Initial guess found 15 solutions with 2S+1 = 5  
  Initial guess found 1 solutions with 2S+1 = 7  
  Adding guess 0 (multiplicity = 1.000000)
  Adding guess 1 (multiplicity = 1.000000)

  ==> Diagonalizing Hamiltonian <==

  ----------------------------------------
    Iter.      Avg. Energy       Delta_E
  ----------------------------------------
      1      -90.867839855473  -9.087e+01
      2      -90.869937092458  -2.097e-03
      3      -90.870002385199  -6.529e-05
      4      -90.870005652105  -3.267e-06
      5      -90.870006971660  -1.320e-06
      6      -90.870007146582  -1.749e-07
      7      -90.870007184796  -3.821e-08
      8      -90.870007196823  -1.203e-08
      9      -90.870007202094  -5.270e-09
     10      -90.870007203511  -1.417e-09
     11      -90.870007203885  -3.748e-10
     12      -90.870007204025  -1.396e-10
     13      -90.870007204086  -6.159e-11
     14      -90.870007204105  -1.843e-11
     15      -90.870007204110  -4.846e-12
     16      -90.870007204112  -1.862e-12
     17      -90.870007204112  -8.669e-13
     18      -90.870007204113  -2.842e-13
     19      -90.870007204113  -2.842e-14
  ----------------------------------------
  The Davidson-Liu algorithm converged in 20 iterations.
  Davidson-Liu procedure took  0.150200 s
  Time spent diagonalizing H:   0.154073 s

    P-space  CI Energy Root   0        = -75.538079939483 Eh =   0.0000 eV

  Using SR screening algorithm
  Time spent forming F space:             0.225003
  Time spent merging thread F spaces:             0.014303
  size of hash: 3944
  Time spent building sorting list: 0.009829
  Size of F space: 3944
  Added 2 missing determinants in aimed selection.
  Time spent building the model space: 0.251937
  Spin-complete dimension of the PQ space: 674

  ==> Computing Coupling Lists <==
  --------------------------------
        α          0.005279 s
        β          0.005400 s
        αα         0.007146 s
        ββ         0.007469 s
        αβ         0.017213 s
  --------------------------------

  Davidson-Liu solver algorithm
  Using SPARSE sigma builder
  Initial guess space is incomplete!
  Trying to add 10 determinant(s).  10 determinant(s) added.
  Initial guess found 48 solutions with 2S+1 = 1 *
  Initial guess found 46 solutions with 2S+1 = 3  
  Initial guess found 15 solutions with 2S+1 = 5  
  Initial guess found 1 solutions with 2S+1 = 7  
  Adding guess 0 (multiplicity = 1.000000)
  Adding guess 1 (multiplicity = 1.000000)

  ==> Diagonalizing Hamiltonian <==

  ----------------------------------------
    Iter.      Avg. Energy       Delta_E
  ----------------------------------------
      1      -90.867973195062  -9.087e+01
      2      -90.878735569865  -1.076e-02
      3      -90.878887959746  -1.524e-04
      4      -90.878904953500  -1.699e-05
      5      -90.878910951208  -5.998e-06
      6      -90.878911734669  -7.835e-07
      7      -90.878911970217  -2.355e-07
      8      -90.878912012640  -4.242e-08
      9      -90.878912025634  -1.299e-08
     10      -90.878912028249  -2.615e-09
     11      -90.878912028900  -6.510e-10
     12      -90.878912029050  -1.495e-10
     13      -90.878912029099  -4.924e-11
     14      -90.878912029109  -1.044e-11
     15      -90.878912029112  -2.103e-12
     16      -90.878912029112  -6.111e-13
     17      -90.878912029112  -1.421e-13
     18      -90.878912029112  -8.527e-14
  ----------------------------------------
  The Davidson-Liu algorithm converged in 19 iterations.
  Davidson-Liu procedure took  0.145759 s
  Total time spent diagonalizing H:   0.147904 s

    PQ-space CI Energy Root   0        = -75.546984764483 Eh =   0.0000 eV
    PQ-space CI Energy + EPT2 Root   0 = -75.547967920423 Eh =   0.0000 eV

  Added 1 missing determinants in aimed selection.

  Most important contributions to root   0:
    0  -0.889123 0.790539184         641 |0002202020>
    1   0.290387 0.084324553         506 |2002002020>
    2   0.100506 0.010101402         578 |0022200020>
    3   0.100506 0.010101402         621 |0202202000>
    4   0.090733 0.008232522         508 |+-02-020+0>
    5   0.090733 0.008232522         619 |-+02+020-0>
    6  -0.090733 0.008232522         577 |-0+2+0-020>
    7  -0.090733 0.008232522         507 |+0-2-0+020>
    8   0.076190 0.005804915         629 |2002202000>
    9   0.076190 0.005804915         594 |2002200020>

  Spin state for root 0: S^2 = 0.000000, S = 0.000, singlet
  Cycle 0 took: 0.676181 s

  ==> Cycle 1 <==

  Initial P space dimension: 69
  Spin-complete dimension of the P space: 79 determinants

  ==> Computing Coupling Lists <==
  --------------------------------
        α          0.000824 s
        β          0.000873 s
        αα         0.001238 s
        ββ         0.001188 s
        αβ         0.003004 s
  --------------------------------
  Time spent diagonalizing H:   0.005235 s

    P-space  CI Energy Root   0        = -75.545861963327 Eh =   0.0000 eV

  Using SR screening algorithm
  Time spent forming F space:             0.025983
  Time spent merging thread F spaces:             0.005787
  size of hash: 2399
  Time spent building sorting list: 0.006034
  Size of F space: 2399
  Added 3 missing determinants in aimed selection.
  Time spent building the model space: 0.039020
  Spin-complete dimension of the PQ space: 168

  ==> Computing Coupling Lists <==
  --------------------------------
        α          0.001464 s
        β          0.001467 s
        αα         0.002137 s
        ββ         0.002091 s
        αβ         0.005382 s
  --------------------------------
  Total time spent diagonalizing H:   0.023093 s

    PQ-space CI Energy Root   0        = -75.547246244398 Eh =   0.0000 eV
    PQ-space CI Energy + EPT2 Root   0 = -75.548235566277 Eh =   0.0000 eV


  Most important contributions to root   0:
    0   0.888709 0.789804457          67 |0002202020>
    1  -0.289814 0.083991896          66 |2002002020>
    2  -0.100387 0.010077567          64 |0202202000>
    3  -0.100387 0.010077567          65 |0022200020>
    4  -0.091245 0.008325608          63 |+-02-020+0>
    5  -0.091245 0.008325608          62 |-+02+020-0>
    6   0.091245 0.008325608          60 |+0-2-0+020>
    7   0.091245 0.008325608          61 |-0+2+0-020>
    8  -0.077433 0.005995811          59 |2002202000>
    9  -0.077433 0.005995811          58 |2002200020>

  Spin state for root 0: S^2 = 0.000000, S = 0.000, singlet
  Cycle 1 took: 0.094288 s

  ==> Cycle 2 <==

  Initial P space dimension: 69
  Spin-complete dimension of the P space: 79 determinants

  ==> Computing Coupling Lists <==
  --------------------------------
        α          0.000713 s
        β          0.000697 s
        αα         0.001048 s
        ββ         0.001056 s
        αβ         0.002611 s
  --------------------------------
  Time spent diagonalizing H:   0.005000 s

    P-space  CI Energy Root   0        = -75.545861963327 Eh =   0.0000 eV

  Using SR screening algorithm
  Time spent forming F space:             0.025960
  Time spent merging thread F spaces:             0.005831
  size of hash: 2399
  Time spent building sorting list: 0.006038
  Size of F space: 2399
  Added 3 missing determinants in aimed selection.
  Time spent building the model space: 0.039052
  Spin-complete dimension of the PQ space: 168

  ==> Computing Coupling Lists <==
  --------------------------------
        α          0.001459 s
        β          0.001495 s
        αα         0.002141 s
        ββ         0.002088 s
        αβ         0.005828 s
  --------------------------------
  Total time spent diagonalizing H:   0.022177 s

    PQ-space CI Energy Root   0        = -75.547246244398 Eh =   0.0000 eV
    PQ-space CI Energy + EPT2 Root   0 = -75.548235566277 Eh =   0.0000 eV

  ***** Calculation Converged *****
  Saving root 0, ref_root is 0
  Number of old roots: 1
  Computing wavefunction for root 1

        ---------------------------------------------------------------
                      Adaptive Configuration Interaction
          written by Jeffrey B. Schriber and Francesco A. Evangelista
        ---------------------------------------------------------------

  ==> Reference Information <==

  There are 2 frozen orbitals.
  There are 10 active orbitals.

  ==> Calculation Information <==

  -----------------------------------------------------------------
    Multiplicity                             1    
    Symmetry                                 0    
    Number of roots                          2    
    Root used for properties                 1    
    Sigma (Eh)                               1.00e-03
    Gamma (Eh^(-1))                          1.00e+00
    Convergence threshold                    1.00e-09
    Ms                                       0
    Diagonalization algorithm                SOLVER
    Excited Algorithm                        ROOT_ORTHOGONALIZE
    Project out spin contaminants            True
    Enforce spin completeness of basis       True
    Enforce complete aimed selection         True
  -----------------------------------------------------------------
  Number of active alpha electrons: 4
  Number of active beta electrons: 4
  Maximum reference space size: 1000
  Number of reference determinants: 642
  Reference generated from 10 MOs

  ==> Cycle 0 <==

  Initial P space dimension: 642
  Spin-complete dimension of the P space: 642 determinants

  ==> Computing Coupling Lists <==
  --------------------------------
        α          0.005645 s
        β          0.005265 s
        αα         0.006790 s
        ββ         0.006717 s
        αβ         0.016537 s
  --------------------------------

  Davidson-Liu solver algorithm
  Using SPARSE sigma builder
  Initial guess space is incomplete!
  Trying to add 9 determinant(s).  9 determinant(s) added.
  Initial guess found 95 solutions with 2S+1 = 1 *
  Initial guess found 85 solutions with 2S+1 = 3  
  Initial guess found 27 solutions with 2S+1 = 5  
  Initial guess found 2 solutions with 2S+1 = 7  
  Adding guess 0 (multiplicity = 1.000000)
  Adding guess 1 (multiplicity = 1.000000)
  Adding guess 2 (multiplicity = 1.000000)
  Adding guess 3 (multiplicity = 1.000000)

  ==> Diagonalizing Hamiltonian <==

  ----------------------------------------
    Iter.      Avg. Energy       Delta_E
  ----------------------------------------
      1      -90.817182255681  -9.082e+01
      2      -90.817200805789  -1.855e-05
      3      -90.817200815485  -9.696e-09
      4      -90.817200815685  -1.999e-10
      5      -90.817200815700  -1.546e-11
      6      -90.817200815701  -5.969e-13
      7      -90.817200815701  -7.105e-14
  ----------------------------------------
  The Davidson-Liu algorithm converged in 8 iterations.
  Davidson-Liu procedure took  0.309267 s
  Time spent diagonalizing H:   0.312215 s

    P-space  CI Energy Root   0        = -75.538079939483 Eh =   0.0000 eV
    P-space  CI Energy Root   1        = -75.432467162660 Eh =   2.8739 eV

  Using AVERAGE screening algorithm
  Using 1 threads.
  Time spent building sorting list: 0.050647
  Size of F space: 3944
  Added 3 missing determinants in aimed selection.
  Time spent building the model space: 0.391701
  Spin-complete dimension of the PQ space: 692

  ==> Computing Coupling Lists <==
  --------------------------------
        α          0.005414 s
        β          0.005941 s
        αα         0.007372 s
        ββ         0.007368 s
        αβ         0.018087 s
  --------------------------------

  Davidson-Liu solver algorithm
  Using SPARSE sigma builder
  Initial guess space is incomplete!
  Trying to add 4 determinant(s).  4 determinant(s) added.
  Initial guess found 92 solutions with 2S+1 = 1 *
  Initial guess found 85 solutions with 2S+1 = 3  
  Initial guess found 26 solutions with 2S+1 = 5  
  Initial guess found 1 solutions with 2S+1 = 7  
  Adding guess 0 (multiplicity = 1.000000)
  Adding guess 1 (multiplicity = 1.000000)
  Adding guess 2 (multiplicity = 1.000000)
  Adding guess 3 (multiplicity = 1.000000)

  ==> Diagonalizing Hamiltonian <==

  ----------------------------------------
    Iter.      Avg. Energy       Delta_E
  ----------------------------------------
      1      -90.823289233079  -9.082e+01
      2      -90.823355419582  -6.619e-05
      3      -90.823355805083  -3.855e-07
      4      -90.823355815949  -1.087e-08
      5      -90.823355816828  -8.795e-10
      6      -90.823355816852  -2.309e-11
      7      -90.823355816855  -3.851e-12
      8      -90.823355816856  -3.126e-13
      9      -90.823355816856  -2.842e-14
  ----------------------------------------
  The Davidson-Liu algorithm converged in 10 iterations.
  Davidson-Liu procedure took  0.320117 s
  Total time spent diagonalizing H:   0.323139 s

    PQ-space CI Energy Root   0        = -75.547046852101 Eh =   0.0000 eV
    PQ-space CI Energy + EPT2 Root   0 = -75.548034808381 Eh =   0.0000 eV
    PQ-space CI Energy Root   1        = -75.435810252352 Eh =   3.0269 eV
    PQ-space CI Energy + EPT2 Root   1 = -75.436798208632 Eh =   3.0269 eV

  Added 1 missing determinants in aimed selection.

  Most important contributions to root   0:
    0  -0.888822 0.790004097         641 |0002202020>
    1   0.290507 0.084394135         506 |2002002020>
    2   0.100219 0.010043819         621 |0202202000>
    3   0.100219 0.010043819         578 |0022200020>
    4  -0.090762 0.008237679         577 |-0+2+0-020>
    5  -0.090762 0.008237679         507 |+0-2-0+020>
    6   0.090762 0.008237679         619 |-+02+020-0>
    7   0.090762 0.008237679         508 |+-02-020+0>
    8   0.078183 0.006112546         594 |2002200020>
    9   0.078183 0.006112546         629 |2002202000>

  Spin state for root 0: S^2 = 0.000000, S = 0.000, singlet

  Most important contributions to root   1:
    0  -0.689504 0.475415082         594 |2002200020>
    1   0.689504 0.475415082         629 |2002202000>
    2   0.088745 0.007875675         558 |2202200000>
    3  -0.088745 0.007875675         550 |2022200000>
    4  -0.059681 0.003561862         465 |2202002000>
    5   0.059681 0.003561862         403 |2022000020>
    6   0.047422 0.002248838         577 |-0+2+0-020>
    7   0.047422 0.002248838         507 |+0-2-0+020>
    8   0.047422 0.002248838         619 |-+02+020-0>
    9   0.047422 0.002248838         508 |+-02-020+0>

  Spin state for root 1: S^2 = 0.000000, S = 0.000, singlet
  Cycle 0 took: 1.147582 s

  ==> Cycle 1 <==

  Initial P space dimension: 80
  Spin-complete dimension of the P space: 98 determinants

  ==> Computing Coupling Lists <==
  --------------------------------
        α          0.001030 s
        β          0.000902 s
        αα         0.001298 s
        ββ         0.001268 s
        αβ         0.003247 s
  --------------------------------
  Time spent diagonalizing H:   0.007432 s

    P-space  CI Energy Root   0        = -75.545271492747 Eh =   0.0000 eV
    P-space  CI Energy Root   1        = -75.433873167373 Eh =   3.0313 eV

  Using AVERAGE screening algorithm
  Using 1 threads.
  Time spent building sorting list: 0.034835
  Size of F space: 2723
  Added 2 missing determinants in aimed selection.
  Time spent building the model space: 0.107202
  Spin-complete dimension of the PQ space: 179

  ==> Computing Coupling Lists <==
  --------------------------------
        α          0.001565 s
        β          0.001547 s
        αα         0.002242 s
        ββ         0.002191 s
        αβ         0.006107 s
  --------------------------------
  Total time spent diagonalizing H:   0.026008 s

    PQ-space CI Energy Root   0        = -75.547093549810 Eh =   0.0000 eV
    PQ-space CI Energy + EPT2 Root   0 = -75.548078641839 Eh =   0.0000 eV
    PQ-space CI Energy Root   1        = -75.436162252527 Eh =   3.0186 eV
    PQ-space CI Energy + EPT2 Root   1 = -75.437147344555 Eh =   3.0186 eV


  Most important contributions to root   0:
    0   0.888691 0.789772101          78 |0002202020>
    1  -0.290239 0.084238799          75 |2002002020>
    2  -0.099983 0.009996566          74 |0202202000>
    3  -0.099983 0.009996566          73 |0022200020>
    4  -0.091016 0.008283838          70 |-+02+020-0>
    5   0.091016 0.008283838          72 |-0+2+0-020>
    6  -0.091016 0.008283838          69 |+-02-020+0>
    7   0.091016 0.008283838          71 |+0-2-0+020>
    8  -0.078586 0.006175746          76 |2002202000>
    9  -0.078586 0.006175746          77 |2002200020>

  Spin state for root 0: S^2 = 0.000000, S = 0.000, singlet

  Most important contributions to root   1:
    0   0.689512 0.475427407          77 |2002200020>
    1  -0.689512 0.475427407          76 |2002202000>
    2  -0.088260 0.007789912          66 |2202200000>
    3   0.088260 0.007789912          65 |2022200000>
    4  -0.059300 0.003516492          67 |2022000020>
    5   0.059300 0.003516492          68 |2202002000>
    6  -0.047672 0.002272602          71 |+0-2-0+020>
    7  -0.047672 0.002272602          72 |-0+2+0-020>
    8  -0.047672 0.002272602          69 |+-02-020+0>
    9  -0.047672 0.002272602          70 |-+02+020-0>

  Spin state for root 1: S^2 = 0.000000, S = 0.000, singlet
  Cycle 1 took: 0.168630 s

  ==> Cycle 2 <==

  Initial P space dimension: 82
  Spin-complete dimension of the P space: 100 determinants
  Added 84 determinants from root 0

  ==> Computing Coupling Lists <==
  --------------------------------
        α          0.000930 s
        β          0.000908 s
        αα         0.001319 s
        ββ         0.001268 s
        αβ         0.003298 s
  --------------------------------
  Time spent diagonalizing H:   0.008198 s

  Computing overlap for root 0
  Root 0 has overlap 0.999190
  Saving reference for root 0

  Computing overlap for root 1
  Root 1 has overlap 0.000000
  Setting reference root to: 0

    P-space  CI Energy Root   0        = -75.433873167373 Eh =   0.0000 eV
    P-space  CI Energy Root   1        = -75.413844885641 Eh =   0.5450 eV

  Using AVERAGE screening algorithm
  Using 1 threads.
  Time spent building sorting list: 0.034978
  Size of F space: 2721
  Added 1 missing determinants in aimed selection.
  Time spent building the model space: 0.108822
  Spin-complete dimension of the PQ space: 148
  Added 92 determinants from root 0

  ==> Computing Coupling Lists <==
  --------------------------------
        α          0.001288 s
        β          0.001296 s
        αα         0.001978 s
        ββ         0.002075 s
        αβ         0.004756 s
  --------------------------------
  Total time spent diagonalizing H:   0.017436 s

    PQ-space CI Energy Root   0        = -75.435953464547 Eh =   0.0000 eV
    PQ-space CI Energy + EPT2 Root   0 = -75.436944527463 Eh =   0.0000 eV
    PQ-space CI Energy Root   1        = -75.415989500639 Eh =   0.5432 eV
    PQ-space CI Energy + EPT2 Root   1 = -75.416980563555 Eh =   0.5432 eV


  Computing overlap for root 0
  Root 0 has overlap 0.999257
  Saving reference for root 0

  Computing overlap for root 1
  Root 1 has overlap 0.000000
  Setting reference root to: 0
  Added 1 missing determinants in aimed selection.

  Most important contributions to root   0:
    0  -0.689649 0.475615470          80 |2002200020>
    1   0.689649 0.475615470          79 |2002202000>
    2   0.088333 0.007802806          69 |2202200000>
    3  -0.088333 0.007802806          68 |2022200000>
    4   0.059551 0.003546362          70 |2022000020>
    5  -0.059551 0.003546362          71 |2202002000>
    6   0.047230 0.002230697          77 |-0+2+0-020>
    7   0.047230 0.002230697          76 |+0-2-0+020>
    8   0.047230 0.002230697          74 |+-02-020+0>
    9   0.047230 0.002230697          75 |-+02+020-0>

  Spin state for root 0: S^2 = 0.000000, S = 0.000, singlet

  Most important contributions to root   1:
    0  -0.649326 0.421623891          79 |2002202000>
    1  -0.649326 0.421623891          80 |2002200020>
    2   0.311184 0.096835251          78 |2002002020>
    3   0.096372 0.009287645          68 |2022200000>
    4   0.096372 0.009287645          69 |2202200000>
    5   0.062857 0.003951017          57 |++02-020-0>
    6   0.062857 0.003951017          56 |--02+020+0>
    7  -0.062857 0.003951017          59 |+0+2-0-020>
    8  -0.062857 0.003951017          58 |-0-2+0+020>
    9  -0.046363 0.002149547          74 |+-02-020+0>

  Spin state for root 1: S^2 = 0.000000, S = 0.000, singlet
  Cycle 2 took: 0.160144 s

  ==> Cycle 3 <==

  Initial P space dimension: 56
  Spin-complete dimension of the P space: 64 determinants
  Added 32 determinants from root 0

  ==> Computing Coupling Lists <==
  --------------------------------
        α          0.000564 s
        β          0.000579 s
        αα         0.000841 s
        ββ         0.000817 s
        αβ         0.002116 s
  --------------------------------
  Time spent diagonalizing H:   0.003784 s

  Computing overlap for root 0
  Root 0 has overlap 0.999573
  Saving reference for root 0

  Computing overlap for root 1
  Root 1 has overlap 0.000000
  Setting reference root to: 0

    P-space  CI Energy Root   0        = -75.434921523575 Eh =   0.0000 eV
    P-space  CI Energy Root   1        = -75.328650846411 Eh =   2.8918 eV

  Using AVERAGE screening algorithm
  Using 1 threads.
  Time spent building sorting list: 0.028592
  Size of F space: 2204
  Time spent building the model space: 0.072593
  Spin-complete dimension of the PQ space: 201
  Added 134 determinants from root 0

  ==> Computing Coupling Lists <==
  --------------------------------
        α          0.001710 s
        β          0.001743 s
        αα         0.002546 s
        ββ         0.002447 s
        αβ         0.006342 s
  --------------------------------

  Davidson-Liu solver algorithm
  Using SPARSE sigma builder
  Initial guess found 90 solutions with 2S+1 = 1 *
  Initial guess found 80 solutions with 2S+1 = 3  
  Initial guess found 28 solutions with 2S+1 = 5  
  Initial guess found 2 solutions with 2S+1 = 7  
  Adding guess 0 (multiplicity = 1.000000)
  Adding guess 1 (multiplicity = 1.000000)
  Adding guess 2 (multiplicity = 1.000000)
  Adding guess 3 (multiplicity = 1.000000)

  ==> Diagonalizing Hamiltonian <==

  ----------------------------------------
    Iter.      Avg. Energy       Delta_E
  ----------------------------------------
      1      -90.757873989354  -9.076e+01
      2      -90.757879692651  -5.703e-06
      3      -90.757885325173  -5.633e-06
      4      -90.757885335025  -9.852e-09
      5      -90.757885327956  +7.069e-09
      6      -90.757885327992  -3.614e-11
      7      -90.757885328016  -2.353e-11
      8      -90.757885328017  -9.805e-13
      9      -90.757885328019  -1.819e-12
     10      -90.757885328019  -2.842e-13
     11      -90.757885328019  +1.279e-13
     12      -90.757885328019  -1.421e-14
     13      -90.757885328019  -2.842e-14
  ----------------------------------------
  The Davidson-Liu algorithm converged in 14 iterations.
  Davidson-Liu procedure took  0.255364 s
  Total time spent diagonalizing H:   0.257086 s

    PQ-space CI Energy Root   0        = -75.436210336985 Eh =   0.0000 eV
    PQ-space CI Energy + EPT2 Root   0 = -75.437209195841 Eh =   0.0000 eV
    PQ-space CI Energy Root   1        = -75.415705789794 Eh =   0.5580 eV
    PQ-space CI Energy + EPT2 Root   1 = -75.416704648651 Eh =   0.5580 eV


  Computing overlap for root 0
  Root 0 has overlap 0.999479
  Saving reference for root 0

  Computing overlap for root 1
  Root 1 has overlap 0.000000
  Setting reference root to: 0
  Added 2 missing determinants in aimed selection.

  Most important contributions to root   0:
    0   0.689415 0.475293711          54 |2002200020>
    1  -0.689415 0.475293706          53 |2002202000>
    2  -0.088324 0.007801137          52 |2202200000>
    3   0.088324 0.007801136          51 |2022200000>
    4   0.059374 0.003525301          49 |2202002000>
    5  -0.059374 0.003525298          50 |2022000020>
    6  -0.047835 0.002288225          45 |-+02+020-0>
    7  -0.047835 0.002288225          46 |+-02-020+0>
    8  -0.047835 0.002288224          47 |+0-2-0+020>
    9  -0.047835 0.002288224          48 |-0+2+0-020>

  Spin state for root 0: S^2 = 0.000000, S = 0.000, singlet

  Most important contributions to root   1:
    0  -0.650321 0.422917692          54 |2002200020>
    1  -0.650321 0.422917678          53 |2002202000>
    2   0.307324 0.094448028         133 |2002002020>
    3   0.096465 0.009305583          51 |2022200000>
    4   0.096465 0.009305581          52 |2202200000>
    5   0.062778 0.003941104          38 |++02-020-0>
    6   0.062778 0.003941104          37 |--02+020+0>
    7  -0.062778 0.003941101          39 |-0-2+0+020>
    8  -0.062778 0.003941101          40 |+0+2-0-020>
    9  -0.046017 0.002117592          46 |+-02-020+0>

  Spin state for root 1: S^2 = 0.000000, S = 0.000, singlet
  Cycle 3 took: 0.359700 s

  ==> Cycle 4 <==

  Initial P space dimension: 60
  Spin-complete dimension of the P space: 76 determinants
  Added 44 determinants from root 0

  ==> Computing Coupling Lists <==
  --------------------------------
        α          0.000671 s
        β          0.000705 s
        αα         0.001011 s
        ββ         0.000957 s
        αβ         0.002589 s
  --------------------------------
  Time spent diagonalizing H:   0.004644 s

  Computing overlap for root 0
  Root 0 has overlap 0.999677
  Saving reference for root 0

  Computing overlap for root 1
  Root 1 has overlap 0.000000
  Setting reference root to: 0

    P-space  CI Energy Root   0        = -75.435348142269 Eh =   0.0000 eV
    P-space  CI Energy Root   1        = -75.334095835915 Eh =   2.7552 eV

  Using AVERAGE screening algorithm
  Using 1 threads.
  Time spent building sorting list: 0.031499
  Size of F space: 2458
  Added 1 missing determinants in aimed selection.
  Time spent building the model space: 0.085926
  Spin-complete dimension of the PQ space: 198
  Added 133 determinants from root 0

  ==> Computing Coupling Lists <==
  --------------------------------
        α          0.001717 s
        β          0.001710 s
        αα         0.002516 s
        ββ         0.002423 s
        αβ         0.006826 s
  --------------------------------
  Total time spent diagonalizing H:   0.033926 s

    PQ-space CI Energy Root   0        = -75.436190892271 Eh =   0.0000 eV
    PQ-space CI Energy + EPT2 Root   0 = -75.437181831432 Eh =   0.0000 eV
    PQ-space CI Energy Root   1        = -75.415566680151 Eh =   0.5612 eV
    PQ-space CI Energy + EPT2 Root   1 = -75.416557619312 Eh =   0.5612 eV


  Computing overlap for root 0
  Root 0 has overlap 0.999681
  Saving reference for root 0

  Computing overlap for root 1
  Root 1 has overlap 0.000000
  Setting reference root to: 0
  Added 2 missing determinants in aimed selection.

  Most important contributions to root   0:
    0   0.689410 0.475286828          56 |2002202000>
    1  -0.689410 0.475286828          57 |2002200020>
    2  -0.088322 0.007800843          54 |2022200000>
    3   0.088322 0.007800843          55 |2202200000>
    4  -0.059389 0.003527065          53 |2202002000>
    5   0.059389 0.003527065          52 |2022000020>
    6   0.047839 0.002288609          50 |+-02-020+0>
    7   0.047839 0.002288609          51 |-+02+020-0>
    8   0.047839 0.002288609          49 |+0-2-0+020>
    9   0.047839 0.002288609          48 |-0+2+0-020>

  Spin state for root 0: S^2 = 0.000000, S = 0.000, singlet

  Most important contributions to root   1:
    0  -0.650355 0.422961774          57 |2002200020>
    1  -0.650355 0.422961774          56 |2002202000>
    2   0.307801 0.094741582         129 |2002002020>
    3   0.095783 0.009174388          55 |2202200000>
    4   0.095783 0.009174388          54 |2022200000>
    5  -0.062744 0.003936847          40 |+0+2-0-020>
    6  -0.062744 0.003936847          41 |-0-2+0+020>
    7   0.062744 0.003936847          43 |++02-020-0>
    8   0.062744 0.003936847          42 |--02+020+0>
    9   0.045872 0.002104243          48 |-0+2+0-020>

  Spin state for root 1: S^2 = 0.000000, S = 0.000, singlet
  Cycle 4 took: 0.152453 s

  ==> Cycle 5 <==

  Initial P space dimension: 60
  Spin-complete dimension of the P space: 76 determinants
  Added 44 determinants from root 0

  ==> Computing Coupling Lists <==
  --------------------------------
        α          0.000688 s
        β          0.000695 s
        αα         0.001001 s
        ββ         0.000971 s
        αβ         0.002771 s
  --------------------------------
  Time spent diagonalizing H:   0.004791 s

  Computing overlap for root 0
  Root 0 has overlap 0.999681
  Saving reference for root 0

  Computing overlap for root 1
  Root 1 has overlap 0.000000
  Setting reference root to: 0

    P-space  CI Energy Root   0        = -75.435348142269 Eh =   0.0000 eV
    P-space  CI Energy Root   1        = -75.334095835915 Eh =   2.7552 eV

  Using AVERAGE screening algorithm
  Using 1 threads.
  Time spent building sorting list: 0.031533
  Size of F space: 2458
  Added 1 missing determinants in aimed selection.
  Time spent building the model space: 0.085464
  Spin-complete dimension of the PQ space: 198
  Added 133 determinants from root 0

  ==> Computing Coupling Lists <==
  --------------------------------
        α          0.001711 s
        β          0.001729 s
        αα         0.002523 s
        ββ         0.002408 s
        αβ         0.006294 s
  --------------------------------
  Total time spent diagonalizing H:   0.034120 s

    PQ-space CI Energy Root   0        = -75.436190892271 Eh =   0.0000 eV
    PQ-space CI Energy + EPT2 Root   0 = -75.437181831433 Eh =   0.0000 eV
    PQ-space CI Energy Root   1        = -75.415566680151 Eh =   0.5612 eV
    PQ-space CI Energy + EPT2 Root   1 = -75.416557619312 Eh =   0.5612 eV


  Computing overlap for root 0
  Root 0 has overlap 0.999681
  Saving reference for root 0

  Computing overlap for root 1
  Root 1 has overlap 0.000000
  Setting reference root to: 0
  ***** Calculation Converged *****
  Saving root 1, ref_root is 0
  Number of old roots: 2

  ==> Excited state solver summary <==

  Iterations required:                         5
  Dimension of optimized determinant space:    198

  * Selected-CI Energy Root   0        = -75.547246244398 Eh =   0.0000 eV
  * Selected-CI Energy Root   0 + EPT2 = -75.548235566277 Eh =   0.0000 eV
  * Selected-CI Energy Root   1        = -75.436190892271 Eh =   3.0220 eV
  * Selected-CI Energy Root   1 + EPT2 = -75.437181831433 Eh =   3.0219 eV

  Saving information for root: 1

  ==> Energy Summary <==

    Multi.  Irrep.  No.               Energy
    -----------------------------------------
       1      Ag     0       -75.547246244398
       1      Ag     1       -75.436190892271
    -----------------------------------------	ACI energy........................................................PASSED
	ACI+PT2 energy....................................................PASSED

    Psi4 stopped on: Wednesday, 24 April 2019 02:48PM
    Psi4 wall time for execution: 0:00:04.49

*** Psi4 exiting successfully. Buy a developer a beer!
