
    -----------------------------------------------------------------------
          Psi4: An Open-Source Ab Initio Electronic Structure Package
                               Psi4 1.9a1.dev50 

                         Git: Rev {fixtemp} 466ebc2 


    D. G. A. Smith, L. A. Burns, A. C. Simmonett, R. M. Parrish,
    M. C. Schieber, R. Galvelis, P. Kraus, H. Kruse, R. Di Remigio,
    A. Alenaizan, A. M. James, S. Lehtola, J. P. Misiewicz, M. Scheurer,
    R. A. Shaw, J. B. Schriber, Y. Xie, Z. L. Glick, D. A. Sirianni,
    J. S. O'Brien, J. M. Waldrop, A. Kumar, E. G. Hohenstein,
    B. P. Pritchard, B. R. Brooks, H. F. Schaefer III, A. Yu. Sokolov,
    K. Patkowski, A. E. DePrince III, U. Bozkaya, R. A. King,
    F. A. Evangelista, J. M. Turney, T. D. Crawford, C. D. Sherrill,
    J. Chem. Phys. 152(18) 184108 (2020). https://doi.org/10.1063/5.0006002

                            Additional Code Authors
    E. T. Seidl, C. L. Janssen, E. F. Valeev, M. L. Leininger,
    J. F. Gonthier, R. M. Richard, H. R. McAlexander, M. Saitow, X. Wang,
    P. Verma, M. H. Lechner, A. Jiang, S. Behnle, A. G. Heide,
    M. F. Herbst, and D. L. Poole

             Previous Authors, Complete List of Code Contributors,
                       and Citations for Specific Modules
    https://github.com/psi4/psi4/blob/master/codemeta.json
    https://github.com/psi4/psi4/graphs/contributors
    http://psicode.org/psi4manual/master/introduction.html#citing-psifour

    -----------------------------------------------------------------------


    Psi4 started on: Friday, 10 November 2023 04:04PM

    Process ID: 32292
    Host:       macbook-pro-158.wireless.emory.edu
    PSIDATADIR: /Users/fevange/Source/psi4/objdir-Release/stage/share/psi4
    Memory:     500.0 MiB
    Threads:    1
    
  ==> Input File <==

--------------------------------------------------------------------------
# H2O singlet, 6-31G**/GASSCF calculation for core-excited state with core orbital frozen

import forte

refgasscf = -76.072552923587 #TEST 

molecule h2o{
   O
   H  1 1.00
   H  1 1.00 2 103.1
}

set global {
  basis 6-31g**
  e_convergence 12
  d_convergence 8
  scf_type direct
  reference rhf
}

set forte {
  active_space_solver aci  
  sigma               0.001  
  sci_enforce_spin_complete true
  active_ref_type gas_single  
  ms                  0.0
  multiplicity        1
  root_sym            0
  charge              0
  e_convergence       12
  r_convergence       8
  restricted_docc     [1,0,0,0]
  gas1                [2,0,1,1]
  gas2                [1,0,0,1]
  restricted_uocc     [8,2,3,5]  
  gas1min             [6]
  gas2max             [2]
  job_type            mcscf_two_step
  #job_type casscf
  casscf_ci_solver aci  
  casscf_maxiter      200
  casscf_e_convergence 1e-10
}

escf ,wfn = energy('scf',return_wfn = True)
egasscf = energy('forte',ref_wfn = wfn)
compare_values(refgasscf, egasscf ,9, "GASSCF energy") #TEST

--------------------------------------------------------------------------

Scratch directory: /tmp/
   => Libint2 <=

    Primary   basis highest AM E, G, H:  5, 4, 3
    Auxiliary basis highest AM E, G, H:  6, 5, 4
    Onebody   basis highest AM E, G, H:  6, 5, 4
    Solid Harmonics ordering:            gaussian

*** tstart() called on macbook-pro-158.wireless.emory.edu
*** at Fri Nov 10 16:04:46 2023

   => Loading Basis Set <=

    Name: 6-31G**
    Role: ORBITAL
    Keyword: BASIS
    atoms 1   entry O          line   149 file /Users/fevange/Source/psi4/objdir-Release/stage/share/psi4/basis/6-31gss.gbs 
    atoms 2-3 entry H          line    44 file /Users/fevange/Source/psi4/objdir-Release/stage/share/psi4/basis/6-31gss.gbs 


         ---------------------------------------------------------
                                   SCF
               by Justin Turney, Rob Parrish, Andy Simmonett
                          and Daniel G. A. Smith
                              RHF Reference
                        1 Threads,    500 MiB Core
         ---------------------------------------------------------

  ==> Geometry <==

    Molecular point group: c2v
    Full point group: C2v

    Geometry (in Angstrom), charge = 0, multiplicity = 1:

       Center              X                  Y                   Z               Mass       
    ------------   -----------------  -----------------  -----------------  -----------------
         O            0.000000000000     0.000000000000    -0.069592187400    15.994914619570
         H            0.000000000000    -0.783151105291     0.552239257834     1.007825032230
         H            0.000000000000     0.783151105291     0.552239257834     1.007825032230

  Running in c2v symmetry.

  Rotational constants: A =     24.35462  B =     13.63610  C =      8.74166 [cm^-1]
  Rotational constants: A = 730133.21529  B = 408800.04239  C = 262068.46393 [MHz]
  Nuclear repulsion =    8.804686653247025

  Charge       = 0
  Multiplicity = 1
  Electrons    = 10
  Nalpha       = 5
  Nbeta        = 5

  ==> Algorithm <==

  SCF Algorithm Type is DIRECT.
  DIIS enabled.
  MOM disabled.
  Fractional occupation disabled.
  Guess Type is SAD.
  Energy threshold   = 1.00e-12
  Density threshold  = 1.00e-08
  Integral threshold = 1.00e-12

  ==> Primary Basis <==

  Basis Set: 6-31G**
    Blend: 6-31G**
    Number of shells: 12
    Number of basis functions: 25
    Number of Cartesian functions: 25
    Spherical Harmonics?: false
    Max angular momentum: 2

   => Loading Basis Set <=

    Name: (6-31G** AUX)
    Role: JKFIT
    Keyword: DF_BASIS_SCF
    atoms 1   entry O          line   221 file /Users/fevange/Source/psi4/objdir-Release/stage/share/psi4/basis/cc-pvdz-jkfit.gbs 
    atoms 2-3 entry H          line    51 file /Users/fevange/Source/psi4/objdir-Release/stage/share/psi4/basis/cc-pvdz-jkfit.gbs 

  Starting with a DF guess...

  ==> Integral Setup <==

  DFHelper Memory: AOs need 0.001 GiB; user supplied 0.366 GiB. 
  Using in-core AOs.

  ==> MemDFJK: Density-Fitted J/K Matrices <==

    J tasked:                   Yes
    K tasked:                   Yes
    wK tasked:                   No
    OpenMP threads:               1
    Memory [MiB]:               375
    Algorithm:                 Core
    Schwarz Cutoff:           1E-12
    Mask sparsity (%):       0.0000
    Fitting Condition:        1E-10

   => Auxiliary Basis Set <=

  Basis Set: (6-31G** AUX)
    Blend: CC-PVDZ-JKFIT
    Number of shells: 42
    Number of basis functions: 131
    Number of Cartesian functions: 131
    Spherical Harmonics?: false
    Max angular momentum: 3

  Minimum eigenvalue in the overlap matrix is 2.2571686435E-02.
  Reciprocal condition number of the overlap matrix is 5.1514795888E-03.
    Using symmetric orthogonalization.

  ==> Pre-Iterations <==

  SCF Guess: Superposition of Atomic Densities via on-the-fly atomic UHF (no occupation information).

   -------------------------
    Irrep   Nso     Nmo    
   -------------------------
     A1        12      12 
     A2         2       2 
     B1         4       4 
     B2         7       7 
   -------------------------
    Total      25      25
   -------------------------

  ==> Iterations <==

                           Total Energy        Delta E     RMS |[F,P]|

   @DF-RHF iter SAD:   -75.46101893879410   -7.54610e+01   0.00000e+00 
   @DF-RHF iter   1:   -75.94541974959661   -4.84401e-01   2.80521e-02 ADIIS/DIIS
   @DF-RHF iter   2:   -75.99653401657321   -5.11143e-02   1.70130e-02 ADIIS/DIIS
   @DF-RHF iter   3:   -76.01662245125139   -2.00884e-02   2.21370e-03 ADIIS/DIIS
   @DF-RHF iter   4:   -76.01723049993947   -6.08049e-04   4.12822e-04 ADIIS/DIIS
   @DF-RHF iter   5:   -76.01725883710759   -2.83372e-05   6.95061e-05 DIIS
   @DF-RHF iter   6:   -76.01725995458682   -1.11748e-06   1.06194e-05 DIIS
   @DF-RHF iter   7:   -76.01725998322141   -2.86346e-08   1.75291e-06 DIIS
   @DF-RHF iter   8:   -76.01725998411086   -8.89457e-10   3.96988e-07 DIIS
   @DF-RHF iter   9:   -76.01725998416204   -5.11733e-11   6.88572e-08 DIIS
   @DF-RHF iter  10:   -76.01725998416320   -1.16529e-12   6.51895e-09 DIIS
   @DF-RHF iter  11:   -76.01725998416327   -7.10543e-14   7.94651e-10 DIIS

  DF guess converged.

  ==> DirectJK: Integral-Direct J/K Matrices <==

    J tasked:                  Yes
    K tasked:                  Yes
    wK tasked:                  No
    Integrals threads:           1
    Screening Type:           CSAM
    Screening Cutoff:        1E-12
    Incremental Fock:           No

   @RHF iter  12:   -76.01729654450105   -7.60173e+01   1.19916e-05 DIIS
   @RHF iter  13:   -76.01729655577888   -1.12778e-08   1.64017e-06 DIIS
   @RHF iter  14:   -76.01729655606735   -2.88466e-10   4.89638e-07 DIIS
   @RHF iter  15:   -76.01729655608843   -2.10747e-11   1.68507e-07 DIIS
   @RHF iter  16:   -76.01729655609137   -2.94165e-12   4.58643e-08 DIIS
   @RHF iter  17:   -76.01729655609161   -2.41585e-13   5.21060e-09 DIIS
  Energy and wave function converged.


  ==> Post-Iterations <==

    Orbital Energies [Eh]
    ---------------------

    Doubly Occupied:                                                      

       1A1   -20.569000     2A1    -1.320609     1B2    -0.678724  
       3A1    -0.563930     1B1    -0.495004  

    Virtual:                                                              

       4A1     0.202466     2B2     0.292719     3B2     0.981164  
       5A1     1.056318     6A1     1.129179     2B1     1.168639  
       4B2     1.294985     7A1     1.413596     1A2     1.802875  
       8A1     1.806916     3B1     1.918871     9A1     2.513249  
       5B2     2.537822     6B2     2.713577     2A2     2.921065  
       4B1     2.947486    10A1     3.291755    11A1     3.620730  
       7B2     3.874917    12A1     4.077740  

    Final Occupation by Irrep:
             A1    A2    B1    B2 
    DOCC [     3,    0,    1,    1 ]
    NA   [     3,    0,    1,    1 ]
    NB   [     3,    0,    1,    1 ]

  @RHF Final Energy:   -76.01729655609161

   => Energetics <=

    Nuclear Repulsion Energy =              8.8046866532470247
    One-Electron Energy =                -122.3894315674516804
    Two-Electron Energy =                  37.5674483581130474
    Total Energy =                        -76.0172965560916225

Computation Completed


Properties will be evaluated at   0.000000,   0.000000,   0.000000 [a0]

Properties computed using the SCF density matrix


 Multipole Moments:

 ------------------------------------------------------------------------------------
     Multipole            Electronic (a.u.)      Nuclear  (a.u.)        Total (a.u.)
 ------------------------------------------------------------------------------------

 L = 1.  Multiply by 2.5417464519 to convert [e a0] to [Debye]
 Dipole X            :          0.0000000            0.0000000            0.0000000
 Dipole Y            :          0.0000000            0.0000000            0.0000000
 Dipole Z            :         -0.1532271            1.0350805            0.8818534
 Magnitude           :                                                    0.8818534

 ------------------------------------------------------------------------------------

*** tstop() called on macbook-pro-158.wireless.emory.edu at Fri Nov 10 16:04:47 2023
Module time:
	user time   =       0.90 seconds =       0.01 minutes
	system time =       0.71 seconds =       0.01 minutes
	total time  =          1 seconds =       0.02 minutes
Total time:
	user time   =       0.90 seconds =       0.01 minutes
	system time =       0.71 seconds =       0.01 minutes
	total time  =          1 seconds =       0.02 minutes

Scratch directory: /tmp/

  Forte
  ----------------------------------------------------------------------------
  A suite of quantum chemistry methods for strongly correlated electrons

    git branch: strgas - git commit: 1d41137c

  Developed by:
    Francesco A. Evangelista, Chenyang Li, Kevin P. Hannon,
    Jeffrey B. Schriber, Tianyuan Zhang, Chenxi Cai,
    Nan He, Nicholas Stair, Shuhe Wang, Renke Huang
  ----------------------------------------------------------------------------

  Size of Determinant class: 128 bits

  Preparing forte objects from a Psi4 Wavefunction object
  Read options for space RESTRICTED_DOCC
  Read options for space GAS1
  Read options for space GAS2
  Read options for space RESTRICTED_UOCC
  Read options for space GAS1
  Read options for space GAS2
  Read options for space RESTRICTED_DOCC
  Read options for space RESTRICTED_UOCC

  ==> MO Space Information <==

  -------------------------------------------------
                       A1    A2    B1    B2   Sum
  -------------------------------------------------
    FROZEN_DOCC         0     0     0     0     0
    RESTRICTED_DOCC     1     0     0     0     1
    GAS1                2     0     1     1     4
    GAS2                1     0     0     1     2
    GAS3                0     0     0     0     0
    GAS4                0     0     0     0     0
    GAS5                0     0     0     0     0
    GAS6                0     0     0     0     0
    RESTRICTED_UOCC     8     2     3     5    18
    FROZEN_UOCC         0     0     0     0     0
    Total              12     2     4     7    25
  -------------------------------------------------   => Loading Basis Set <=

    Name: 6-31G**
    Role: ORBITAL
    Keyword: BASIS
    atoms 1   entry O          line   149 file /Users/fevange/Source/psi4/objdir-Release/stage/share/psi4/basis/6-31gss.gbs 
    atoms 2-3 entry H          line    44 file /Users/fevange/Source/psi4/objdir-Release/stage/share/psi4/basis/6-31gss.gbs 


  Checking orbital orthonormality against current geometry ... Done (OK)

   => Loading Basis Set <=

    Name: STO-3G
    Role: ORBITAL
    Keyword: MINAO_BASIS
    atoms 1   entry O          line    81 file /Users/fevange/Source/psi4/objdir-Release/stage/share/psi4/basis/sto-3g.gbs 
    atoms 2-3 entry H          line    19 file /Users/fevange/Source/psi4/objdir-Release/stage/share/psi4/basis/sto-3g.gbs 


  Forte will use psi4 integrals

  ==> Primary Basis Set Summary <==

  Basis Set: 6-31G**
    Blend: 6-31G**
    Number of shells: 12
    Number of basis functions: 25
    Number of Cartesian functions: 25
    Spherical Harmonics?: false
    Max angular momentum: 2


  JK created using conventional PK integrals
  Using in-core PK algorithm.
   Calculation information:
      Number of atoms:                   3
      Number of AO shells:              12
      Number of primitives:             25
      Number of atomic orbitals:        25
      Number of basis functions:        25

      Integral cutoff                 1.00e-12
      Number of threads:                 1

  Performing in-core PK
  Using 105950 doubles for integral storage.
  We computed 3081 shell quartets total.
  Whereas there are 3081 unique shell quartets.

  ==> DiskJK: Disk-Based J/K Matrices <==

    J tasked:                  Yes
    K tasked:                  Yes
    wK tasked:                  No
    Memory [MiB]:              400
    Schwarz Cutoff:          1E-12

    OpenMP threads:              1



  ==> Integral Transformation <==

  Number of molecular orbitals:                         25
  Number of correlated molecular orbitals:              25
  Number of frozen occupied orbitals:                    0
  Number of frozen unoccupied orbitals:                  0
  Two-electron integral type:                 Conventional


  Skip integral allocation and transformation for AO-driven CASSCF.

          -----------------------------------------------------------
                  Multi-Configurational Self Consistent Field
                Two-Step Approximate Second-Order AO Algorithm
            written by Chenyang Li, Kevin P. Hannon, and Shuhe Wang
          -----------------------------------------------------------


  ==> MCSCF Calculation Information <==

    Integral type                               CONVENTIONAL
    CI solver type                                       ACI
    Final orbital type                             CANONICAL
    Derivative type                                     NONE
    Optimize orbitals                                   TRUE
    Include internal rotations                         FALSE
    Debug printing                                     FALSE
    Energy convergence                             1.000e-10
    Gradient convergence                           1.000e-07
    Max value for rotation                         2.000e-01
    Printing level                                         1
    Max number of macro iterations                       200
    Max number of micro iterations                        40
    Min number of micro iterations                         6
    DIIS start                                            15
    Min DIIS vectors                                       3
    Max DIIS vectors                                       8
    Frequency of DIIS extrapolation                        1


  ==> Independent Orbital Rotations <==

    ORBITAL SPACES                        A1     A2     B1     B2
    -------------------------------------------------------------
               GAS1 /            GAS2      2      0      0      1
             ACTIVE / RESTRICTED_DOCC      3      0      0      0
    RESTRICTED_UOCC /          ACTIVE     24      0      3     10
    RESTRICTED_UOCC / RESTRICTED_DOCC      8      0      0      0
    -------------------------------------------------------------

  ==> Summary of Active Space Solver Input <==

    Irrep.  Multi.(2ms)      N
    --------------------------
       A1      1  (  0)      1
    --------------------------
    N: number of roots
    ms: spin z component
    Total number of roots:   1
    --------------------------


--------------------------------------------------------------------------------
               Selected Configuration Interaction Excited States
  written by Jeffrey B. Schriber, Tianyuan Zhang, and Francesco A. Evangelista
--------------------------------------------------------------------------------

  ==> Calculation Information <==

  -----------------------------------------------------------------
    Multiplicity                             1    
    Symmetry                                 0    
    Number of roots                          1    
    Ms                                       0
    Excited Algorithm                        NONE
  -----------------------------------------------------------------
  Using 1 thread(s)
  Computing wavefunction for root 0

        ---------------------------------------------------------------
                      Adaptive Configuration Interaction
          written by Jeffrey B. Schriber and Francesco A. Evangelista
        ---------------------------------------------------------------

  ==> Reference Information <==

  There are 1 frozen orbitals.
  There are 6 active orbitals.

  ==> Calculation Information <==

  -----------------------------------------------------------------
    Multiplicity                             1    
    Symmetry                                 0    
    Number of roots                          1    
    Root used for properties                 0    
    Roots used for averaging                 1    
    Root averaging offset                    0    
    Sigma (Eh)                               1.00e-03
    Gamma (Eh^(-1))                          1.00e+00
    Convergence threshold                    1.00e-09
    Ms                                       0
    Diagonalization algorithm                SPARSE
    Excited Algorithm                        NONE
    Project out spin contaminants            True
    Enforce spin completeness of basis       True
    Enforce complete aimed selection         True
    Multiroot averaging                      Average
  -----------------------------------------------------------------
  Number of active orbitals: 6
  Number of active alpha electrons: 4
  Number of active beta electrons: 4

  ==> GAS Orbital Energies from SCF <==

    GAS        Energy  Index
    ------------------------
     1    -1.32060927      0
     1    -0.56393045      1
     1    -0.49500395      3
     1    -0.67872419      4
     2     0.20246590      2
     2     0.29271934      5
    ------------------------

  ==> Number of Electrons in GAS <==

    GAS  MAX  MIN
    -------------
      1    8    6
      2    2    0
    -------------

  ==> Possible Electron Occupations in GAS <==

    Config.  1_A  1_B  2_A  2_B
    ---------------------------
         1     4    4    0    0
         2     4    3    0    1
         3     4    2    0    2
         4     3    4    1    0
         5     3    3    1    1
         6     2    4    2    0
    ---------------------------
    n_A/B: # of alpha/beta electrons in GASn

  ==> Building GAS Determinants <==

    Reference determinant: |220220>


  ---------------------------------- Cycle 0 -----------------------------------

  ==> Diagonalizing the Hamiltonian in the P space <==

  Initial P space dimension: 1
  Spin-complete dimension of the P space: 1 determinants

  Davidson-Liu solver algorithm using SigmaVectorSparseList sigma algorithm

  Performing full diagonalization of the H matrix
  Found 1 roots with 2S+1 = 1 *
  Time spent diagonalizing H:   0.000235 s

    P-space  CI Energy Root   0        = -76.017296556092 Eh =   0.0000 eV, S^2 = 0.000000


  ==> Finding the Q space <==

  Using SR screening algorithm
  Time spent forming F space:             0.000044
  Time spent merging thread F spaces:             0.000012
  Size of F space: 30
  Time spent building sorting list: 0.000017
  Dimension of the PQ space:                  17
  Dimension of the PQ space (spin-complete) : 21
  Time spent building the model space: 0.000233

  ==> Diagonalizing the Hamiltonian in the P + Q space <==

  Number of reference roots: 1

  Davidson-Liu solver algorithm using SigmaVectorSparseList sigma algorithm

  Performing full diagonalization of the H matrix
  Found 12 roots with 2S+1 = 1 *
  Found 7 roots with 2S+1 = 3
  Found 2 roots with 2S+1 = 5
  Total time spent diagonalizing H:   0.001670 s

    PQ-space CI Energy Root   0        = -76.029123471339 Eh =   0.0000 eV, S^2 = 0.000000
    PQ-space CI Energy + EPT2 Root   0 = -76.029982762737 Eh =   0.0000 eV


  ==> GAS Contribution Analysis <==

  Root 0:
    Config.  1_A  1_B  2_A  2_B  Contribution
    -----------------------------------------
         1     4    4    0    0  99.27455057%
         2     4    3    0    1   0.00000000%
         3     4    2    0    2   0.03050728%
         4     3    4    1    0   0.00000000%
         5     3    3    1    1   0.66443487%
         6     2    4    2    0   0.03050728%
    -----------------------------------------
               GAS1      GAS2    Contribution
    -----------------------------------------
                  6         2     0.72544943%
                  7         1     0.00000000%
                  8         0    99.27455057%
    -----------------------------------------

  ==> Pruning the Q space <==

  Added 1 missing determinants in aimed selection (prune_q_space).
  Cycle 0 took: 0.003739 s


  ---------------------------------- Cycle 1 -----------------------------------

  ==> Diagonalizing the Hamiltonian in the P space <==

  Initial P space dimension: 14
  Spin-complete dimension of the P space: 20 determinants

  Davidson-Liu solver algorithm using SigmaVectorSparseList sigma algorithm

  Performing full diagonalization of the H matrix
  Found 11 roots with 2S+1 = 1 *
  Found 7 roots with 2S+1 = 3
  Found 2 roots with 2S+1 = 5
  Time spent diagonalizing H:   0.006265 s

    P-space  CI Energy Root   0        = -76.028979920546 Eh =   0.0000 eV, S^2 = 0.000000


  ==> Finding the Q space <==

  Using SR screening algorithm
  Time spent forming F space:             0.001361
  Time spent merging thread F spaces:             0.000030
  Size of F space: 11
  Time spent building sorting list: 0.000024
  Dimension of the PQ space:                  20
  Dimension of the PQ space (spin-complete) : 20
  Time spent building the model space: 0.001673

  ==> Diagonalizing the Hamiltonian in the P + Q space <==

  Number of reference roots: 1

  Davidson-Liu solver algorithm using SigmaVectorSparseList sigma algorithm

  Performing full diagonalization of the H matrix
  Found 11 roots with 2S+1 = 1 *
  Found 7 roots with 2S+1 = 3
  Found 2 roots with 2S+1 = 5
  Total time spent diagonalizing H:   0.004207 s

    PQ-space CI Energy Root   0        = -76.028979920546 Eh =   0.0000 eV, S^2 = 0.000000
    PQ-space CI Energy + EPT2 Root   0 = -76.029738337280 Eh =   0.0000 eV


  ==> GAS Contribution Analysis <==

  Root 0:
    Config.  1_A  1_B  2_A  2_B  Contribution
    -----------------------------------------
         1     4    4    0    0  99.27278004%
         2     4    3    0    1   0.00000000%
         3     4    2    0    2   0.03034986%
         4     3    4    1    0   0.00000000%
         5     3    3    1    1   0.66652024%
         6     2    4    2    0   0.03034986%
    -----------------------------------------
               GAS1      GAS2    Contribution
    -----------------------------------------
                  6         2     0.72721996%
                  7         1     0.00000000%
                  8         0    99.27278004%
    -----------------------------------------

  ==> Pruning the Q space <==

  Added 1 missing determinants in aimed selection (prune_q_space).
  Cycle 1 took: 0.013906 s


  ---------------------------------- Cycle 2 -----------------------------------

  ==> Diagonalizing the Hamiltonian in the P space <==

  Initial P space dimension: 14
  Spin-complete dimension of the P space: 20 determinants

  Davidson-Liu solver algorithm using SigmaVectorSparseList sigma algorithm

  Performing full diagonalization of the H matrix
  Found 11 roots with 2S+1 = 1 *
  Found 7 roots with 2S+1 = 3
  Found 2 roots with 2S+1 = 5
  Time spent diagonalizing H:   0.001580 s

    P-space  CI Energy Root   0        = -76.028979920546 Eh =   0.0000 eV, S^2 = 0.000000


  ==> Finding the Q space <==

  Using SR screening algorithm
  Time spent forming F space:             0.000433
  Time spent merging thread F spaces:             0.000010
  Size of F space: 11
  Time spent building sorting list: 0.000006
  Dimension of the PQ space:                  20
  Dimension of the PQ space (spin-complete) : 20
  Time spent building the model space: 0.000590

  ==> Diagonalizing the Hamiltonian in the P + Q space <==

  Number of reference roots: 1

  Davidson-Liu solver algorithm using SigmaVectorSparseList sigma algorithm

  Performing full diagonalization of the H matrix
  Found 11 roots with 2S+1 = 1 *
  Found 7 roots with 2S+1 = 3
  Found 2 roots with 2S+1 = 5
  Total time spent diagonalizing H:   0.001574 s

    PQ-space CI Energy Root   0        = -76.028979920546 Eh =   0.0000 eV, S^2 = 0.000000
    PQ-space CI Energy + EPT2 Root   0 = -76.029738337280 Eh =   0.0000 eV


  ==> GAS Contribution Analysis <==

  Root 0:
    Config.  1_A  1_B  2_A  2_B  Contribution
    -----------------------------------------
         1     4    4    0    0  99.27278004%
         2     4    3    0    1   0.00000000%
         3     4    2    0    2   0.03034986%
         4     3    4    1    0   0.00000000%
         5     3    3    1    1   0.66652024%
         6     2    4    2    0   0.03034986%
    -----------------------------------------
               GAS1      GAS2    Contribution
    -----------------------------------------
                  6         2     0.72721996%
                  7         1     0.00000000%
                  8         0    99.27278004%
    -----------------------------------------
  ***** Calculation Converged *****

  ==> ACI Natural Orbitals <==

        1B1     2.000000      1A1     1.999796      2A1     1.993796  
        1B2     1.991863      2B2     0.008017      3A1     0.006528  

  ==> Excited state solver summary <==

  Iterations required:                         2
  Dimension of optimized determinant space:    20

  * Selected-CI Energy Root   0        = -76.028979920546 Eh =   0.0000 eV
  * Selected-CI Energy Root   0 + EPT2 = -76.029738337280 Eh =   0.0000 eV

  ==> Wavefunction Information <==

  Most important contributions to root   0:
    0  -0.996357 0.992727800          12 |220220>
    1   0.046652 0.002176444          11 |220202>
    2  -0.026767 0.000716498          10 |2-+2+->
    3  -0.026767 0.000716498           9 |2+-2-+>
    4   0.025449 0.000647670           8 |202220>
    5   0.018067 0.000326430           7 |222200>
    6  -0.017948 0.000322146           5 |-2+2+->
    7  -0.017948 0.000322146           6 |+2-2-+>
    8   0.016314 0.000266149           4 |200222>
    9   0.015707 0.000246701           3 |+-2220>

  Saving information for root: 0

  ==> Energy Summary <==

    Multi.(2ms)  Irrep.  No.               Energy      <S^2>
    --------------------------------------------------------
       1  (  0)    A1     0      -76.028979920546   0.000000
    --------------------------------------------------------

  ==> Dipole Moments [e a0] (Nuclear + Electronic) for Singlet (Ms = 0) A1 <==

  1-RDM  took 0.000424 s (determinant)
       State           DM_X           DM_Y           DM_Z           |DM|
    --------------------------------------------------------------------
         0A1     0.00000000    -0.00000000     0.86865782     0.86865782
    --------------------------------------------------------------------
     Nuclear     0.00000000     0.00000000     1.03508051     1.03508051
    --------------------------------------------------------------------

  ==> Quadrupole Moments [e a0^2] (Nuclear + Electronic) for Singlet (Ms = 0) A1 <==

  1-RDM  took 0.000433 s (determinant)
       State          QM_XX          QM_XY          QM_XZ          QM_YY          QM_YZ          QM_ZZ
    --------------------------------------------------------------------------------------------------
         0A1    -5.41531009     0.00000000     0.00000000    -3.11539675     0.00000000    -4.26156157
    --------------------------------------------------------------------------------------------------
     Nuclear     0.00000000     0.00000000     0.00000000     4.38045134     0.00000000     2.31648182
    --------------------------------------------------------------------------------------------------
  1-RDM  took 0.000435 s (determinant)
  2-RDMS took 0.000974 s (determinant)

  ==> Optimizing Orbitals for Current RDMs <==

    L-BFGS Iter:  1; fx =  -76.041530243952778; g_norm = 5.828387e-02; step = 3.430e-01
    L-BFGS Iter:  2; fx =  -76.052070815894851; g_norm = 4.290628e-02; step = 4.851e-02
    L-BFGS Iter:  3; fx =  -76.059045800442334; g_norm = 2.359015e-02; step = 3.416e-01
    L-BFGS Iter:  4; fx =  -76.060574868911360; g_norm = 3.478109e-02; step = 1.000e+00
    L-BFGS Iter:  5; fx =  -76.060581252022175; g_norm = 4.234938e-02; step = 1.000e+00
    L-BFGS Iter:  6; fx =  -76.060671428269842; g_norm = 4.234938e-02; step = 1.000e+00

  ==> MCSCF Macro Iter. 1 <==

             Energy CI (  Delta E  )         Energy Opt. (  Delta E  )  E_OPT - E_CI   Orbital RMS  Micro  DIIS
      -76.028979920546 (-7.6029e+01)    -76.060671428270 (-7.6061e+01)   -3.1692e-02    1.2910e-02    6/N

--------------------------------------------------------------------------------
               Selected Configuration Interaction Excited States
  written by Jeffrey B. Schriber, Tianyuan Zhang, and Francesco A. Evangelista
--------------------------------------------------------------------------------

  ==> Calculation Information <==

  -----------------------------------------------------------------
    Multiplicity                             1    
    Symmetry                                 0    
    Number of roots                          1    
    Ms                                       0
    Excited Algorithm                        NONE
  -----------------------------------------------------------------
  Using 1 thread(s)
  Computing wavefunction for root 0

        ---------------------------------------------------------------
                      Adaptive Configuration Interaction
          written by Jeffrey B. Schriber and Francesco A. Evangelista
        ---------------------------------------------------------------

  ==> Reference Information <==

  There are 1 frozen orbitals.
  There are 6 active orbitals.

  ==> Calculation Information <==

  -----------------------------------------------------------------
    Multiplicity                             1    
    Symmetry                                 0    
    Number of roots                          1    
    Root used for properties                 0    
    Roots used for averaging                 1    
    Root averaging offset                    0    
    Sigma (Eh)                               1.00e-03
    Gamma (Eh^(-1))                          1.00e+00
    Convergence threshold                    1.00e-09
    Ms                                       0
    Diagonalization algorithm                SPARSE
    Excited Algorithm                        NONE
    Project out spin contaminants            True
    Enforce spin completeness of basis       True
    Enforce complete aimed selection         True
    Multiroot averaging                      Average
  -----------------------------------------------------------------
  Number of active orbitals: 6
  Number of active alpha electrons: 4
  Number of active beta electrons: 4

  ==> GAS Orbital Energies from SCF <==

    GAS        Energy  Index
    ------------------------
     1    -1.32060927      0
     1    -0.56393045      1
     1    -0.49500395      3
     1    -0.67872419      4
     2     0.20246590      2
     2     0.29271934      5
    ------------------------

  ==> Number of Electrons in GAS <==

    GAS  MAX  MIN
    -------------
      1    8    6
      2    2    0
    -------------

  ==> Possible Electron Occupations in GAS <==

    Config.  1_A  1_B  2_A  2_B
    ---------------------------
         1     4    4    0    0
         2     4    3    0    1
         3     4    2    0    2
         4     3    4    1    0
         5     3    3    1    1
         6     2    4    2    0
    ---------------------------
    n_A/B: # of alpha/beta electrons in GASn

  ==> Building GAS Determinants <==

    Reference determinant: |220220>


  ---------------------------------- Cycle 0 -----------------------------------

  ==> Diagonalizing the Hamiltonian in the P space <==

  Initial P space dimension: 1
  Spin-complete dimension of the P space: 1 determinants

  Davidson-Liu solver algorithm using SigmaVectorSparseList sigma algorithm

  Performing full diagonalization of the H matrix
  Found 1 roots with 2S+1 = 1 *
  Time spent diagonalizing H:   0.000124 s

    P-space  CI Energy Root   0        = -76.017102506260 Eh =   0.0000 eV, S^2 = 0.000000


  ==> Finding the Q space <==

  Using SR screening algorithm
  Time spent forming F space:             0.000037
  Time spent merging thread F spaces:             0.000008
  Size of F space: 30
  Time spent building sorting list: 0.000015
  Dimension of the PQ space:                  21
  Dimension of the PQ space (spin-complete) : 21
  Time spent building the model space: 0.000117

  ==> Diagonalizing the Hamiltonian in the P + Q space <==

  Number of reference roots: 1

  Davidson-Liu solver algorithm using SigmaVectorSparseList sigma algorithm

  Performing full diagonalization of the H matrix
  Found 12 roots with 2S+1 = 1 *
  Found 7 roots with 2S+1 = 3
  Found 2 roots with 2S+1 = 5
  Total time spent diagonalizing H:   0.001494 s

    PQ-space CI Energy Root   0        = -76.071362344113 Eh =   0.0000 eV, S^2 = 0.000000
    PQ-space CI Energy + EPT2 Root   0 = -76.072243806481 Eh =   0.0000 eV


  ==> GAS Contribution Analysis <==

  Root 0:
    Config.  1_A  1_B  2_A  2_B  Contribution
    -----------------------------------------
         1     4    4    0    0  97.85037729%
         2     4    3    0    1   0.00000000%
         3     4    2    0    2   0.07017584%
         4     3    4    1    0   0.00000000%
         5     3    3    1    1   2.00927103%
         6     2    4    2    0   0.07017584%
    -----------------------------------------
               GAS1      GAS2    Contribution
    -----------------------------------------
                  6         2     2.14962271%
                  7         1     0.00000000%
                  8         0    97.85037729%
    -----------------------------------------

  ==> Pruning the Q space <==

  Added 1 missing determinants in aimed selection (prune_q_space).
  Cycle 0 took: 0.002190 s


  ---------------------------------- Cycle 1 -----------------------------------

  ==> Diagonalizing the Hamiltonian in the P space <==

  Initial P space dimension: 18
  Spin-complete dimension of the P space: 20 determinants

  Davidson-Liu solver algorithm using SigmaVectorSparseList sigma algorithm

  Performing full diagonalization of the H matrix
  Found 11 roots with 2S+1 = 1 *
  Found 7 roots with 2S+1 = 3
  Found 2 roots with 2S+1 = 5
  Time spent diagonalizing H:   0.001375 s

    P-space  CI Energy Root   0        = -76.070344114062 Eh =   0.0000 eV, S^2 = 0.000000


  ==> Finding the Q space <==

  Using SR screening algorithm
  Time spent forming F space:             0.000402
  Time spent merging thread F spaces:             0.000009
  Size of F space: 11
  Time spent building sorting list: 0.000006
  Dimension of the PQ space:                  21
  Dimension of the PQ space (spin-complete) : 21
  Time spent building the model space: 0.000465

  ==> Diagonalizing the Hamiltonian in the P + Q space <==

  Number of reference roots: 1

  Davidson-Liu solver algorithm using SigmaVectorSparseList sigma algorithm

  Performing full diagonalization of the H matrix
  Found 12 roots with 2S+1 = 1 *
  Found 7 roots with 2S+1 = 3
  Found 2 roots with 2S+1 = 5
  Total time spent diagonalizing H:   0.001436 s

    PQ-space CI Energy Root   0        = -76.071362344113 Eh =   0.0000 eV, S^2 = 0.000000
    PQ-space CI Energy + EPT2 Root   0 = -76.071923840553 Eh =   0.0000 eV


  ==> GAS Contribution Analysis <==

  Root 0:
    Config.  1_A  1_B  2_A  2_B  Contribution
    -----------------------------------------
         1     4    4    0    0  97.85037729%
         2     4    3    0    1   0.00000000%
         3     4    2    0    2   0.07017584%
         4     3    4    1    0   0.00000000%
         5     3    3    1    1   2.00927103%
         6     2    4    2    0   0.07017584%
    -----------------------------------------
               GAS1      GAS2    Contribution
    -----------------------------------------
                  6         2     2.14962271%
                  7         1     0.00000000%
                  8         0    97.85037729%
    -----------------------------------------
  ***** Calculation Converged *****

  ==> ACI Natural Orbitals <==

        1B1     2.000000      1A1     1.998986      2A1     1.979981  
        1B2     1.978041      2B2     0.022354      3A1     0.020639  

  ==> Excited state solver summary <==

  Iterations required:                         1
  Dimension of optimized determinant space:    21

  * Selected-CI Energy Root   0        = -76.071362344113 Eh =   0.0000 eV
  * Selected-CI Energy Root   0 + EPT2 = -76.071923840553 Eh =   0.0000 eV

  ==> Wavefunction Information <==

  Most important contributions to root   0:
    0   0.989193 0.978503773          16 |220220>
    1  -0.074802 0.005595393          15 |220202>
    2  -0.048133 0.002316797          14 |202220>
    3   0.046557 0.002167540          13 |2-+2+->
    4   0.046557 0.002167540          12 |2+-2-+>
    5   0.030123 0.000907374          11 |-2+2+->
    6   0.030123 0.000907374          10 |+2-2-+>
    7  -0.029638 0.000878386           9 |+-2220>
    8  -0.029638 0.000878386           8 |-+2220>
    9  -0.029354 0.000861636           7 |022220>

  Saving information for root: 0

  ==> Energy Summary <==

    Multi.(2ms)  Irrep.  No.               Energy      <S^2>
    --------------------------------------------------------
       1  (  0)    A1     0      -76.071362344113   0.000000
    --------------------------------------------------------

  ==> Dipole Moments [e a0] (Nuclear + Electronic) for Singlet (Ms = 0) A1 <==

  1-RDM  took 0.000410 s (determinant)
       State           DM_X           DM_Y           DM_Z           |DM|
    --------------------------------------------------------------------
         0A1     0.00000000    -0.00000000     0.84325374     0.84325374
    --------------------------------------------------------------------
     Nuclear     0.00000000     0.00000000     1.03508051     1.03508051
    --------------------------------------------------------------------

  ==> Quadrupole Moments [e a0^2] (Nuclear + Electronic) for Singlet (Ms = 0) A1 <==

  1-RDM  took 0.000404 s (determinant)
       State          QM_XX          QM_XY          QM_XZ          QM_YY          QM_YZ          QM_ZZ
    --------------------------------------------------------------------------------------------------
         0A1    -5.44936379     0.00000000     0.00000000    -3.24041491     0.00000000    -4.33789511
    --------------------------------------------------------------------------------------------------
     Nuclear     0.00000000     0.00000000     0.00000000     4.38045134     0.00000000     2.31648182
    --------------------------------------------------------------------------------------------------
  1-RDM  took 0.000403 s (determinant)
  2-RDMS took 0.000955 s (determinant)

  ==> Optimizing Orbitals for Current RDMs <==

    L-BFGS Iter:  1; fx =  -76.072186188658748; g_norm = 1.640614e-02; step = 1.000e+00
    L-BFGS Iter:  2; fx =  -76.072288609986202; g_norm = 1.377303e-02; step = 1.000e+00
    L-BFGS Iter:  3; fx =  -76.072314201700806; g_norm = 5.688221e-03; step = 1.000e+00
    L-BFGS Iter:  4; fx =  -76.072327627286811; g_norm = 3.341024e-03; step = 1.000e+00
    L-BFGS Iter:  5; fx =  -76.072337469713858; g_norm = 3.935429e-03; step = 1.000e+00
    L-BFGS Iter:  6; fx =  -76.072342188784859; g_norm = 3.935429e-03; step = 1.000e+00

  ==> MCSCF Macro Iter. 2 <==

             Energy CI (  Delta E  )         Energy Opt. (  Delta E  )  E_OPT - E_CI   Orbital RMS  Micro  DIIS
      -76.071362344113 (-4.2382e-02)    -76.072342188785 (-1.1671e-02)   -9.7984e-04    6.1005e-03    6/N

--------------------------------------------------------------------------------
               Selected Configuration Interaction Excited States
  written by Jeffrey B. Schriber, Tianyuan Zhang, and Francesco A. Evangelista
--------------------------------------------------------------------------------

  ==> Calculation Information <==

  -----------------------------------------------------------------
    Multiplicity                             1    
    Symmetry                                 0    
    Number of roots                          1    
    Ms                                       0
    Excited Algorithm                        NONE
  -----------------------------------------------------------------
  Using 1 thread(s)
  Computing wavefunction for root 0

        ---------------------------------------------------------------
                      Adaptive Configuration Interaction
          written by Jeffrey B. Schriber and Francesco A. Evangelista
        ---------------------------------------------------------------

  ==> Reference Information <==

  There are 1 frozen orbitals.
  There are 6 active orbitals.

  ==> Calculation Information <==

  -----------------------------------------------------------------
    Multiplicity                             1    
    Symmetry                                 0    
    Number of roots                          1    
    Root used for properties                 0    
    Roots used for averaging                 1    
    Root averaging offset                    0    
    Sigma (Eh)                               1.00e-03
    Gamma (Eh^(-1))                          1.00e+00
    Convergence threshold                    1.00e-09
    Ms                                       0
    Diagonalization algorithm                SPARSE
    Excited Algorithm                        NONE
    Project out spin contaminants            True
    Enforce spin completeness of basis       True
    Enforce complete aimed selection         True
    Multiroot averaging                      Average
  -----------------------------------------------------------------
  Number of active orbitals: 6
  Number of active alpha electrons: 4
  Number of active beta electrons: 4

  ==> GAS Orbital Energies from SCF <==

    GAS        Energy  Index
    ------------------------
     1    -1.32060927      0
     1    -0.56393045      1
     1    -0.49500395      3
     1    -0.67872419      4
     2     0.20246590      2
     2     0.29271934      5
    ------------------------

  ==> Number of Electrons in GAS <==

    GAS  MAX  MIN
    -------------
      1    8    6
      2    2    0
    -------------

  ==> Possible Electron Occupations in GAS <==

    Config.  1_A  1_B  2_A  2_B
    ---------------------------
         1     4    4    0    0
         2     4    3    0    1
         3     4    2    0    2
         4     3    4    1    0
         5     3    3    1    1
         6     2    4    2    0
    ---------------------------
    n_A/B: # of alpha/beta electrons in GASn

  ==> Building GAS Determinants <==

    Reference determinant: |220220>


  ---------------------------------- Cycle 0 -----------------------------------

  ==> Diagonalizing the Hamiltonian in the P space <==

  Initial P space dimension: 1
  Spin-complete dimension of the P space: 1 determinants

  Davidson-Liu solver algorithm using SigmaVectorSparseList sigma algorithm

  Performing full diagonalization of the H matrix
  Found 1 roots with 2S+1 = 1 *
  Time spent diagonalizing H:   0.000111 s

    P-space  CI Energy Root   0        = -76.016653570329 Eh =   0.0000 eV, S^2 = 0.000000


  ==> Finding the Q space <==

  Using SR screening algorithm
  Time spent forming F space:             0.000034
  Time spent merging thread F spaces:             0.000008
  Size of F space: 30
  Time spent building sorting list: 0.000015
  Dimension of the PQ space:                  21
  Dimension of the PQ space (spin-complete) : 21
  Time spent building the model space: 0.000114

  ==> Diagonalizing the Hamiltonian in the P + Q space <==

  Number of reference roots: 1

  Davidson-Liu solver algorithm using SigmaVectorSparseList sigma algorithm

  Performing full diagonalization of the H matrix
  Found 12 roots with 2S+1 = 1 *
  Found 7 roots with 2S+1 = 3
  Found 2 roots with 2S+1 = 5
  Total time spent diagonalizing H:   0.001467 s

    PQ-space CI Energy Root   0        = -76.072514499422 Eh =   0.0000 eV, S^2 = 0.000000
    PQ-space CI Energy + EPT2 Root   0 = -76.073478244962 Eh =   0.0000 eV


  ==> GAS Contribution Analysis <==

  Root 0:
    Config.  1_A  1_B  2_A  2_B  Contribution
    -----------------------------------------
         1     4    4    0    0  97.59806672%
         2     4    3    0    1   0.00000000%
         3     4    2    0    2   0.07227592%
         4     3    4    1    0   0.00000000%
         5     3    3    1    1   2.25738144%
         6     2    4    2    0   0.07227592%
    -----------------------------------------
               GAS1      GAS2    Contribution
    -----------------------------------------
                  6         2     2.40193328%
                  7         1     0.00000000%
                  8         0    97.59806672%
    -----------------------------------------

  ==> Pruning the Q space <==

  Added 1 missing determinants in aimed selection (prune_q_space).
  Cycle 0 took: 0.002144 s


  ---------------------------------- Cycle 1 -----------------------------------

  ==> Diagonalizing the Hamiltonian in the P space <==

  Initial P space dimension: 18
  Spin-complete dimension of the P space: 20 determinants

  Davidson-Liu solver algorithm using SigmaVectorSparseList sigma algorithm

  Performing full diagonalization of the H matrix
  Found 11 roots with 2S+1 = 1 *
  Found 7 roots with 2S+1 = 3
  Found 2 roots with 2S+1 = 5
  Time spent diagonalizing H:   0.001392 s

    P-space  CI Energy Root   0        = -76.071510442795 Eh =   0.0000 eV, S^2 = 0.000000


  ==> Finding the Q space <==

  Using SR screening algorithm
  Time spent forming F space:             0.000401
  Time spent merging thread F spaces:             0.000008
  Size of F space: 11
  Time spent building sorting list: 0.000006
  Dimension of the PQ space:                  21
  Dimension of the PQ space (spin-complete) : 21
  Time spent building the model space: 0.000464

  ==> Diagonalizing the Hamiltonian in the P + Q space <==

  Number of reference roots: 1

  Davidson-Liu solver algorithm using SigmaVectorSparseList sigma algorithm

  Performing full diagonalization of the H matrix
  Found 12 roots with 2S+1 = 1 *
  Found 7 roots with 2S+1 = 3
  Found 2 roots with 2S+1 = 5
  Total time spent diagonalizing H:   0.001433 s

    PQ-space CI Energy Root   0        = -76.072514499422 Eh =   0.0000 eV, S^2 = 0.000000
    PQ-space CI Energy + EPT2 Root   0 = -76.073073253992 Eh =   0.0000 eV


  ==> GAS Contribution Analysis <==

  Root 0:
    Config.  1_A  1_B  2_A  2_B  Contribution
    -----------------------------------------
         1     4    4    0    0  97.59806672%
         2     4    3    0    1   0.00000000%
         3     4    2    0    2   0.07227592%
         4     3    4    1    0   0.00000000%
         5     3    3    1    1   2.25738144%
         6     2    4    2    0   0.07227592%
    -----------------------------------------
               GAS1      GAS2    Contribution
    -----------------------------------------
                  6         2     2.40193328%
                  7         1     0.00000000%
                  8         0    97.59806672%
    -----------------------------------------
  ***** Calculation Converged *****

  ==> ACI Natural Orbitals <==

        1B1     2.000000      1A1     1.998895      2A1     1.977515  
        1B2     1.975552      2B2     0.024838      3A1     0.023201  

  ==> Excited state solver summary <==

  Iterations required:                         1
  Dimension of optimized determinant space:    21

  * Selected-CI Energy Root   0        = -76.072514499422 Eh =   0.0000 eV
  * Selected-CI Energy Root   0 + EPT2 = -76.073073253992 Eh =   0.0000 eV

  ==> Wavefunction Information <==

  Most important contributions to root   0:
    0   0.987917 0.975980667          16 |220220>
    1  -0.078522 0.006165629          15 |220202>
    2  -0.051525 0.002654808          14 |202220>
    3   0.049685 0.002468635          13 |2-+2+->
    4   0.049685 0.002468635          12 |2+-2-+>
    5  -0.031343 0.000982390          11 |+-2220>
    6  -0.031343 0.000982390          10 |-+2220>
    7   0.030833 0.000950685           9 |-2+2+->
    8   0.030833 0.000950685           8 |+2-2-+>
    9  -0.030366 0.000922077           7 |022220>

  Saving information for root: 0

  ==> Energy Summary <==

    Multi.(2ms)  Irrep.  No.               Energy      <S^2>
    --------------------------------------------------------
       1  (  0)    A1     0      -76.072514499422   0.000000
    --------------------------------------------------------

  ==> Dipole Moments [e a0] (Nuclear + Electronic) for Singlet (Ms = 0) A1 <==

  1-RDM  took 0.000404 s (determinant)
       State           DM_X           DM_Y           DM_Z           |DM|
    --------------------------------------------------------------------
         0A1     0.00000000    -0.00000000     0.83842858     0.83842858
    --------------------------------------------------------------------
     Nuclear     0.00000000     0.00000000     1.03508051     1.03508051
    --------------------------------------------------------------------

  ==> Quadrupole Moments [e a0^2] (Nuclear + Electronic) for Singlet (Ms = 0) A1 <==

  1-RDM  took 0.000406 s (determinant)
       State          QM_XX          QM_XY          QM_XZ          QM_YY          QM_YZ          QM_ZZ
    --------------------------------------------------------------------------------------------------
         0A1    -5.45542903     0.00000000     0.00000000    -3.26255123     0.00000000    -4.35118064
    --------------------------------------------------------------------------------------------------
     Nuclear     0.00000000     0.00000000     0.00000000     4.38045134     0.00000000     2.31648182
    --------------------------------------------------------------------------------------------------
  1-RDM  took 0.000408 s (determinant)
  2-RDMS took 0.000945 s (determinant)

  ==> Optimizing Orbitals for Current RDMs <==

    L-BFGS Iter:  1; fx =  -76.072542456975626; g_norm = 2.670730e-03; step = 1.000e+00
    L-BFGS Iter:  2; fx =  -76.072544568283007; g_norm = 2.119947e-03; step = 1.000e+00
    L-BFGS Iter:  3; fx =  -76.072545157969955; g_norm = 6.694244e-04; step = 1.000e+00
    L-BFGS Iter:  4; fx =  -76.072545354487929; g_norm = 4.358077e-04; step = 1.000e+00
    L-BFGS Iter:  5; fx =  -76.072545739668641; g_norm = 8.187222e-04; step = 1.000e+00
    L-BFGS Iter:  6; fx =  -76.072545832950240; g_norm = 8.187222e-04; step = 1.000e+00

  ==> MCSCF Macro Iter. 3 <==

             Energy CI (  Delta E  )         Energy Opt. (  Delta E  )  E_OPT - E_CI   Orbital RMS  Micro  DIIS
      -76.072514499422 (-1.1522e-03)    -76.072545832950 (-2.0364e-04)   -3.1334e-05    4.5392e-04    6/N

--------------------------------------------------------------------------------
               Selected Configuration Interaction Excited States
  written by Jeffrey B. Schriber, Tianyuan Zhang, and Francesco A. Evangelista
--------------------------------------------------------------------------------

  ==> Calculation Information <==

  -----------------------------------------------------------------
    Multiplicity                             1    
    Symmetry                                 0    
    Number of roots                          1    
    Ms                                       0
    Excited Algorithm                        NONE
  -----------------------------------------------------------------
  Using 1 thread(s)
  Computing wavefunction for root 0

        ---------------------------------------------------------------
                      Adaptive Configuration Interaction
          written by Jeffrey B. Schriber and Francesco A. Evangelista
        ---------------------------------------------------------------

  ==> Reference Information <==

  There are 1 frozen orbitals.
  There are 6 active orbitals.

  ==> Calculation Information <==

  -----------------------------------------------------------------
    Multiplicity                             1    
    Symmetry                                 0    
    Number of roots                          1    
    Root used for properties                 0    
    Roots used for averaging                 1    
    Root averaging offset                    0    
    Sigma (Eh)                               1.00e-03
    Gamma (Eh^(-1))                          1.00e+00
    Convergence threshold                    1.00e-09
    Ms                                       0
    Diagonalization algorithm                SPARSE
    Excited Algorithm                        NONE
    Project out spin contaminants            True
    Enforce spin completeness of basis       True
    Enforce complete aimed selection         True
    Multiroot averaging                      Average
  -----------------------------------------------------------------
  Number of active orbitals: 6
  Number of active alpha electrons: 4
  Number of active beta electrons: 4

  ==> GAS Orbital Energies from SCF <==

    GAS        Energy  Index
    ------------------------
     1    -1.32060927      0
     1    -0.56393045      1
     1    -0.49500395      3
     1    -0.67872419      4
     2     0.20246590      2
     2     0.29271934      5
    ------------------------

  ==> Number of Electrons in GAS <==

    GAS  MAX  MIN
    -------------
      1    8    6
      2    2    0
    -------------

  ==> Possible Electron Occupations in GAS <==

    Config.  1_A  1_B  2_A  2_B
    ---------------------------
         1     4    4    0    0
         2     4    3    0    1
         3     4    2    0    2
         4     3    4    1    0
         5     3    3    1    1
         6     2    4    2    0
    ---------------------------
    n_A/B: # of alpha/beta electrons in GASn

  ==> Building GAS Determinants <==

    Reference determinant: |220220>


  ---------------------------------- Cycle 0 -----------------------------------

  ==> Diagonalizing the Hamiltonian in the P space <==

  Initial P space dimension: 1
  Spin-complete dimension of the P space: 1 determinants

  Davidson-Liu solver algorithm using SigmaVectorSparseList sigma algorithm

  Performing full diagonalization of the H matrix
  Found 1 roots with 2S+1 = 1 *
  Time spent diagonalizing H:   0.000112 s

    P-space  CI Energy Root   0        = -76.016591422590 Eh =   0.0000 eV, S^2 = 0.000000


  ==> Finding the Q space <==

  Using SR screening algorithm
  Time spent forming F space:             0.000035
  Time spent merging thread F spaces:             0.000008
  Size of F space: 30
  Time spent building sorting list: 0.000016
  Dimension of the PQ space:                  21
  Dimension of the PQ space (spin-complete) : 21
  Time spent building the model space: 0.000116

  ==> Diagonalizing the Hamiltonian in the P + Q space <==

  Number of reference roots: 1

  Davidson-Liu solver algorithm using SigmaVectorSparseList sigma algorithm

  Performing full diagonalization of the H matrix
  Found 12 roots with 2S+1 = 1 *
  Found 7 roots with 2S+1 = 3
  Found 2 roots with 2S+1 = 5
  Total time spent diagonalizing H:   0.001448 s

    PQ-space CI Energy Root   0        = -76.072551295990 Eh =   0.0000 eV, S^2 = 0.000000
    PQ-space CI Energy + EPT2 Root   0 = -76.073535980962 Eh =   0.0000 eV


  ==> GAS Contribution Analysis <==

  Root 0:
    Config.  1_A  1_B  2_A  2_B  Contribution
    -----------------------------------------
         1     4    4    0    0  97.55966300%
         2     4    3    0    1   0.00000000%
         3     4    2    0    2   0.07159219%
         4     3    4    1    0   0.00000000%
         5     3    3    1    1   2.29715261%
         6     2    4    2    0   0.07159219%
    -----------------------------------------
               GAS1      GAS2    Contribution
    -----------------------------------------
                  6         2     2.44033700%
                  7         1     0.00000000%
                  8         0    97.55966300%
    -----------------------------------------

  ==> Pruning the Q space <==

  Added 1 missing determinants in aimed selection (prune_q_space).
  Cycle 0 took: 0.002137 s


  ---------------------------------- Cycle 1 -----------------------------------

  ==> Diagonalizing the Hamiltonian in the P space <==

  Initial P space dimension: 18
  Spin-complete dimension of the P space: 20 determinants

  Davidson-Liu solver algorithm using SigmaVectorSparseList sigma algorithm

  Performing full diagonalization of the H matrix
  Found 11 roots with 2S+1 = 1 *
  Found 7 roots with 2S+1 = 3
  Found 2 roots with 2S+1 = 5
  Time spent diagonalizing H:   0.001381 s

    P-space  CI Energy Root   0        = -76.071560310971 Eh =   0.0000 eV, S^2 = 0.000000


  ==> Finding the Q space <==

  Using SR screening algorithm
  Time spent forming F space:             0.000402
  Time spent merging thread F spaces:             0.000009
  Size of F space: 11
  Time spent building sorting list: 0.000006
  Dimension of the PQ space:                  21
  Dimension of the PQ space (spin-complete) : 21
  Time spent building the model space: 0.000471

  ==> Diagonalizing the Hamiltonian in the P + Q space <==

  Number of reference roots: 1

  Davidson-Liu solver algorithm using SigmaVectorSparseList sigma algorithm

  Performing full diagonalization of the H matrix
  Found 12 roots with 2S+1 = 1 *
  Found 7 roots with 2S+1 = 3
  Found 2 roots with 2S+1 = 5
  Total time spent diagonalizing H:   0.001432 s

    PQ-space CI Energy Root   0        = -76.072551295990 Eh =   0.0000 eV, S^2 = 0.000000
    PQ-space CI Energy + EPT2 Root   0 = -76.073109266764 Eh =   0.0000 eV


  ==> GAS Contribution Analysis <==

  Root 0:
    Config.  1_A  1_B  2_A  2_B  Contribution
    -----------------------------------------
         1     4    4    0    0  97.55966300%
         2     4    3    0    1   0.00000000%
         3     4    2    0    2   0.07159219%
         4     3    4    1    0   0.00000000%
         5     3    3    1    1   2.29715261%
         6     2    4    2    0   0.07159219%
    -----------------------------------------
               GAS1      GAS2    Contribution
    -----------------------------------------
                  6         2     2.44033700%
                  7         1     0.00000000%
                  8         0    97.55966300%
    -----------------------------------------
  ***** Calculation Converged *****

  ==> ACI Natural Orbitals <==

        1B1     2.000000      1A1     1.998885      2A1     1.977146  
        1B2     1.975162      2B2     0.025240      3A1     0.023567  

  ==> Excited state solver summary <==

  Iterations required:                         1
  Dimension of optimized determinant space:    21

  * Selected-CI Energy Root   0        = -76.072551295990 Eh =   0.0000 eV
  * Selected-CI Energy Root   0 + EPT2 = -76.073109266764 Eh =   0.0000 eV

  ==> Wavefunction Information <==

  Most important contributions to root   0:
    0   0.987723 0.975596630          16 |220220>
    1  -0.079124 0.006260658          15 |220202>
    2  -0.052070 0.002711329          14 |202220>
    3   0.050226 0.002522625          13 |2-+2+->
    4   0.050226 0.002522625          12 |2+-2-+>
    5  -0.031567 0.000996468          11 |+-2220>
    6  -0.031567 0.000996468          10 |-+2220>
    7   0.030720 0.000943704           9 |-2+2+->
    8   0.030720 0.000943704           8 |+2-2-+>
    9  -0.030347 0.000920968           7 |022220>

  Saving information for root: 0

  ==> Energy Summary <==

    Multi.(2ms)  Irrep.  No.               Energy      <S^2>
    --------------------------------------------------------
       1  (  0)    A1     0      -76.072551295990   0.000000
    --------------------------------------------------------

  ==> Dipole Moments [e a0] (Nuclear + Electronic) for Singlet (Ms = 0) A1 <==

  1-RDM  took 0.000404 s (determinant)
       State           DM_X           DM_Y           DM_Z           |DM|
    --------------------------------------------------------------------
         0A1     0.00000000    -0.00000000     0.83762414     0.83762414
    --------------------------------------------------------------------
     Nuclear     0.00000000     0.00000000     1.03508051     1.03508051
    --------------------------------------------------------------------

  ==> Quadrupole Moments [e a0^2] (Nuclear + Electronic) for Singlet (Ms = 0) A1 <==

  1-RDM  took 0.000415 s (determinant)
       State          QM_XX          QM_XY          QM_XZ          QM_YY          QM_YZ          QM_ZZ
    --------------------------------------------------------------------------------------------------
         0A1    -5.45634721     0.00000000     0.00000000    -3.26595204     0.00000000    -4.35314136
    --------------------------------------------------------------------------------------------------
     Nuclear     0.00000000     0.00000000     0.00000000     4.38045134     0.00000000     2.31648182
    --------------------------------------------------------------------------------------------------
  1-RDM  took 0.000407 s (determinant)
  2-RDMS took 0.000942 s (determinant)

  ==> Optimizing Orbitals for Current RDMs <==

    L-BFGS Iter:  1; fx =  -76.072552394094927; g_norm = 6.856087e-04; step = 1.000e+00
    L-BFGS Iter:  2; fx =  -76.072552469706977; g_norm = 3.583785e-04; step = 1.000e+00
    L-BFGS Iter:  3; fx =  -76.072552492635140; g_norm = 1.476845e-04; step = 1.000e+00
    L-BFGS Iter:  4; fx =  -76.072552494479183; g_norm = 9.176887e-05; step = 1.000e+00
    L-BFGS Iter:  5; fx =  -76.072552495375064; g_norm = 3.213453e-05; step = 1.000e+00
    L-BFGS Iter:  6; fx =  -76.072552495445308; g_norm = 3.213453e-05; step = 1.000e+00

  ==> MCSCF Macro Iter. 4 <==

             Energy CI (  Delta E  )         Energy Opt. (  Delta E  )  E_OPT - E_CI   Orbital RMS  Micro  DIIS
      -76.072551295990 (-3.6797e-05)    -76.072552495445 (-6.6625e-06)   -1.1995e-06    1.1159e-04    6/N

--------------------------------------------------------------------------------
               Selected Configuration Interaction Excited States
  written by Jeffrey B. Schriber, Tianyuan Zhang, and Francesco A. Evangelista
--------------------------------------------------------------------------------

  ==> Calculation Information <==

  -----------------------------------------------------------------
    Multiplicity                             1    
    Symmetry                                 0    
    Number of roots                          1    
    Ms                                       0
    Excited Algorithm                        NONE
  -----------------------------------------------------------------
  Using 1 thread(s)
  Computing wavefunction for root 0

        ---------------------------------------------------------------
                      Adaptive Configuration Interaction
          written by Jeffrey B. Schriber and Francesco A. Evangelista
        ---------------------------------------------------------------

  ==> Reference Information <==

  There are 1 frozen orbitals.
  There are 6 active orbitals.

  ==> Calculation Information <==

  -----------------------------------------------------------------
    Multiplicity                             1    
    Symmetry                                 0    
    Number of roots                          1    
    Root used for properties                 0    
    Roots used for averaging                 1    
    Root averaging offset                    0    
    Sigma (Eh)                               1.00e-03
    Gamma (Eh^(-1))                          1.00e+00
    Convergence threshold                    1.00e-09
    Ms                                       0
    Diagonalization algorithm                SPARSE
    Excited Algorithm                        NONE
    Project out spin contaminants            True
    Enforce spin completeness of basis       True
    Enforce complete aimed selection         True
    Multiroot averaging                      Average
  -----------------------------------------------------------------
  Number of active orbitals: 6
  Number of active alpha electrons: 4
  Number of active beta electrons: 4

  ==> GAS Orbital Energies from SCF <==

    GAS        Energy  Index
    ------------------------
     1    -1.32060927      0
     1    -0.56393045      1
     1    -0.49500395      3
     1    -0.67872419      4
     2     0.20246590      2
     2     0.29271934      5
    ------------------------

  ==> Number of Electrons in GAS <==

    GAS  MAX  MIN
    -------------
      1    8    6
      2    2    0
    -------------

  ==> Possible Electron Occupations in GAS <==

    Config.  1_A  1_B  2_A  2_B
    ---------------------------
         1     4    4    0    0
         2     4    3    0    1
         3     4    2    0    2
         4     3    4    1    0
         5     3    3    1    1
         6     2    4    2    0
    ---------------------------
    n_A/B: # of alpha/beta electrons in GASn

  ==> Building GAS Determinants <==

    Reference determinant: |220220>


  ---------------------------------- Cycle 0 -----------------------------------

  ==> Diagonalizing the Hamiltonian in the P space <==

  Initial P space dimension: 1
  Spin-complete dimension of the P space: 1 determinants

  Davidson-Liu solver algorithm using SigmaVectorSparseList sigma algorithm

  Performing full diagonalization of the H matrix
  Found 1 roots with 2S+1 = 1 *
  Time spent diagonalizing H:   0.000112 s

    P-space  CI Energy Root   0        = -76.016580064509 Eh =   0.0000 eV, S^2 = 0.000000


  ==> Finding the Q space <==

  Using SR screening algorithm
  Time spent forming F space:             0.000034
  Time spent merging thread F spaces:             0.000008
  Size of F space: 30
  Time spent building sorting list: 0.000015
  Dimension of the PQ space:                  21
  Dimension of the PQ space (spin-complete) : 21
  Time spent building the model space: 0.000113

  ==> Diagonalizing the Hamiltonian in the P + Q space <==

  Number of reference roots: 1

  Davidson-Liu solver algorithm using SigmaVectorSparseList sigma algorithm

  Performing full diagonalization of the H matrix
  Found 12 roots with 2S+1 = 1 *
  Found 7 roots with 2S+1 = 3
  Found 2 roots with 2S+1 = 5
  Total time spent diagonalizing H:   0.001464 s

    PQ-space CI Energy Root   0        = -76.072552790388 Eh =   0.0000 eV, S^2 = 0.000000
    PQ-space CI Energy + EPT2 Root   0 = -76.073541250219 Eh =   0.0000 eV


  ==> GAS Contribution Analysis <==

  Root 0:
    Config.  1_A  1_B  2_A  2_B  Contribution
    -----------------------------------------
         1     4    4    0    0  97.55301146%
         2     4    3    0    1   0.00000000%
         3     4    2    0    2   0.07144324%
         4     3    4    1    0   0.00000000%
         5     3    3    1    1   2.30410206%
         6     2    4    2    0   0.07144324%
    -----------------------------------------
               GAS1      GAS2    Contribution
    -----------------------------------------
                  6         2     2.44698854%
                  7         1     0.00000000%
                  8         0    97.55301146%
    -----------------------------------------

  ==> Pruning the Q space <==

  Added 1 missing determinants in aimed selection (prune_q_space).
  Cycle 0 took: 0.002146 s


  ---------------------------------- Cycle 1 -----------------------------------

  ==> Diagonalizing the Hamiltonian in the P space <==

  Initial P space dimension: 18
  Spin-complete dimension of the P space: 20 determinants

  Davidson-Liu solver algorithm using SigmaVectorSparseList sigma algorithm

  Performing full diagonalization of the H matrix
  Found 11 roots with 2S+1 = 1 *
  Found 7 roots with 2S+1 = 3
  Found 2 roots with 2S+1 = 5
  Time spent diagonalizing H:   0.001374 s

    P-space  CI Energy Root   0        = -76.071565412589 Eh =   0.0000 eV, S^2 = 0.000000


  ==> Finding the Q space <==

  Using SR screening algorithm
  Time spent forming F space:             0.000402
  Time spent merging thread F spaces:             0.000008
  Size of F space: 11
  Time spent building sorting list: 0.000006
  Dimension of the PQ space:                  21
  Dimension of the PQ space (spin-complete) : 21
  Time spent building the model space: 0.000465

  ==> Diagonalizing the Hamiltonian in the P + Q space <==

  Number of reference roots: 1

  Davidson-Liu solver algorithm using SigmaVectorSparseList sigma algorithm

  Performing full diagonalization of the H matrix
  Found 12 roots with 2S+1 = 1 *
  Found 7 roots with 2S+1 = 3
  Found 2 roots with 2S+1 = 5
  Total time spent diagonalizing H:   0.001433 s

    PQ-space CI Energy Root   0        = -76.072552790388 Eh =   0.0000 eV, S^2 = 0.000000
    PQ-space CI Energy + EPT2 Root   0 = -76.073110375275 Eh =   0.0000 eV


  ==> GAS Contribution Analysis <==

  Root 0:
    Config.  1_A  1_B  2_A  2_B  Contribution
    -----------------------------------------
         1     4    4    0    0  97.55301146%
         2     4    3    0    1   0.00000000%
         3     4    2    0    2   0.07144324%
         4     3    4    1    0   0.00000000%
         5     3    3    1    1   2.30410206%
         6     2    4    2    0   0.07144324%
    -----------------------------------------
               GAS1      GAS2    Contribution
    -----------------------------------------
                  6         2     2.44698854%
                  7         1     0.00000000%
                  8         0    97.55301146%
    -----------------------------------------
  ***** Calculation Converged *****

  ==> ACI Natural Orbitals <==

        1B1     2.000000      1A1     1.998881      2A1     1.977079  
        1B2     1.975100      2B2     0.025314      3A1     0.023626  

  ==> Excited state solver summary <==

  Iterations required:                         1
  Dimension of optimized determinant space:    21

  * Selected-CI Energy Root   0        = -76.072552790388 Eh =   0.0000 eV
  * Selected-CI Energy Root   0 + EPT2 = -76.073110375275 Eh =   0.0000 eV

  ==> Wavefunction Information <==

  Most important contributions to root   0:
    0   0.987689 0.975530115          16 |220220>
    1  -0.079224 0.006276418          15 |220202>
    2  -0.052210 0.002725890          14 |202220>
    3   0.050347 0.002534794          13 |2-+2+->
    4   0.050347 0.002534794          12 |2+-2-+>
    5  -0.031582 0.000997419          11 |+-2220>
    6  -0.031582 0.000997419          10 |-+2220>
    7   0.030647 0.000939211           9 |-2+2+->
    8   0.030647 0.000939211           8 |+2-2-+>
    9  -0.030368 0.000922230           7 |222200>

  Saving information for root: 0

  ==> Energy Summary <==

    Multi.(2ms)  Irrep.  No.               Energy      <S^2>
    --------------------------------------------------------
       1  (  0)    A1     0      -76.072552790388   0.000000
    --------------------------------------------------------

  ==> Dipole Moments [e a0] (Nuclear + Electronic) for Singlet (Ms = 0) A1 <==

  1-RDM  took 0.000408 s (determinant)
       State           DM_X           DM_Y           DM_Z           |DM|
    --------------------------------------------------------------------
         0A1     0.00000000    -0.00000000     0.83746407     0.83746407
    --------------------------------------------------------------------
     Nuclear     0.00000000     0.00000000     1.03508051     1.03508051
    --------------------------------------------------------------------

  ==> Quadrupole Moments [e a0^2] (Nuclear + Electronic) for Singlet (Ms = 0) A1 <==

  1-RDM  took 0.000402 s (determinant)
       State          QM_XX          QM_XY          QM_XZ          QM_YY          QM_YZ          QM_ZZ
    --------------------------------------------------------------------------------------------------
         0A1    -5.45650503     0.00000000     0.00000000    -3.26655763     0.00000000    -4.35346102
    --------------------------------------------------------------------------------------------------
     Nuclear     0.00000000     0.00000000     0.00000000     4.38045134     0.00000000     2.31648182
    --------------------------------------------------------------------------------------------------
  1-RDM  took 0.000404 s (determinant)
  2-RDMS took 0.000945 s (determinant)

  ==> Optimizing Orbitals for Current RDMs <==

    L-BFGS Iter:  1; fx =  -76.072552865749088; g_norm = 2.570858e-04; step = 1.000e+00
    L-BFGS Iter:  2; fx =  -76.072552874060193; g_norm = 1.114155e-04; step = 1.000e+00
    L-BFGS Iter:  3; fx =  -76.072552876407741; g_norm = 6.659539e-05; step = 1.000e+00
    L-BFGS Iter:  4; fx =  -76.072552877113651; g_norm = 2.836000e-05; step = 1.000e+00
    L-BFGS Iter:  5; fx =  -76.072552877437232; g_norm = 1.226921e-05; step = 1.000e+00
    L-BFGS Iter:  6; fx =  -76.072552877570189; g_norm = 1.226921e-05; step = 1.000e+00

  ==> MCSCF Macro Iter. 5 <==

             Energy CI (  Delta E  )         Energy Opt. (  Delta E  )  E_OPT - E_CI   Orbital RMS  Micro  DIIS
      -76.072552790388 (-1.4944e-06)    -76.072552877570 (-3.8212e-07)   -8.7182e-08    4.5768e-06    6/N

--------------------------------------------------------------------------------
               Selected Configuration Interaction Excited States
  written by Jeffrey B. Schriber, Tianyuan Zhang, and Francesco A. Evangelista
--------------------------------------------------------------------------------

  ==> Calculation Information <==

  -----------------------------------------------------------------
    Multiplicity                             1    
    Symmetry                                 0    
    Number of roots                          1    
    Ms                                       0
    Excited Algorithm                        NONE
  -----------------------------------------------------------------
  Using 1 thread(s)
  Computing wavefunction for root 0

        ---------------------------------------------------------------
                      Adaptive Configuration Interaction
          written by Jeffrey B. Schriber and Francesco A. Evangelista
        ---------------------------------------------------------------

  ==> Reference Information <==

  There are 1 frozen orbitals.
  There are 6 active orbitals.

  ==> Calculation Information <==

  -----------------------------------------------------------------
    Multiplicity                             1    
    Symmetry                                 0    
    Number of roots                          1    
    Root used for properties                 0    
    Roots used for averaging                 1    
    Root averaging offset                    0    
    Sigma (Eh)                               1.00e-03
    Gamma (Eh^(-1))                          1.00e+00
    Convergence threshold                    1.00e-09
    Ms                                       0
    Diagonalization algorithm                SPARSE
    Excited Algorithm                        NONE
    Project out spin contaminants            True
    Enforce spin completeness of basis       True
    Enforce complete aimed selection         True
    Multiroot averaging                      Average
  -----------------------------------------------------------------
  Number of active orbitals: 6
  Number of active alpha electrons: 4
  Number of active beta electrons: 4

  ==> GAS Orbital Energies from SCF <==

    GAS        Energy  Index
    ------------------------
     1    -1.32060927      0
     1    -0.56393045      1
     1    -0.49500395      3
     1    -0.67872419      4
     2     0.20246590      2
     2     0.29271934      5
    ------------------------

  ==> Number of Electrons in GAS <==

    GAS  MAX  MIN
    -------------
      1    8    6
      2    2    0
    -------------

  ==> Possible Electron Occupations in GAS <==

    Config.  1_A  1_B  2_A  2_B
    ---------------------------
         1     4    4    0    0
         2     4    3    0    1
         3     4    2    0    2
         4     3    4    1    0
         5     3    3    1    1
         6     2    4    2    0
    ---------------------------
    n_A/B: # of alpha/beta electrons in GASn

  ==> Building GAS Determinants <==

    Reference determinant: |220220>


  ---------------------------------- Cycle 0 -----------------------------------

  ==> Diagonalizing the Hamiltonian in the P space <==

  Initial P space dimension: 1
  Spin-complete dimension of the P space: 1 determinants

[...]

  Number of reference roots: 1

  Davidson-Liu solver algorithm using SigmaVectorSparseList sigma algorithm

  Performing full diagonalization of the H matrix
  Found 12 roots with 2S+1 = 1 *
  Found 7 roots with 2S+1 = 3
  Found 2 roots with 2S+1 = 5
  Total time spent diagonalizing H:   0.001435 s

    PQ-space CI Energy Root   0        = -76.072552927485 Eh =   0.0000 eV, S^2 = 0.000000
    PQ-space CI Energy + EPT2 Root   0 = -76.073110165781 Eh =   0.0000 eV


  ==> GAS Contribution Analysis <==

  Root 0:
    Config.  1_A  1_B  2_A  2_B  Contribution
    -----------------------------------------
         1     4    4    0    0  97.55113927%
         2     4    3    0    1   0.00000000%
         3     4    2    0    2   0.07149684%
         4     3    4    1    0   0.00000000%
         5     3    3    1    1   2.30586705%
         6     2    4    2    0   0.07149684%
    -----------------------------------------
               GAS1      GAS2    Contribution
    -----------------------------------------
                  6         2     2.44886073%
                  7         1     0.00000000%
                  8         0    97.55113927%
    -----------------------------------------
  ***** Calculation Converged *****

  ==> ACI Natural Orbitals <==

        1B1     2.000000      1A1     1.998879      2A1     1.977056  
        1B2     1.975088      2B2     0.025337      3A1     0.023640  

  ==> Excited state solver summary <==

  Iterations required:                         1
  Dimension of optimized determinant space:    21

  * Selected-CI Energy Root   0        = -76.072552927485 Eh =   0.0000 eV
  * Selected-CI Energy Root   0 + EPT2 = -76.073110165781 Eh =   0.0000 eV

  ==> Wavefunction Information <==

  Most important contributions to root   0:
    0   0.987680 0.975511393          16 |220220>
    1  -0.079246 0.006279884          15 |220202>
    2  -0.052300 0.002735248          14 |202220>
    3   0.050406 0.002540721          13 |2-+2+->
    4   0.050406 0.002540721          12 |2+-2-+>
    5  -0.031560 0.000996015          11 |+-2220>
    6  -0.031560 0.000996015          10 |-+2220>
    7   0.030592 0.000935863           9 |-2+2+->
    8   0.030592 0.000935863           8 |+2-2-+>
    9  -0.030349 0.000921086           7 |222200>

  Saving information for root: 0

  ==> Energy Summary <==

    Multi.(2ms)  Irrep.  No.               Energy      <S^2>
    --------------------------------------------------------
       1  (  0)    A1     0      -76.072552927485   0.000000
    --------------------------------------------------------

  ==> Dipole Moments [e a0] (Nuclear + Electronic) for Singlet (Ms = 0) A1 <==

  1-RDM  took 0.000406 s (determinant)
       State           DM_X           DM_Y           DM_Z           |DM|
    --------------------------------------------------------------------
         0A1     0.00000000    -0.00000000     0.83740353     0.83740353
    --------------------------------------------------------------------
     Nuclear     0.00000000     0.00000000     1.03508051     1.03508051
    --------------------------------------------------------------------

  ==> Quadrupole Moments [e a0^2] (Nuclear + Electronic) for Singlet (Ms = 0) A1 <==

  1-RDM  took 0.000401 s (determinant)
       State          QM_XX          QM_XY          QM_XZ          QM_YY          QM_YZ          QM_ZZ
    --------------------------------------------------------------------------------------------------
         0A1    -5.45654891     0.00000000     0.00000000    -3.26673931     0.00000000    -4.35353623
    --------------------------------------------------------------------------------------------------
     Nuclear     0.00000000     0.00000000     0.00000000     4.38045134     0.00000000     2.31648182
    --------------------------------------------------------------------------------------------------
  1-RDM  took 0.000403 s (determinant)
  2-RDMS took 0.000948 s (determinant)

  ==> Optimizing Orbitals for Current RDMs <==

    L-BFGS Iter:  1; fx =  -76.072552927488701; g_norm = 1.270615e-06; step = 1.000e+00
    L-BFGS Iter:  2; fx =  -76.072552927489014; g_norm = 5.621297e-07; step = 1.000e+00
    L-BFGS Iter:  3; fx =  -76.072552927489113; g_norm = 2.715427e-07; step = 1.000e+00
    L-BFGS Iter:  4; fx =  -76.072552927489056; g_norm = 1.471216e-07; step = 1.000e+00
    L-BFGS Iter:  5; fx =  -76.072552927489085; g_norm = 7.215678e-08; step = 1.000e+00

  ==> MCSCF Macro Iter. 11 <==

             Energy CI (  Delta E  )         Energy Opt. (  Delta E  )  E_OPT - E_CI   Orbital RMS  Micro  DIIS
      -76.072552927485 (-2.5764e-11)    -76.072552927489 (-1.1710e-11)   -3.6664e-12    1.3928e-08    5/Y

  A miracle has come to pass: MCSCF iterations have converged!

  ==> MCSCF Iteration Summary <==

                      Energy CI                    Energy Orbital
           ------------------------------  ------------------------------
    Iter.        Total Energy       Delta        Total Energy       Delta  Orb. Grad.  Micro
    ----------------------------------------------------------------------------------------
       1     -76.028979920546  0.0000e+00    -76.060671428270  0.0000e+00  1.2910e-02     6
       2     -76.071362344113 -4.2382e-02    -76.072342188785 -1.1671e-02  6.1005e-03     6
       3     -76.072514499422 -1.1522e-03    -76.072545832950 -2.0364e-04  4.5392e-04     6
       4     -76.072551295990 -3.6797e-05    -76.072552495445 -6.6625e-06  1.1159e-04     6
       5     -76.072552790388 -1.4944e-06    -76.072552877570 -3.8212e-07  4.5768e-06     6
       6     -76.072552907288 -1.1690e-07    -76.072552918960 -4.1390e-08  8.5474e-07     6
       7     -76.072552923730 -1.6442e-08    -76.072552925824 -6.8639e-09  9.7163e-07     6
       8     -76.072552926738 -3.0073e-09    -76.072552927150 -1.3265e-09  3.8726e-07     6
       9     -76.072552927336 -5.9859e-10    -76.072552927421 -2.7063e-10  1.0723e-07     6
      10     -76.072552927460 -1.2349e-10    -76.072552927477 -5.6247e-11  3.6130e-08     6
      11     -76.072552927485 -2.5764e-11    -76.072552927489 -1.1710e-11  1.3928e-08     5
    ----------------------------------------------------------------------------------------

--------------------------------------------------------------------------------
               Selected Configuration Interaction Excited States
  written by Jeffrey B. Schriber, Tianyuan Zhang, and Francesco A. Evangelista
--------------------------------------------------------------------------------

  ==> Calculation Information <==

  -----------------------------------------------------------------
    Multiplicity                             1    
    Symmetry                                 0    
    Number of roots                          1    
    Ms                                       0
    Excited Algorithm                        NONE
  -----------------------------------------------------------------
  Using 1 thread(s)
  Computing wavefunction for root 0

        ---------------------------------------------------------------
                      Adaptive Configuration Interaction
          written by Jeffrey B. Schriber and Francesco A. Evangelista
        ---------------------------------------------------------------

  ==> Reference Information <==

  There are 1 frozen orbitals.
  There are 6 active orbitals.

  ==> Calculation Information <==

  -----------------------------------------------------------------
    Multiplicity                             1    
    Symmetry                                 0    
    Number of roots                          1    
    Root used for properties                 0    
    Roots used for averaging                 1    
    Root averaging offset                    0    
    Sigma (Eh)                               1.00e-03
    Gamma (Eh^(-1))                          1.00e+00
    Convergence threshold                    1.00e-09
    Ms                                       0
    Diagonalization algorithm                SPARSE
    Excited Algorithm                        NONE
    Project out spin contaminants            True
    Enforce spin completeness of basis       True
    Enforce complete aimed selection         True
    Multiroot averaging                      Average
  -----------------------------------------------------------------
  Number of active orbitals: 6
  Number of active alpha electrons: 4
  Number of active beta electrons: 4

  ==> GAS Orbital Energies from SCF <==

    GAS        Energy  Index
    ------------------------
     1    -1.32060927      0
     1    -0.56393045      1
     1    -0.49500395      3
     1    -0.67872419      4
     2     0.20246590      2
     2     0.29271934      5
    ------------------------

  ==> Number of Electrons in GAS <==

    GAS  MAX  MIN
    -------------
      1    8    6
      2    2    0
    -------------

  ==> Possible Electron Occupations in GAS <==

    Config.  1_A  1_B  2_A  2_B
    ---------------------------
         1     4    4    0    0
         2     4    3    0    1
         3     4    2    0    2
         4     3    4    1    0
         5     3    3    1    1
         6     2    4    2    0
    ---------------------------
    n_A/B: # of alpha/beta electrons in GASn

  ==> Building GAS Determinants <==

    Reference determinant: |220220>


  ---------------------------------- Cycle 0 -----------------------------------

  ==> Diagonalizing the Hamiltonian in the P space <==

  Initial P space dimension: 1
  Spin-complete dimension of the P space: 1 determinants

  Davidson-Liu solver algorithm using SigmaVectorSparseList sigma algorithm

  Performing full diagonalization of the H matrix
  Found 1 roots with 2S+1 = 1 *
  Time spent diagonalizing H:   0.000128 s

    P-space  CI Energy Root   0        = -76.016575393258 Eh =   0.0000 eV, S^2 = 0.000000


  ==> Finding the Q space <==

  Using SR screening algorithm
  Time spent forming F space:             0.000034
  Time spent merging thread F spaces:             0.000009
  Size of F space: 30
  Time spent building sorting list: 0.000015
  Dimension of the PQ space:                  21
  Dimension of the PQ space (spin-complete) : 21
  Time spent building the model space: 0.000124

  ==> Diagonalizing the Hamiltonian in the P + Q space <==

  Number of reference roots: 1

  Davidson-Liu solver algorithm using SigmaVectorSparseList sigma algorithm

  Performing full diagonalization of the H matrix
  Found 12 roots with 2S+1 = 1 *
  Found 7 roots with 2S+1 = 3
  Found 2 roots with 2S+1 = 5
  Total time spent diagonalizing H:   0.001457 s

    PQ-space CI Energy Root   0        = -76.072552927491 Eh =   0.0000 eV, S^2 = 0.000000
    PQ-space CI Energy + EPT2 Root   0 = -76.073542660624 Eh =   0.0000 eV


  ==> GAS Contribution Analysis <==

  Root 0:
    Config.  1_A  1_B  2_A  2_B  Contribution
    -----------------------------------------
         1     4    4    0    0  97.55113795%
         2     4    3    0    1   0.00000000%
         3     4    2    0    2   0.07149761%
         4     3    4    1    0   0.00000000%
         5     3    3    1    1   2.30586683%
         6     2    4    2    0   0.07149761%
    -----------------------------------------
               GAS1      GAS2    Contribution
    -----------------------------------------
                  6         2     2.44886205%
                  7         1     0.00000000%
                  8         0    97.55113795%
    -----------------------------------------

  ==> Pruning the Q space <==

  Added 1 missing determinants in aimed selection (prune_q_space).
  Cycle 0 took: 0.002174 s


  ---------------------------------- Cycle 1 -----------------------------------

  ==> Diagonalizing the Hamiltonian in the P space <==

  Initial P space dimension: 18
  Spin-complete dimension of the P space: 20 determinants

  Davidson-Liu solver algorithm using SigmaVectorSparseList sigma algorithm

  Performing full diagonalization of the H matrix
  Found 11 roots with 2S+1 = 1 *
  Found 7 roots with 2S+1 = 3
  Found 2 roots with 2S+1 = 5
  Time spent diagonalizing H:   0.001378 s

    P-space  CI Energy Root   0        = -76.071567042721 Eh =   0.0000 eV, S^2 = 0.000000


  ==> Finding the Q space <==

  Using SR screening algorithm
  Time spent forming F space:             0.000403
  Time spent merging thread F spaces:             0.000009
  Size of F space: 11
  Time spent building sorting list: 0.000006
  Dimension of the PQ space:                  21
  Dimension of the PQ space (spin-complete) : 21
  Time spent building the model space: 0.000466

  ==> Diagonalizing the Hamiltonian in the P + Q space <==

  Number of reference roots: 1

  Davidson-Liu solver algorithm using SigmaVectorSparseList sigma algorithm

  Performing full diagonalization of the H matrix
  Found 12 roots with 2S+1 = 1 *
  Found 7 roots with 2S+1 = 3
  Found 2 roots with 2S+1 = 5
  Total time spent diagonalizing H:   0.001438 s

    PQ-space CI Energy Root   0        = -76.072552927491 Eh =   0.0000 eV, S^2 = 0.000000
    PQ-space CI Energy + EPT2 Root   0 = -76.073110162924 Eh =   0.0000 eV


  ==> GAS Contribution Analysis <==

  Root 0:
    Config.  1_A  1_B  2_A  2_B  Contribution
    -----------------------------------------
         1     4    4    0    0  97.55113795%
         2     4    3    0    1   0.00000000%
         3     4    2    0    2   0.07149761%
         4     3    4    1    0   0.00000000%
         5     3    3    1    1   2.30586683%
         6     2    4    2    0   0.07149761%
    -----------------------------------------
               GAS1      GAS2    Contribution
    -----------------------------------------
                  6         2     2.44886205%
                  7         1     0.00000000%
                  8         0    97.55113795%
    -----------------------------------------
  ***** Calculation Converged *****

  ==> ACI Natural Orbitals <==

        1B1     2.000000      1A1     1.998879      2A1     1.977056  
        1B2     1.975088      2B2     0.025337      3A1     0.023640  

  ==> Excited state solver summary <==

  Iterations required:                         1
  Dimension of optimized determinant space:    21

  * Selected-CI Energy Root   0        = -76.072552927491 Eh =   0.0000 eV
  * Selected-CI Energy Root   0 + EPT2 = -76.073110162924 Eh =   0.0000 eV

  ==> Wavefunction Information <==

  Most important contributions to root   0:
    0   0.987680 0.975511380          16 |220220>
    1  -0.079246 0.006279882          15 |220202>
    2  -0.052300 0.002735289          14 |202220>
    3   0.050406 0.002540742          13 |2-+2+->
    4   0.050406 0.002540742          12 |2+-2-+>
    5  -0.031560 0.000996003          11 |+-2220>
    6  -0.031560 0.000996003          10 |-+2220>
    7   0.030592 0.000935848           9 |-2+2+->
    8   0.030592 0.000935848           8 |+2-2-+>
    9  -0.030349 0.000921072           7 |222200>

  Saving information for root: 0

  ==> Energy Summary <==

    Multi.(2ms)  Irrep.  No.               Energy      <S^2>
    --------------------------------------------------------
       1  (  0)    A1     0      -76.072552927491   0.000000
    --------------------------------------------------------

  ==> Dipole Moments [e a0] (Nuclear + Electronic) for Singlet (Ms = 0) A1 <==

  1-RDM  took 0.000409 s (determinant)
       State           DM_X           DM_Y           DM_Z           |DM|
    --------------------------------------------------------------------
         0A1     0.00000000    -0.00000000     0.83740340     0.83740340
    --------------------------------------------------------------------
     Nuclear     0.00000000     0.00000000     1.03508051     1.03508051
    --------------------------------------------------------------------

  ==> Quadrupole Moments [e a0^2] (Nuclear + Electronic) for Singlet (Ms = 0) A1 <==

  1-RDM  took 0.000402 s (determinant)
       State          QM_XX          QM_XY          QM_XZ          QM_YY          QM_YZ          QM_ZZ
    --------------------------------------------------------------------------------------------------
         0A1    -5.45654894     0.00000000     0.00000000    -3.26673950     0.00000000    -4.35353619
    --------------------------------------------------------------------------------------------------
     Nuclear     0.00000000     0.00000000     0.00000000     4.38045134     0.00000000     2.31648182
    --------------------------------------------------------------------------------------------------
  1-RDM  took 0.000402 s (determinant)

  ==> Semicanonicalize Orbitals <==

    MIX INACTIVE ORBITALS   ...... FALSE
    MIX GAS ACTIVE ORBITALS ...... FALSE
    FROZEN_DOCC     ...  CANONICAL
    FROZEN_UOCC     ...  CANONICAL
    GAS1            ...  CANONICAL
    GAS2            ...  CANONICAL
    RESTRICTED_DOCC ...  CANONICAL
    RESTRICTED_UOCC ...  CANONICAL

    Off-Diag. Elements       Max           2-Norm
    ------------------------------------------------
    GAS1                 0.0432334054   0.0611412682
    GAS2                 0.0000000000   0.0000000000
    RESTRICTED_DOCC      0.0000000000   0.0000000000
    RESTRICTED_UOCC      0.1974965996   0.5676561411
    ------------------------------------------------

    Canonicalization test failed

  Timing for orbital canonicalization:                        0.000 s.

  !!! WARNING: Final Active Orbitals Maybe Different from the Original !!!

    Based on projections of maximum overlap method:
          3A1 -> 4A1       RESTRICTED_UOCC

  Time to prepare integrals:        0.012 seconds
  Time to run job          :        0.507 seconds
  Total                    :        0.518 seconds
    GASSCF energy.........................................................................FAILED
Traceback (most recent call last):
  File "/Users/fevange/Source/psi4/objdir-Release/stage/bin/psi4", line 372, in <module>
    exec(content)
  File "<string>", line 54, in <module>
  File "/Users/fevange/Source/psi4/objdir-Release/stage/lib/psi4/driver/qcdb/testing.py", line 104, in _mergedapis_compare_values
    return qcel.testing.compare_values(expected, computed, **kwargs)
  File "/Users/fevange/Source/psi4/objdir-Release/stage/lib/qcelemental/testing.py", line 184, in compare_values
    return return_handler(allclose, label, message, return_message, quiet)
  File "/Users/fevange/Source/psi4/objdir-Release/stage/lib/psi4/driver/p4util/testing.py", line 205, in _psi4_true_raise_handler
    raise TestComparisonError(message)

psi4.driver.p4util.exceptions.TestComparisonError: 	GASSCF energy: computed value (-76.07255292749) does not match (-76.07255292359) to atol=1e-09 by difference (-0.00000000390).


Printing out the relevant lines from the Psithon --> Python processed input file:
    core.set_local_option("FORTE", "CASSCF_CI_SOLVER", "aci")
    core.set_local_option("FORTE", "CASSCF_MAXITER", 200)
    core.set_local_option("FORTE", "CASSCF_E_CONVERGENCE", 1e-10)
    escf ,wfn = energy('scf',return_wfn = True)
    egasscf = energy('forte',ref_wfn = wfn)
--> compare_values(refgasscf, egasscf ,9, "GASSCF energy")

!----------------------------------------------------------------------------------!
!                                                                                  !
!         GASSCF energy: computed value (-76.07255292749) does not match           !
!     (-76.07255292359) to atol=1e-09 by difference (-0.00000000390).              !
!                                                                                  !
!----------------------------------------------------------------------------------!

    Psi4 stopped on: Friday, 10 November 2023 04:04PM
    Psi4 wall time for execution: 0:00:00.86

*** Psi4 encountered an error. Buy a developer more coffee!
*** Resources and help at github.com/psi4/psi4.
