
    -----------------------------------------------------------------------
          Psi4: An Open-Source Ab Initio Electronic Structure Package
                               Psi4 undefined 

                         Git: Rev {master} c27a5c4 dirty


    R. M. Parrish, L. A. Burns, D. G. A. Smith, A. C. Simmonett,
    A. E. DePrince III, E. G. Hohenstein, U. Bozkaya, A. Yu. Sokolov,
    R. Di Remigio, R. M. Richard, J. F. Gonthier, A. M. James,
    H. R. McAlexander, A. Kumar, M. Saitow, X. Wang, B. P. Pritchard,
    P. Verma, H. F. Schaefer III, K. Patkowski, R. A. King, E. F. Valeev,
    F. A. Evangelista, J. M. Turney, T. D. Crawford, and C. D. Sherrill,
    J. Chem. Theory Comput. 13(7) pp 3185--3197 (2017).
    (doi: 10.1021/acs.jctc.7b00174)


                         Additional Contributions by
    P. Kraus, H. Kruse, M. H. Lechner, M. C. Schieber, and R. A. Shaw

    -----------------------------------------------------------------------


    Psi4 started on: Sunday, 17 February 2019 03:48AM

    Process ID: 5153
    Host:       DESKTOP-JOFFIR0
    PSIDATADIR: /home/zty/Source/psi4-github-bin-g++-7.3.0-opt-c++17/share/psi4
    Memory:     500.0 MiB
    Threads:    1
    
  ==> Input File <==

--------------------------------------------------------------------------
#! This tests the Adaptive Path-Integral FCI procedure with no prescreening
#! Generated using commit GITCOMMIT

import forte

refscf = -14.6097447380899563 #TEST
refpci = -14.646159980219  #TEST
refpostdiag = -14.646164857383  #TEST

molecule li2{
   Li
   Li 1 2.0000
}

set {
  basis sto-3g
  scf_type pk
  e_convergence 12
}

set forte {
  active_space_solver ewci
  PCI_GENERATOR WALL-CHEBYSHEV
  pci_spawning_threshold 0.0001
  pci_post_diagonalize true
  DIAG_ALGORITHM DLSOLVER
  pci_e_convergence 12
  PCI_STOP_HIGHER_NEW_LOW true
}
energy('scf')
compare_values(refscf, variable("CURRENT ENERGY"), 11, "SCF energy") #TEST

energy('forte')
compare_values(refpci, variable("EWCI ENERGY"), 11, "EWCI energy") #TEST
compare_values(refpostdiag, variable("EWCI POST DIAG ENERGY"), 10, "EWCI POST DIAG ENERGY") #TEST

--------------------------------------------------------------------------

*** tstart() called on DESKTOP-JOFFIR0
*** at Sun Feb 17 03:48:42 2019

   => Loading Basis Set <=

    Name: STO-3G
    Role: ORBITAL
    Keyword: BASIS
    atoms 1-2 entry LI         line    31 file /home/zty/Source/psi4-github-bin-g++-7.3.0-opt-c++17/share/psi4/basis/sto-3g.gbs 


         ---------------------------------------------------------
                                   SCF
            by Justin Turney, Rob Parrish, Andy Simmonett
                             and Daniel Smith
                              RHF Reference
                        1 Threads,    500 MiB Core
         ---------------------------------------------------------

  ==> Geometry <==

    Molecular point group: d2h
    Full point group: D_inf_h

    Geometry (in Angstrom), charge = 0, multiplicity = 1:

       Center              X                  Y                   Z               Mass       
    ------------   -----------------  -----------------  -----------------  -----------------
         LI           0.000000000000     0.000000000000    -1.000000000000     7.016003436600
         LI           0.000000000000     0.000000000000     1.000000000000     7.016003436600

  Running in d2h symmetry.

  Rotational constants: A = ************  B =      1.20137  C =      1.20137 [cm^-1]
  Rotational constants: A = ************  B =  36016.16030  C =  36016.16030 [MHz]
  Nuclear repulsion =    2.381297448014999

  Charge       = 0
  Multiplicity = 1
  Electrons    = 6
  Nalpha       = 3
  Nbeta        = 3

  ==> Algorithm <==

  SCF Algorithm Type is PK.
  DIIS enabled.
  MOM disabled.
  Fractional occupation disabled.
  Guess Type is SAD.
  Energy threshold   = 1.00e-12
  Density threshold  = 1.00e-06
  Integral threshold = 0.00e+00

  ==> Primary Basis <==

  Basis Set: STO-3G
    Blend: STO-3G
    Number of shells: 6
    Number of basis function: 10
    Number of Cartesian functions: 10
    Spherical Harmonics?: true
    Max angular momentum: 1

  ==> Pre-Iterations <==

   -------------------------------------------------------
    Irrep   Nso     Nmo     Nalpha   Nbeta   Ndocc  Nsocc
   -------------------------------------------------------
     Ag         3       3       0       0       0       0
     B1g        0       0       0       0       0       0
     B2g        1       1       0       0       0       0
     B3g        1       1       0       0       0       0
     Au         0       0       0       0       0       0
     B1u        3       3       0       0       0       0
     B2u        1       1       0       0       0       0
     B3u        1       1       0       0       0       0
   -------------------------------------------------------
    Total      10      10       3       3       3       0
   -------------------------------------------------------

  ==> Integral Setup <==

  Using in-core PK algorithm.
   Calculation information:
      Number of atoms:                   2
      Number of AO shells:               6
      Number of primitives:             18
      Number of atomic orbitals:        10
      Number of basis functions:        10

      Integral cutoff                 1.00e-12
      Number of threads:                 1

  Performing in-core PK
  Using 3080 doubles for integral storage.
  We computed 231 shell quartets total.
  Whereas there are 231 unique shell quartets.

  ==> DiskJK: Disk-Based J/K Matrices <==

    J tasked:                  Yes
    K tasked:                  Yes
    wK tasked:                  No
    Memory [MiB]:              375
    Schwarz Cutoff:          1E-12

    OpenMP threads:              1

  Minimum eigenvalue in the overlap matrix is 4.0289192732E-02.
  Using Symmetric Orthogonalization.

  SCF Guess: Superposition of Atomic Densities via on-the-fly atomic UHF.

  ==> Iterations <==

                        Total Energy        Delta E     RMS |[F,P]|

   @RHF iter   0:   -14.58573852679840   -1.45857e+01   6.38128e-02 
   @RHF iter   1:   -14.60879129707151   -2.30528e-02   3.90853e-03 
   @RHF iter   2:   -14.60956780353628   -7.76506e-04   1.49380e-03 DIIS
   @RHF iter   3:   -14.60974068441564   -1.72881e-04   2.15662e-04 DIIS
   @RHF iter   4:   -14.60974473615713   -4.05174e-06   4.32612e-06 DIIS
   @RHF iter   5:   -14.60974473808782   -1.93069e-09   1.41353e-07 DIIS
   @RHF iter   6:   -14.60974473808996   -2.13873e-12   3.63226e-09 DIIS
   @RHF iter   7:   -14.60974473808995    7.10543e-15   1.73382e-11 DIIS
  Energy converged.


  ==> Post-Iterations <==

    Orbital Energies [Eh]
    ---------------------

    Doubly Occupied:                                                      

       1Ag    -2.340313     1B1u   -2.335347     2Ag    -0.163839  

    Virtual:                                                              

       2B1u    0.093646     1B2u    0.108933     1B3u    0.108933  
       3Ag     0.176245     1B2g    0.275579     1B3g    0.275579  
       3B1u    0.645556  

    Final Occupation by Irrep:
             Ag   B1g   B2g   B3g    Au   B1u   B2u   B3u 
    DOCC [     2,    0,    0,    0,    0,    1,    0,    0 ]

  @RHF Final Energy:   -14.60974473808995

   => Energetics <=

    Nuclear Repulsion Energy =              2.3812974480149989
    One-Electron Energy =                 -24.3030864655733438
    Two-Electron Energy =                   7.3120442794683917
    Total Energy =                        -14.6097447380899546

Computation Completed


Properties will be evaluated at   0.000000,   0.000000,   0.000000 [a0]

Properties computed using the SCF density matrix

  Nuclear Dipole Moment: [e a0]
     X:     0.0000      Y:     0.0000      Z:     0.0000

  Electronic Dipole Moment: [e a0]
     X:     0.0000      Y:     0.0000      Z:     0.0000

  Dipole Moment: [e a0]
     X:     0.0000      Y:     0.0000      Z:     0.0000     Total:     0.0000

  Dipole Moment: [D]
     X:     0.0000      Y:     0.0000      Z:     0.0000     Total:     0.0000


*** tstop() called on DESKTOP-JOFFIR0 at Sun Feb 17 03:48:42 2019
Module time:
	user time   =       0.25 seconds =       0.00 minutes
	system time =       0.04 seconds =       0.00 minutes
	total time  =          0 seconds =       0.00 minutes
Total time:
	user time   =       0.25 seconds =       0.00 minutes
	system time =       0.04 seconds =       0.00 minutes
	total time  =          0 seconds =       0.00 minutes
	SCF energy........................................................PASSED

*** tstart() called on DESKTOP-JOFFIR0
*** at Sun Feb 17 03:48:42 2019

   => Loading Basis Set <=

    Name: STO-3G
    Role: ORBITAL
    Keyword: BASIS
    atoms 1-2 entry LI         line    31 file /home/zty/Source/psi4-github-bin-g++-7.3.0-opt-c++17/share/psi4/basis/sto-3g.gbs 


         ---------------------------------------------------------
                                   SCF
            by Justin Turney, Rob Parrish, Andy Simmonett
                             and Daniel Smith
                              RHF Reference
                        1 Threads,    500 MiB Core
         ---------------------------------------------------------

  ==> Geometry <==

    Molecular point group: d2h
    Full point group: D_inf_h

    Geometry (in Angstrom), charge = 0, multiplicity = 1:

       Center              X                  Y                   Z               Mass       
    ------------   -----------------  -----------------  -----------------  -----------------
         LI           0.000000000000     0.000000000000    -1.000000000000     7.016003436600
         LI           0.000000000000     0.000000000000     1.000000000000     7.016003436600

  Running in d2h symmetry.

  Rotational constants: A = ************  B =      1.20137  C =      1.20137 [cm^-1]
  Rotational constants: A = ************  B =  36016.16030  C =  36016.16030 [MHz]
  Nuclear repulsion =    2.381297448014998

  Charge       = 0
  Multiplicity = 1
  Electrons    = 6
  Nalpha       = 3
  Nbeta        = 3

  ==> Algorithm <==

  SCF Algorithm Type is PK.
  DIIS enabled.
  MOM disabled.
  Fractional occupation disabled.
  Guess Type is SAD.
  Energy threshold   = 1.00e-12
  Density threshold  = 1.00e-08
  Integral threshold = 0.00e+00

  ==> Primary Basis <==

  Basis Set: STO-3G
    Blend: STO-3G
    Number of shells: 6
    Number of basis function: 10
    Number of Cartesian functions: 10
    Spherical Harmonics?: true
    Max angular momentum: 1

  ==> Pre-Iterations <==

   -------------------------------------------------------
    Irrep   Nso     Nmo     Nalpha   Nbeta   Ndocc  Nsocc
   -------------------------------------------------------
     Ag         3       3       0       0       0       0
     B1g        0       0       0       0       0       0
     B2g        1       1       0       0       0       0
     B3g        1       1       0       0       0       0
     Au         0       0       0       0       0       0
     B1u        3       3       0       0       0       0
     B2u        1       1       0       0       0       0
     B3u        1       1       0       0       0       0
   -------------------------------------------------------
    Total      10      10       3       3       3       0
   -------------------------------------------------------

  ==> Integral Setup <==

  Using in-core PK algorithm.
   Calculation information:
      Number of atoms:                   2
      Number of AO shells:               6
      Number of primitives:             18
      Number of atomic orbitals:        10
      Number of basis functions:        10

      Integral cutoff                 1.00e-12
      Number of threads:                 1

  Performing in-core PK
  Using 3080 doubles for integral storage.
  We computed 231 shell quartets total.
  Whereas there are 231 unique shell quartets.

  ==> DiskJK: Disk-Based J/K Matrices <==

    J tasked:                  Yes
    K tasked:                  Yes
    wK tasked:                  No
    Memory [MiB]:              375
    Schwarz Cutoff:          1E-12

    OpenMP threads:              1

  Minimum eigenvalue in the overlap matrix is 4.0289192732E-02.
  Using Symmetric Orthogonalization.

  SCF Guess: Superposition of Atomic Densities via on-the-fly atomic UHF.

  ==> Iterations <==

                        Total Energy        Delta E     RMS |[F,P]|

   @RHF iter   0:   -14.58573852679840   -1.45857e+01   6.38128e-02 
   @RHF iter   1:   -14.60879129707151   -2.30528e-02   3.90853e-03 
   @RHF iter   2:   -14.60956780353629   -7.76506e-04   1.49380e-03 DIIS
   @RHF iter   3:   -14.60974068441565   -1.72881e-04   2.15662e-04 DIIS
   @RHF iter   4:   -14.60974473615713   -4.05174e-06   4.32612e-06 DIIS
   @RHF iter   5:   -14.60974473808782   -1.93069e-09   1.41353e-07 DIIS
   @RHF iter   6:   -14.60974473808996   -2.13696e-12   3.63226e-09 DIIS
   @RHF iter   7:   -14.60974473808996    1.77636e-15   1.73386e-11 DIIS
  Energy converged.


  ==> Post-Iterations <==

    Orbital Energies [Eh]
    ---------------------

    Doubly Occupied:                                                      

       1Ag    -2.340313     1B1u   -2.335347     2Ag    -0.163839  

    Virtual:                                                              

       2B1u    0.093646     1B2u    0.108933     1B3u    0.108933  
       3Ag     0.176245     1B2g    0.275579     1B3g    0.275579  
       3B1u    0.645556  

    Final Occupation by Irrep:
             Ag   B1g   B2g   B3g    Au   B1u   B2u   B3u 
    DOCC [     2,    0,    0,    0,    0,    1,    0,    0 ]

  @RHF Final Energy:   -14.60974473808996

   => Energetics <=

    Nuclear Repulsion Energy =              2.3812974480149980
    One-Electron Energy =                 -24.3030864655733474
    Two-Electron Energy =                   7.3120442794683917
    Total Energy =                        -14.6097447380899581

Computation Completed


Properties will be evaluated at   0.000000,   0.000000,   0.000000 [a0]

Properties computed using the SCF density matrix

  Nuclear Dipole Moment: [e a0]
     X:     0.0000      Y:     0.0000      Z:     0.0000

  Electronic Dipole Moment: [e a0]
     X:     0.0000      Y:     0.0000      Z:     0.0000

  Dipole Moment: [e a0]
     X:     0.0000      Y:     0.0000      Z:     0.0000     Total:     0.0000

  Dipole Moment: [D]
     X:     0.0000      Y:     0.0000      Z:     0.0000     Total:     0.0000


*** tstop() called on DESKTOP-JOFFIR0 at Sun Feb 17 03:48:43 2019
Module time:
	user time   =       0.27 seconds =       0.00 minutes
	system time =       0.02 seconds =       0.00 minutes
	total time  =          1 seconds =       0.02 minutes
Total time:
	user time   =       0.53 seconds =       0.01 minutes
	system time =       0.06 seconds =       0.00 minutes
	total time  =          1 seconds =       0.02 minutes
   => Loading Basis Set <=

    Name: STO-3G
    Role: ORBITAL
    Keyword: MINAO_BASIS
    atoms 1-2 entry LI         line    31 file /home/zty/Source/psi4-github-bin-g++-7.3.0-opt-c++17/share/psi4/basis/sto-3g.gbs 


  Forte
  ----------------------------------------------------------------------------
  A suite of quantum chemistry methods for strongly correlated electrons

    git branch: ci_framework - git commit: 8fb0f35

  Developed by:
    Francesco A. Evangelista, Chenyang Li, Kevin P. Hannon,
    Jeffrey B. Schriber, Tianyuan Zhang, Chenxi Cai,
    Nan He, Nicholas Stair, Shuhe Wang, Renke Huang
  ----------------------------------------------------------------------------

  Size of Determinant class: 16

  ==> MO Space Information <==

  -------------------------------------------------------------------------
                       Ag   B1g   B2g   B3g    Au   B1u   B2u   B3u   Sum
  -------------------------------------------------------------------------
    FROZEN_DOCC         0     0     0     0     0     0     0     0     0
    RESTRICTED_DOCC     0     0     0     0     0     0     0     0     0
    ACTIVE              3     0     1     1     0     3     1     1    10
    RESTRICTED_UOCC     0     0     0     0     0     0     0     0     0
    FROZEN_UOCC         0     0     0     0     0     0     0     0     0
    Total               3     0     1     1     0     3     1     1    10
  -------------------------------------------------------------------------

  ==> Integral Transformation <==

  Number of molecular orbitals:                    10
  Number of correlated molecular orbitals:         10
  Number of frozen occupied orbitals:               0
  Number of frozen unoccupied orbitals:             0
  Two-electron integral type:              Conventional


  Overall Conventional Integrals timings


  Conventional integrals take 0.12571890 s

  ==> Summary of Active Space Solver Input <==

    Irrep.  Multi.  Nstates
    -------------------------
      Ag       1        1
    -------------------------
    Total number of states: 1
    -------------------------

  Number of active alpha electrons: 3
  Number of active beta electrons: 3
  Maximum reference space size: 1000
  |2200020000>
  Number of active alpha electrons: 3
  Number of active beta electrons: 3
  Maximum reference space size: 1000
  |2200020000>

-------------------------------------------------------------------------------
               Selected Configuration Interaction Excited States
  written by Jeffrey B. Schriber, Tianyuan Zhang and Francesco A. Evangelista
-------------------------------------------------------------------------------

  ==> Reference Information <==

  ==> Calculation Information <==

  -----------------------------------------------------------------
    Multiplicity                             1    
    Symmetry                                 0    
    Number of roots                          1    
    Ms                                       0
    Excited Algorithm                        ROOT_ORTHOGONALIZE
  -----------------------------------------------------------------
  Using 1 threads
  Computing wavefunction for root 0

	  ---------------------------------------------------------
	              Element wise Configuration Interactionimplementation
	         by Francesco A. Evangelista and Tianyuan Zhang
	                      version Aug. 3 2017
	                       1 thread(s) 
	  ---------------------------------------------------------

  ==> Calculation Information <==

    Symmetry                                         0
    Multiplicity                                     1
    Number of roots                                  1
    Root used for properties                         0
    Maximum number of iterations                  1000
    Energy estimation frequency                      1
    Number of threads                                1
    Time step (beta)                         1.000e+00
    Spawning threshold                       1.000e-04
    Initial guess spawning threshold         1.000e-03
    Convergence threshold                    1.000e-12
    Energy estimate tollerance               1.000e-06
    Generator type                          Wall-Chebyshev
    Importance functional                   |Hij|*max(|Ci|,|Cj|)
    Shift the energy                                NO
    Use intermediate normalization                  NO
    Fast variational estimate                       NO
    Result perturbation analysis                    NO
    Using OpenMP                                    NO

  ==> Initial Guess <==

  Initial guess size = 86
  Spin multiplicity of root 78 not close to integer (4.1231)
  Spin multiplicity of root 79 not close to integer (4.1231)
  Spin multiplicity of root 80 not close to integer (4.1231)
  Found 45 roots with 2S+1 = 1 *
  Found 33 roots with 2S+1 = 3
  Found 5 roots with 2S+1 = 5

  Initial guess energy (variational) =     -14.645947472327 Eh (root = 1)

  Most important contributions to the wave function:

    0         0.9337      0.871796           0 |2200020000000000000000000000000000000000000000000000000000000000>    -16.991042186105
    1      -0.231508     0.0535959           1 |2000020020000000000000000000000000000000000000000000000000000000>    -16.844531944287
    2      -0.231508     0.0535959           2 |2000020002000000000000000000000000000000000000000000000000000000>    -16.844531944287
    3      -0.113963     0.0129877           3 |2000022000000000000000000000000000000000000000000000000000000000>    -16.780684423917
    4     -0.0799895    0.00639832           4 |2020020000000000000000000000000000000000000000000000000000000000>    -16.722588679069
    5     -0.0250221   0.000626107           5 |200002-+00000000000000000000000000000000000000000000000000000000>    -16.358845134715
    6     -0.0250221   0.000626107           6 |200002+-00000000000000000000000000000000000000000000000000000000>    -16.358845134715
    7    -0.00824472   6.79755e-05           7 |2000020200000000000000000000000000000000000000000000000000000000>    -15.877818677698
    8     0.00468421   2.19418e-05           8 |2000220000000000000000000000000000000000000000000000000000000000>    -16.542435848077
    9     0.00468421   2.19418e-05           9 |2002020000000000000000000000000000000000000000000000000000000000>    -16.542435848077

  Spin State: S^2 = 0.000, S = 0.000, singlet (from 3 determinants,97.90%)

  ==> Estimate highest excitation energy <==
  Highest Excited determinant:
  |0002200200000000000000000000000000000000000000000000000000000000>
  Determinant Energy                    :  -2.581264114651
  Highest Energy Gershgorin circle Est. :  -0.994024721782

  ==> Characteristic Function <==
    f(x) = -2.159389e-03 * x^5 +7.369952e-03 * x^4 +1.006140e-01 * x^3 -2.575453e-01 * x^2 -8.789971e-01 * x +1.000000e+00
    with tau = 1.000000e+00, shift = -10.201283545070, range = 6.825961375273
    Initial guess: lambda_1= -14.645947472327
    Est. Highest eigenvalue= -0.994024721782

  ==> PCI Iterations <==

  --------------------------------------------------------------------------------------------------------------~
    Steps  Beta/Eh      Ndets      NoffDiag     Proj. Energy/Eh     dEp/dt      Approx. Energy/Eh   dEv/dt      ~
  --------------------------------------------------------------------------------------------------------------~
        0     0.00        418          2080     -14.646016995171 -6.952e-05     -14.646110589663 -1.504e-04     ~
        1     1.00        418          2224     -14.646055272764 -3.828e-05     -14.646128926207 -1.834e-05     ~
        2     2.00        418          2212     -14.646085702581 -3.043e-05     -14.646137973117 -9.047e-06     ~
        3     3.00        418          2244     -14.646106558365 -2.086e-05     -14.646144891535 -6.918e-06     ~
        4     4.00        418          2244     -14.646123999951 -1.744e-05     -14.646150875876 -5.984e-06     ~
        5     5.00        418          2300     -14.646136192672 -1.219e-05     -14.646155582103 -4.706e-06     ~
        6     6.00        418          2308     -14.646146323659 -1.013e-05     -14.646152867083  2.715e-06     ~
        7     7.00        418          2332     -14.646161463830 -1.514e-05     -14.646154751808 -1.885e-06     ~
        8     8.00        418          2312     -14.646167141707 -5.678e-06     -14.646154608936  1.429e-07     ~
        9     9.00        418          2328     -14.646166358033  7.837e-07
  --------------------------------------------------------------------------------------------------------------~

  Calculation stoped in appearance of higher new low.

  ==> Post-Iterations <==

  * Size of CI space                    = 418
  * Number of off-diagonal elements     = 2328
  * ElementwiseCI Approximate Energy    =   -14.646154608936 Eh
  * ElementwiseCI Projective  Energy    =   -14.646166358033 Eh

  Most important contributions to the wave function:

    0       0.933172       0.87081           0 |2200020000000000000000000000000000000000000000000000000000000000>    -16.991042186105
    1      -0.230853     0.0532929           1 |2000020020000000000000000000000000000000000000000000000000000000>    -16.844531944287
    2      -0.230853     0.0532929           2 |2000020002000000000000000000000000000000000000000000000000000000>    -16.844531944287
    3      -0.119017      0.014165           3 |2000022000000000000000000000000000000000000000000000000000000000>    -16.780684423917
    4     -0.0804935    0.00647921           4 |2020020000000000000000000000000000000000000000000000000000000000>    -16.722588679069
    5     -0.0245861   0.000604474           5 |200002-+00000000000000000000000000000000000000000000000000000000>    -16.358845134715
    6     -0.0245861   0.000604474           6 |200002+-00000000000000000000000000000000000000000000000000000000>    -16.358845134715
    7     -0.0131812   0.000173745           7 |2-+0020000000000000000000000000000000000000000000000000000000000>    -16.872775657949
    8     -0.0131812   0.000173745           8 |2+-0020000000000000000000000000000000000000000000000000000000000>    -16.872775657949
    9    -0.00782457    6.1224e-05           9 |2000020200000000000000000000000000000000000000000000000000000000>    -15.877818677698

  Spin State: S^2 = 0.000, S = 0.000, singlet (from 3 determinants,97.74%)
  ElementwiseCI (bitset) steps finished in  : 0.148896 s

  Variational energy estimated with 418 determinants to meet the max error 0.000000e+00

  ==> Computing Coupling Lists <==
  --------------------------------
        α          0.001617 s
        β          0.001626 s
        αα         0.001738 s
        ββ         0.001709 s
        αβ         0.004509 s
  --------------------------------
  * ElementwiseCI Variational Energy    =   -14.646159980219 Eh
  * ElementwiseCI Var. Corr.  Energy    =    -0.036415242129 Eh
  * 1st order perturbation   Energy     =    -0.000005371283 Eh

  ElementwiseCI (bitset) ran in  : 0.163558 s

  Saving the wave function:


  ==> Post-Diagonalization <==


  ==> Computing Coupling Lists <==
  --------------------------------
        α          0.001576 s
        β          0.001597 s
        αα         0.001728 s
        ββ         0.001691 s
        αβ         0.004470 s
  --------------------------------

  Davidson-Liu solver algorithm
  Using SPARSE sigma builder
 Guess size: 200
    -16.99104218610497  |2200020000000000000000000000000000000000000000000000000000000000>
    -16.87277565794909  |2-+0020000000000000000000000000000000000000000000000000000000000>
    -16.87277565794908  |2+-0020000000000000000000000000000000000000000000000000000000000>
    -16.84453194428662  |2000020020000000000000000000000000000000000000000000000000000000>
    -16.84453194428662  |2000020002000000000000000000000000000000000000000000000000000000>
    -16.78068442391703  |2000022000000000000000000000000000000000000000000000000000000000>
    -16.72258867906878  |2020020000000000000000000000000000000000000000000000000000000000>
    -16.54243584807683  |2002020000000000000000000000000000000000000000000000000000000000>
    -16.54243584807683  |2000220000000000000000000000000000000000000000000000000000000000>
    -16.35884513471531  |200002-+00000000000000000000000000000000000000000000000000000000>
    -16.35884513471530  |200002+-00000000000000000000000000000000000000000000000000000000>
    -15.87781867769774  |2000020200000000000000000000000000000000000000000000000000000000>
    -14.83753044529294  |22000-+000000000000000000000000000000000000000000000000000000000>
    -14.83753044529294  |22000+-000000000000000000000000000000000000000000000000000000000>
    -14.80236561232947  |-2+0020000000000000000000000000000000000000000000000000000000000>
    -14.80236561232947  |+2-0020000000000000000000000000000000000000000000000000000000000>
    -14.73858421606105  |-+00020020000000000000000000000000000000000000000000000000000000>
    -14.73858421606105  |-+00020002000000000000000000000000000000000000000000000000000000>
    -14.73858421606105  |+-00020020000000000000000000000000000000000000000000000000000000>
    -14.73858421606105  |+-00020002000000000000000000000000000000000000000000000000000000>
    -14.73271254447323  |2+-00+-000000000000000000000000000000000000000000000000000000000>
    -14.73271254447323  |2-+00-+000000000000000000000000000000000000000000000000000000000>
    -14.69667629341893  |2--00++000000000000000000000000000000000000000000000000000000000>
    -14.69667629341893  |2++00--000000000000000000000000000000000000000000000000000000000>
    -14.69450655603883  |2-+00+-000000000000000000000000000000000000000000000000000000000>
    -14.69450655603883  |2+-00-+000000000000000000000000000000000000000000000000000000000>
    -14.69214579773848  |-+00022000000000000000000000000000000000000000000000000000000000>
    -14.69214579773848  |+-00022000000000000000000000000000000000000000000000000000000000>
    -14.65900614482302  |-+20020000000000000000000000000000000000000000000000000000000000>
    -14.65900614482302  |+-20020000000000000000000000000000000000000000000000000000000000>
    -14.65035563351363  |2+00-+00-0000000000000000000000000000000000000000000000000000000>
    -14.65035563351363  |2+0-0+000-000000000000000000000000000000000000000000000000000000>
    -14.65035563351363  |2-00+-00+0000000000000000000000000000000000000000000000000000000>
    -14.65035563351363  |2-0+0-000+000000000000000000000000000000000000000000000000000000>
    -14.62272417451227  |2-00++00-0000000000000000000000000000000000000000000000000000000>
    -14.62272417451227  |2-0+0+000-000000000000000000000000000000000000000000000000000000>
    -14.62272417451227  |2+0-0-000+000000000000000000000000000000000000000000000000000000>
    -14.62272417451227  |2+00--00+0000000000000000000000000000000000000000000000000000000>
    -14.61824372762149  |20000+-020000000000000000000000000000000000000000000000000000000>
    -14.61824372762149  |20000+-002000000000000000000000000000000000000000000000000000000>
    -14.61824372762148  |20000-+020000000000000000000000000000000000000000000000000000000>
    -14.61824372762148  |20000-+002000000000000000000000000000000000000000000000000000000>
    -14.60220884780338  |-0+0020020000000000000000000000000000000000000000000000000000000>
    -14.60220884780338  |-0+0020002000000000000000000000000000000000000000000000000000000>
    -14.60220884780337  |+0-0020020000000000000000000000000000000000000000000000000000000>
    -14.60220884780337  |+0-0020002000000000000000000000000000000000000000000000000000000>
    -14.58977919117795  |2-0-0+000+000000000000000000000000000000000000000000000000000000>
    -14.58977919117795  |2-00-+00+0000000000000000000000000000000000000000000000000000000>
    -14.58977919117795  |2+00+-00-0000000000000000000000000000000000000000000000000000000>
    -14.58977919117795  |2+0+0-000-000000000000000000000000000000000000000000000000000000>
    -14.55776820449470  |20200+-000000000000000000000000000000000000000000000000000000000>
    -14.55776820449470  |20200-+000000000000000000000000000000000000000000000000000000000>
    -14.55412650282252  |-0+0022000000000000000000000000000000000000000000000000000000000>
    -14.55412650282252  |+0-0022000000000000000000000000000000000000000000000000000000000>
    -14.53039155841338  |20+0-+00-0000000000000000000000000000000000000000000000000000000>
    -14.53039155841338  |20+-0+000-000000000000000000000000000000000000000000000000000000>
    -14.53039155841338  |20-0+-00+0000000000000000000000000000000000000000000000000000000>
    -14.53039155841338  |20-+0-000+000000000000000000000000000000000000000000000000000000>
    -14.52577379649394  |-000+2-0+0000000000000000000000000000000000000000000000000000000>
    -14.52577379649394  |-00+02-00+000000000000000000000000000000000000000000000000000000>
    -14.52577379649394  |+000-2+0-0000000000000000000000000000000000000000000000000000000>
    -14.52577379649394  |+00-02+00-000000000000000000000000000000000000000000000000000000>
    -14.48623884075638  |+00-02-00+000000000000000000000000000000000000000000000000000000>
    -14.48623884075638  |+000-2-0+0000000000000000000000000000000000000000000000000000000>
    -14.48623884075638  |-000+2+0-0000000000000000000000000000000000000000000000000000000>
    -14.48623884075638  |-00+02+00-000000000000000000000000000000000000000000000000000000>
    -14.47666901045661  |20+-0-000+000000000000000000000000000000000000000000000000000000>
    -14.47666901045661  |20+0--00+0000000000000000000000000000000000000000000000000000000>
    -14.47666901045661  |20-0++00-0000000000000000000000000000000000000000000000000000000>
    -14.47666901045661  |20-+0+000-000000000000000000000000000000000000000000000000000000>
    -14.47258108737349  |20--0+000+000000000000000000000000000000000000000000000000000000>
    -14.47258108737349  |20-0-+00+0000000000000000000000000000000000000000000000000000000>
    -14.47258108737349  |20+0+-00-0000000000000000000000000000000000000000000000000000000>
    -14.47258108737349  |20++0-000-000000000000000000000000000000000000000000000000000000>
    -14.47106737894034  |-00-02+00+000000000000000000000000000000000000000000000000000000>
    -14.47106737894034  |-000-2+0+0000000000000000000000000000000000000000000000000000000>
    -14.47106737894034  |+000+2-0-0000000000000000000000000000000000000000000000000000000>
    -14.47106737894034  |+00+02-00-000000000000000000000000000000000000000000000000000000>
    -14.44975144889619  |-+02020000000000000000000000000000000000000000000000000000000000>
    -14.44975144889619  |+-02020000000000000000000000000000000000000000000000000000000000>
    -14.44975144889619  |-+00220000000000000000000000000000000000000000000000000000000000>
    -14.44975144889619  |+-00220000000000000000000000000000000000000000000000000000000000>
    -14.38962355484023  |22000+0-00000000000000000000000000000000000000000000000000000000>
    -14.38962355484022  |22000-0+00000000000000000000000000000000000000000000000000000000>
    -14.33546505695998  |20020+-000000000000000000000000000000000000000000000000000000000>
    -14.33546505695998  |20002+-000000000000000000000000000000000000000000000000000000000>
    -14.33546505695998  |20020-+000000000000000000000000000000000000000000000000000000000>
    -14.33546505695998  |20002-+000000000000000000000000000000000000000000000000000000000>
    -14.31960439974173  |-0+2020000000000000000000000000000000000000000000000000000000000>
    -14.31960439974173  |-0+0220000000000000000000000000000000000000000000000000000000000>
    -14.31960439974173  |+0-2020000000000000000000000000000000000000000000000000000000000>
    -14.31960439974173  |+0-0220000000000000000000000000000000000000000000000000000000000>
    -14.31735969378217  |+-0002-+00000000000000000000000000000000000000000000000000000000>
    -14.31735969378216  |-+0002+-00000000000000000000000000000000000000000000000000000000>
    -14.30215450516848  |2-+00-0+00000000000000000000000000000000000000000000000000000000>
    -14.30215450516848  |2+-00+0-00000000000000000000000000000000000000000000000000000000>
    -14.29810718583414  |--0002++00000000000000000000000000000000000000000000000000000000>
    -14.29810718583414  |++0002--00000000000000000000000000000000000000000000000000000000>
    -14.29478859026217  |-+0002-+00000000000000000000000000000000000000000000000000000000>
    -14.29478859026217  |+-0002+-00000000000000000000000000000000000000000000000000000000>
    -14.28858964774316  |2--00+0+00000000000000000000000000000000000000000000000000000000>
    -14.28858964774315  |2++00-0-00000000000000000000000000000000000000000000000000000000>
    -14.26332263976721  |2-+00+0-00000000000000000000000000000000000000000000000000000000>
    -14.26332263976720  |2+-00-0+00000000000000000000000000000000000000000000000000000000>
    -14.20916573342519  |20000+0-20000000000000000000000000000000000000000000000000000000>
    -14.20916573342519  |20000+0-02000000000000000000000000000000000000000000000000000000>
    -14.20916573342518  |20000-0+20000000000000000000000000000000000000000000000000000000>
    -14.20916573342518  |20000-0+02000000000000000000000000000000000000000000000000000000>
    -14.19606337304729  |-0+002+-00000000000000000000000000000000000000000000000000000000>
    -14.19606337304729  |+0-002-+00000000000000000000000000000000000000000000000000000000>
    -14.17411814649418  |-0+002-+00000000000000000000000000000000000000000000000000000000>
    -14.17411814649418  |+0-002+-00000000000000000000000000000000000000000000000000000000>
    -14.15153429193914  |20000-2+00000000000000000000000000000000000000000000000000000000>
    -14.15153429193914  |20000+2-00000000000000000000000000000000000000000000000000000000>
    -14.14393313937104  |20200+0-00000000000000000000000000000000000000000000000000000000>
    -14.14393313937104  |20200-0+00000000000000000000000000000000000000000000000000000000>
    -14.14025750459271  |+0+002--00000000000000000000000000000000000000000000000000000000>
    -14.14025750459271  |-0-002++00000000000000000000000000000000000000000000000000000000>
    -14.13543283029825  |-000+20-+0000000000000000000000000000000000000000000000000000000>
    -14.13543283029825  |-00+020-0+000000000000000000000000000000000000000000000000000000>
    -14.13543283029825  |+000-20+-0000000000000000000000000000000000000000000000000000000>
    -14.13543283029825  |+00-020+0-000000000000000000000000000000000000000000000000000000>
    -14.07922783819514  |-000+20+-0000000000000000000000000000000000000000000000000000000>
    -14.07922783819514  |-00+020+0-000000000000000000000000000000000000000000000000000000>
    -14.07922783819514  |+00-020-0+000000000000000000000000000000000000000000000000000000>
    -14.07922783819514  |+000-20-+0000000000000000000000000000000000000000000000000000000>
    -14.07477473502122  |-00-020+0+000000000000000000000000000000000000000000000000000000>
    -14.07477473502122  |-000-20++0000000000000000000000000000000000000000000000000000000>
    -14.07477473502122  |+000+20--0000000000000000000000000000000000000000000000000000000>
    -14.07477473502122  |+00+020-0-000000000000000000000000000000000000000000000000000000>
    -13.93971527283277  |20020-0+00000000000000000000000000000000000000000000000000000000>
    -13.93971527283277  |20002-0+00000000000000000000000000000000000000000000000000000000>
    -13.93971527283277  |20020+0-00000000000000000000000000000000000000000000000000000000>
    -13.93971527283277  |20002+0-00000000000000000000000000000000000000000000000000000000>
    -13.86081531849003  |+-00020200000000000000000000000000000000000000000000000000000000>
    -13.86081531849003  |-+00020200000000000000000000000000000000000000000000000000000000>
    -13.76711273837610  |20000+-200000000000000000000000000000000000000000000000000000000>
    -13.76711273837610  |20000-+200000000000000000000000000000000000000000000000000000000>
    -13.75686784890313  |-0+0020200000000000000000000000000000000000000000000000000000000>
    -13.75686784890312  |+0-0020200000000000000000000000000000000000000000000000000000000>
    -12.81379214190066  |-2+00-+000000000000000000000000000000000000000000000000000000000>
    -12.81379214190066  |+2-00+-000000000000000000000000000000000000000000000000000000000>
    -12.70892988140350  |+200-+00-0000000000000000000000000000000000000000000000000000000>
    -12.70892988140350  |+20-0+000-000000000000000000000000000000000000000000000000000000>
    -12.70892988140350  |-200+-00+0000000000000000000000000000000000000000000000000000000>
    -12.70892988140350  |-20+0-000+000000000000000000000000000000000000000000000000000000>
    -12.54085890152146  |-0+00-+020000000000000000000000000000000000000000000000000000000>
    -12.54085890152146  |+0-00+-020000000000000000000000000000000000000000000000000000000>
    -12.54085890152146  |-0+00-+002000000000000000000000000000000000000000000000000000000>
    -12.54085890152146  |+0-00+-002000000000000000000000000000000000000000000000000000000>
    -12.46567681731037  |-00+0-002+000000000000000000000000000000000000000000000000000000>
    -12.46567681731037  |-000+-00+2000000000000000000000000000000000000000000000000000000>
    -12.46567681731037  |+00-0+002-000000000000000000000000000000000000000000000000000000>
    -12.46567681731037  |+000-+00-2000000000000000000000000000000000000000000000000000000>
    -12.40771618432133  |-2+00-0+00000000000000000000000000000000000000000000000000000000>
    -12.40771618432133  |+2-00+0-00000000000000000000000000000000000000000000000000000000>
    -12.17361184019855  |-0+00-0+20000000000000000000000000000000000000000000000000000000>
    -12.17361184019855  |+0-00+0-20000000000000000000000000000000000000000000000000000000>
    -12.17361184019855  |-0+00-0+02000000000000000000000000000000000000000000000000000000>
    -12.17361184019855  |+0-00+0-02000000000000000000000000000000000000000000000000000000>
    -12.13174557410124  |-0+00-2+00000000000000000000000000000000000000000000000000000000>
    -12.13174557410124  |+0-00+2-00000000000000000000000000000000000000000000000000000000>
    -12.09168555027251  |2200000020000000000000000000000000000000000000000000000000000000>
    -12.09168555027251  |2200000002000000000000000000000000000000000000000000000000000000>
    -12.08572102116315  |0200020020000000000000000000000000000000000000000000000000000000>
    -12.08572102116315  |0200020002000000000000000000000000000000000000000000000000000000>
    -12.07096460377510  |+2+00--000000000000000000000000000000000000000000000000000000000>
    -12.07096460377510  |-2-00++000000000000000000000000000000000000000000000000000000000>
    -12.06895384261377  |+2-00-+000000000000000000000000000000000000000000000000000000000>
    -12.06895384261377  |-2+00+-000000000000000000000000000000000000000000000000000000000>
    -12.06138767148478  |2200002000000000000000000000000000000000000000000000000000000000>
    -12.05669170488759  |0200022000000000000000000000000000000000000000000000000000000000>
    -12.05586533488887  |2220000000000000000000000000000000000000000000000000000000000000>
    -12.04850814390492  |0220020000000000000000000000000000000000000000000000000000000000>
    -11.96375421501285  |2-+0000020000000000000000000000000000000000000000000000000000000>
    -11.96375421501285  |2+-0000020000000000000000000000000000000000000000000000000000000>
    -11.96375421501285  |2-+0000002000000000000000000000000000000000000000000000000000000>
    -11.96375421501285  |2+-0000002000000000000000000000000000000000000000000000000000000>
    -11.95802074384971  |-200++00-0000000000000000000000000000000000000000000000000000000>
    -11.95802074384971  |-20+0+000-000000000000000000000000000000000000000000000000000000>
    -11.95802074384971  |+20-0-000+000000000000000000000000000000000000000000000000000000>
    -11.95802074384971  |+200--00+0000000000000000000000000000000000000000000000000000000>
    -11.95751146482396  |--000++020000000000000000000000000000000000000000000000000000000>
    -11.95751146482396  |--000++002000000000000000000000000000000000000000000000000000000>
    -11.95751146482396  |++000--020000000000000000000000000000000000000000000000000000000>
    -11.95751146482396  |++000--002000000000000000000000000000000000000000000000000000000>
    -11.95715333159048  |+-000-+020000000000000000000000000000000000000000000000000000000>
    -11.95715333159048  |-+000+-020000000000000000000000000000000000000000000000000000000>
    -11.95715333159048  |+-000-+002000000000000000000000000000000000000000000000000000000>
    -11.95715333159048  |-+000+-002000000000000000000000000000000000000000000000000000000>
    -11.95670725178972  |-20-0+000+000000000000000000000000000000000000000000000000000000>
    -11.95670725178972  |-200-+00+0000000000000000000000000000000000000000000000000000000>
    -11.95670725178972  |+200+-00-0000000000000000000000000000000000000000000000000000000>
    -11.95670725178972  |+20+0-000-000000000000000000000000000000000000000000000000000000>
    -11.95617316427933  |0-+0020020000000000000000000000000000000000000000000000000000000>
    -11.95617316427933  |0+-0020020000000000000000000000000000000000000000000000000000000>
    -11.95617316427933  |0-+0020002000000000000000000000000000000000000000000000000000000>
    -11.95617316427933  |0+-0020002000000000000000000000000000000000000000000000000000000>
    -11.93940113567698  |--200++000000000000000000000000000000000000000000000000000000000>
    -11.93940113567698  |++200--000000000000000000000000000000000000000000000000000000000>
  Initial guess space is incomplete!
  Trying to add 40 determinant(s).  34 determinant(s) added.
  Found a guess vector with spin not close to integer value (4.123106)
  Found a guess vector with spin not close to integer value (4.123106)
  Found a guess vector with spin not close to integer value (4.123106)
  Initial guess found 99 solutions with 2S+1 = 1 *
  Initial guess found 109 solutions with 2S+1 = 3  
  Initial guess found 23 solutions with 2S+1 = 5  
  Adding guess 0 (multiplicity = 1.000000)
  Adding guess 1 (multiplicity = 1.000000)

  ==> Diagonalizing Hamiltonian <==

  ----------------------------------------
    Iter.      Avg. Energy       Delta_E
  ----------------------------------------
      1      -17.027304404122  -1.703e+01
      2      -17.027461280057  -1.569e-04
      3      -17.027462276079  -9.960e-07
      4      -17.027462300675  -2.460e-08
      5      -17.027462305276  -4.601e-09
      6      -17.027462305393  -1.167e-10
      7      -17.027462305397  -4.547e-12
      8      -17.027462305398  -6.146e-13
  ----------------------------------------
  The Davidson-Liu algorithm converged in 9 iterations.
  Davidson-Liu procedure took  0.281622 s

  * ElementwiseCI Post-diag   Energy    =   -14.646164857383 Eh
  * ElementwiseCI Var. Corr.  Energy    =    -0.036420119293 Eh

  Most important contributions to the wave function:

    0       0.933175      0.870815           0 |2200020000000000000000000000000000000000000000000000000000000000>    -16.991042186105
    1      -0.230295     0.0530357           1 |2000020020000000000000000000000000000000000000000000000000000000>    -16.844531944287
    2      -0.230295     0.0530357           2 |2000020002000000000000000000000000000000000000000000000000000000>    -16.844531944287
    3      -0.120735     0.0145769           3 |2000022000000000000000000000000000000000000000000000000000000000>    -16.780684423917
    4     -0.0804025    0.00646457           4 |2020020000000000000000000000000000000000000000000000000000000000>    -16.722588679069
    5     -0.0245972   0.000605021           5 |200002-+00000000000000000000000000000000000000000000000000000000>    -16.358845134715
    6     -0.0245972   0.000605021           6 |200002+-00000000000000000000000000000000000000000000000000000000>    -16.358845134715
    7     -0.0150823   0.000227477           7 |2-+0020000000000000000000000000000000000000000000000000000000000>    -16.872775657949
    8     -0.0150823   0.000227477           8 |2+-0020000000000000000000000000000000000000000000000000000000000>    -16.872775657949
    9    -0.00775819   6.01895e-05           9 |2000020200000000000000000000000000000000000000000000000000000000>    -15.877818677698

  Spin State: S^2 = 0.000, S = 0.000, singlet (from 3 determinants,97.69%)
  Saving root 0, ref_root is 0
  Number of old roots: 1

  ==> Excited state solver summary <==

  Iterations required:                         9
  Dimension of optimized determinant space:    418

  * Selected-CI Energy Root   0        = -14.646154608936 Eh =   0.0000 eV
  * Selected-CI Energy Root   0 + EPT2 = -14.646154608936 Eh =   0.0000 eV

  ==> Wavefunction Information <==

  Most important contributions to root   0:
    0   0.933172 0.870810393           0 |2200020000>
    1  -0.230853 0.053292896           1 |2000020020>
    2  -0.230853 0.053292896           2 |2000020002>
    3  -0.119017 0.014165035           3 |2000022000>
    4  -0.080494 0.006479207           4 |2020020000>
    5  -0.024586 0.000604474           5 |200002-+00>
    6  -0.024586 0.000604474           6 |200002+-00>
    7  -0.013181 0.000173745           7 |2-+0020000>
    8  -0.013181 0.000173745           8 |2+-0020000>
    9  -0.007825 0.000061224           9 |2000020200>

  Spin state for root 0: S^2 = 0.001984, S = 0.002, singlet

  Saving information for root: 0

  ==> Energy Summary <==

    Multi.  Irrep.  No.               Energy
    -----------------------------------------
       1      Ag     0       -14.646154608936
    -----------------------------------------	EWCI energy.......................................................PASSED
	EWCI POST DIAG ENERGY.............................................PASSED

    Psi4 stopped on: Sunday, 17 February 2019 03:48AM
    Psi4 wall time for execution: 0:00:01.40

*** Psi4 exiting successfully. Buy a developer a beer!
