
    -----------------------------------------------------------------------
          Psi4: An Open-Source Ab Initio Electronic Structure Package
                               Psi4 1.3a2.dev26 

                         Git: Rev {master} e20a281 


    R. M. Parrish, L. A. Burns, D. G. A. Smith, A. C. Simmonett,
    A. E. DePrince III, E. G. Hohenstein, U. Bozkaya, A. Yu. Sokolov,
    R. Di Remigio, R. M. Richard, J. F. Gonthier, A. M. James,
    H. R. McAlexander, A. Kumar, M. Saitow, X. Wang, B. P. Pritchard,
    P. Verma, H. F. Schaefer III, K. Patkowski, R. A. King, E. F. Valeev,
    F. A. Evangelista, J. M. Turney, T. D. Crawford, and C. D. Sherrill,
    J. Chem. Theory Comput. 13(7) pp 3185--3197 (2017).
    (doi: 10.1021/acs.jctc.7b00174)


                         Additional Contributions by
    P. Kraus, H. Kruse, M. H. Lechner, M. C. Schieber, and R. A. Shaw

    -----------------------------------------------------------------------


    Psi4 started on: Tuesday, 06 November 2018 10:46PM

    Process ID: 61102
    Host:       dhcp189-8.emerson.emory.edu
    PSIDATADIR: /Users/york/src/psi4new/psi4/share/psi4
    Memory:     500.0 MiB
    Threads:    1
    
  ==> Input File <==

--------------------------------------------------------------------------
#! Generated using commit GITCOMMIT

import forte

refrhf   = -2.179077709687157
refdsrg  = -2.253241855057433 # semi_canonical true
refdsrg  = -2.253241855057861 # semi_canonical false

memory 500 mb

molecule H4{
  0 1
  H  0.0 0.0 0.0
  H  0.0 0.0 0.7
  H  0.0 1.4 0.0
  H  0.0 1.4 0.7
}

set globals{
   basis                   cc-pvdz
   reference               rhf
   scf_type                pk
   d_convergence           12
   e_convergence           15
   maxiter                 300
}

set forte{
   job_type                mrdsrg
   int_type                cholesky
   cholesky_tolerance      1e-4
   corr_level              ldsrg2
   restricted_docc         [0,0,0,0,0,0,0,0]
   active                  [1,0,0,1,0,1,1,0]
   root_sym                0
   nroot                   1
   dsrg_s                  0.5
   e_convergence           8
   semi_canonical          false # test if mrdsrg can handle non-canonical orbitals
   dsrg_hbar_seq           true
   dsrg_nivo               true
}

Escf, wfn = energy('scf', return_wfn=True)
compare_values(refrhf,get_variable("CURRENT ENERGY"),10,"SCF energy")

energy('forte', ref_wfn=wfn)
compare_values(refdsrg,get_variable("CURRENT ENERGY"),8,"MRDSRG unrelaxed energy")
--------------------------------------------------------------------------

  Memory set to 476.837 MiB by Python driver.

*** tstart() called on dhcp189-8.emerson.emory.edu
*** at Tue Nov  6 22:46:56 2018

   => Loading Basis Set <=

    Name: CC-PVDZ
    Role: ORBITAL
    Keyword: BASIS
    atoms 1-4 entry H          line    22 file /Users/york/src/psi4new/psi4/share/psi4/basis/cc-pvdz.gbs 


         ---------------------------------------------------------
                                   SCF
            by Justin Turney, Rob Parrish, Andy Simmonett
                             and Daniel Smith
                              RHF Reference
                        1 Threads,    476 MiB Core
         ---------------------------------------------------------

  ==> Geometry <==

    Molecular point group: d2h
    Full point group: D2h

    Geometry (in Angstrom), charge = 0, multiplicity = 1:

       Center              X                  Y                   Z               Mass       
    ------------   -----------------  -----------------  -----------------  -----------------
         H            0.000000000000    -0.700000000000    -0.350000000000     1.007825032070
         H            0.000000000000    -0.700000000000     0.350000000000     1.007825032070
         H           -0.000000000000     0.700000000000    -0.350000000000     1.007825032070
         H           -0.000000000000     0.700000000000     0.350000000000     1.007825032070

  Running in d2h symmetry.

  Rotational constants: A =     34.13621  B =      8.53405  C =      6.82724 [cm^-1]
  Rotational constants: A = 1023377.76848  B = 255844.44212  C = 204675.55370 [MHz]
  Nuclear repulsion =    2.944060168701057

  Charge       = 0
  Multiplicity = 1
  Electrons    = 4
  Nalpha       = 2
  Nbeta        = 2

  ==> Algorithm <==

  SCF Algorithm Type is PK.
  DIIS enabled.
  MOM disabled.
  Fractional occupation disabled.
  Guess Type is SAD.
  Energy threshold   = 1.00e-15
  Density threshold  = 1.00e-12
  Integral threshold = 0.00e+00

  ==> Primary Basis <==

  Basis Set: CC-PVDZ
    Blend: CC-PVDZ
    Number of shells: 12
    Number of basis function: 20
    Number of Cartesian functions: 20
    Spherical Harmonics?: true
    Max angular momentum: 1

  ==> Pre-Iterations <==

   -------------------------------------------------------
    Irrep   Nso     Nmo     Nalpha   Nbeta   Ndocc  Nsocc
   -------------------------------------------------------
     Ag         4       4       0       0       0       0
     B1g        1       1       0       0       0       0
     B2g        1       1       0       0       0       0
     B3g        4       4       0       0       0       0
     Au         1       1       0       0       0       0
     B1u        4       4       0       0       0       0
     B2u        4       4       0       0       0       0
     B3u        1       1       0       0       0       0
   -------------------------------------------------------
    Total      20      20       2       2       2       0
   -------------------------------------------------------

  ==> Integral Setup <==

  Using in-core PK algorithm.
   Calculation information:
      Number of atoms:                   4
      Number of AO shells:              12
      Number of primitives:             20
      Number of atomic orbitals:        20
      Number of basis functions:        20

      Integral cutoff                 1.00e-12
      Number of threads:                 1

  Performing in-core PK
  Using 44310 doubles for integral storage.
  We computed 3081 shell quartets total.
  Whereas there are 3081 unique shell quartets.

  ==> DiskJK: Disk-Based J/K Matrices <==

    J tasked:                  Yes
    K tasked:                  Yes
    wK tasked:                  No
    Memory (MB):               357
    Schwarz Cutoff:          1E-12

    OpenMP threads:              1

  Minimum eigenvalue in the overlap matrix is 2.4975800902E-02.
  Using Symmetric Orthogonalization.

  SCF Guess: Superposition of Atomic Densities via on-the-fly atomic UHF.

  ==> Iterations <==

                        Total Energy        Delta E     RMS |[F,P]|

   @RHF iter   0:    -1.89053115307645   -1.89053e+00   4.91625e-02 
   @RHF iter   1:    -2.17498638607850   -2.84455e-01   8.12248e-03 
   @RHF iter   2:    -2.17894275799513   -3.95637e-03   1.50517e-03 DIIS
   @RHF iter   3:    -2.17907752106349   -1.34763e-04   6.71864e-05 DIIS
   @RHF iter   4:    -2.17907770951161   -1.88448e-07   2.29385e-06 DIIS
   @RHF iter   5:    -2.17907770968648   -1.74872e-10   8.98372e-08 DIIS
   @RHF iter   6:    -2.17907770968714   -6.55476e-13   1.84767e-08 DIIS
   @RHF iter   7:    -2.17907770968716   -2.22045e-14   1.36211e-09 DIIS
   @RHF iter   8:    -2.17907770968716    8.88178e-16   1.91132e-11 DIIS
   @RHF iter   9:    -2.17907770968715    3.55271e-15   3.89773e-13 DIIS
   @RHF iter  10:    -2.17907770968716   -4.44089e-15   4.89760e-14 DIIS
   @RHF iter  11:    -2.17907770968716    0.00000e+00   7.46908e-15 DIIS
  Energy converged.


  ==> Post-Iterations <==

    Orbital Energies [Eh]
    ---------------------

    Doubly Occupied:                                                      

       1Ag    -0.731109     1B2u   -0.473172  

    Virtual:                                                              

       1B1u    0.149152     1B3g    0.312110     2Ag     0.467948  
       2B2u    0.487205     2B1u    0.888424     2B3g    1.029316  
       3Ag     1.093503     1B3u    1.157482     1B1g    1.442832  
       3B1u    1.883852     4Ag     1.902987     1B2g    1.930967  
       3B2u    1.999378     4B2u    2.160832     1Au     2.213770  
       3B3g    2.724004     4B1u    3.829643     4B3g    4.017613  

    Final Occupation by Irrep:
             Ag   B1g   B2g   B3g    Au   B1u   B2u   B3u 
    DOCC [     1,    0,    0,    0,    0,    0,    1,    0 ]

  @RHF Final Energy:    -2.17907770968716

   => Energetics <=

    Nuclear Repulsion Energy =              2.9440601687010566
    One-Electron Energy =                  -7.8377143913152603
    Two-Electron Energy =                   2.7145765129270458
    Total Energy =                         -2.1790777096871583

Computation Completed


Properties will be evaluated at   0.000000,   0.000000,   0.000000 [a0]

Properties computed using the SCF density matrix

  Nuclear Dipole Moment: [e a0]
     X:     0.0000      Y:     0.0000      Z:     0.0000

  Electronic Dipole Moment: [e a0]
     X:     0.0000      Y:     0.0000      Z:     0.0000

  Dipole Moment: [e a0]
     X:     0.0000      Y:     0.0000      Z:     0.0000     Total:     0.0000

  Dipole Moment: [D]
     X:     0.0000      Y:     0.0000      Z:     0.0000     Total:     0.0000


*** tstop() called on dhcp189-8.emerson.emory.edu at Tue Nov  6 22:46:57 2018
Module time:
	user time   =       0.41 seconds =       0.01 minutes
	system time =       0.02 seconds =       0.00 minutes
	total time  =          1 seconds =       0.02 minutes
Total time:
	user time   =       0.41 seconds =       0.01 minutes
	system time =       0.02 seconds =       0.00 minutes
	total time  =          1 seconds =       0.02 minutes
	SCF energy........................................................PASSED
   => Loading Basis Set <=

    Name: STO-3G
    Role: ORBITAL
    Keyword: MINAO_BASIS
    atoms 1-4 entry H          line    19 file /Users/york/src/psi4new/psi4/share/psi4/basis/sto-3g.gbs 


Reading options from the FORTE block
Calling plugin forte.so.



  Forte
  ----------------------------------------------------------------------------
  A suite of quantum chemistry methods for strongly correlated electrons

    git branch: dwsa-dsrg-pt - git commit: 84cccd4f

  Developed by:
    Francesco A. Evangelista, Chenyang Li, Kevin P. Hannon,
    Jeffrey B. Schriber, Tianyuan Zhang, Chenxi Cai
  ----------------------------------------------------------------------------

  Size of Determinant class: 16

  ==> MO Space Information <==

  Read options for space RESTRICTED_DOCC
  Read options for space ACTIVE
  -------------------------------------------------------------------------
                       Ag   B1g   B2g   B3g    Au   B1u   B2u   B3u   Sum
  -------------------------------------------------------------------------
    FROZEN_DOCC         0     0     0     0     0     0     0     0     0
    RESTRICTED_DOCC     0     0     0     0     0     0     0     0     0
    ACTIVE              1     0     0     1     0     1     1     0     4
    RESTRICTED_UOCC     3     1     1     3     1     3     3     1    16
    FROZEN_UOCC         0     0     0     0     0     0     0     0     0
    Total               4     1     1     4     1     4     4     1    20
  -------------------------------------------------------------------------

  ==> Integral Transformation <==

  Number of molecular orbitals:                    20
  Number of correlated molecular orbitals:         20
  Number of frozen occupied orbitals:               0
  Number of frozen unoccupied orbitals:             0
  Two-electron integral type:              Cholesky decomposition


  Computing the Cholesky Vectors 

  Computing CD Integrals               ......Done.
  Timing for cholesky transformation:                         0.021 s.
  Need 249.60 KB to store CD integrals in core

  Number of Cholesky vectors required for 1.000e-04 tolerance: 78

  Timing for freezing core and virtual orbitals:              0.000 s.
  Timing for computing Cholesky integrals:                    0.032 s.

                -----------------------------------------------
                  String-based Full Configuration Interaction
                          by Francesco A. Evangelista
                -----------------------------------------------

  Number of electrons: 4
  Charge: 0
  Multiplicity: 1
  Davidson subspace max dim: 8
  Davidson subspace min dim: 2
  M_s: 0

  ==> String Lists <==

  Number of alpha electrons     = 2
  Number of beta electrons      = 2
  Number of alpha strings       = 6
  Number of beta strings        = 6
  Timing for strings        =      0.000 s
  Timing for NN strings     =      0.000 s
  Timing for VO strings     =      0.000 s
  Timing for OO strings     =      0.000 s
  Timing for VVOO strings   =      0.000 s
  Timing for VOVO strings   =      0.000 s
  Timing for 1-hole strings =      0.000 s
  Timing for 2-hole strings =      0.000 s
  Timing for 3-hole strings =      0.000 s
  Total timing              =      0.000 s

  ==> FCI Solver <==

    Number of determinants                          12
    Symmetry                                         0
    Multiplicity                                     1
    Number of roots                                  1
    Target root                                      0
    Trial vectors per root                          10

  Allocating memory for the Hamiltonian algorithm. Size: 2 x 2 x 2.   Memory: 0.000000 GB

  ==> FCI Initial Guess <==

  ---------------------------------------------
    Root            Energy     <S^2>   Spin
  ---------------------------------------------
      0       -2.184584291413  0.000  singlet
      1       -1.494748198875  0.000  singlet
      2       -1.249754868194  6.000  quintet
      3       -1.142244093842  2.000  triplet
      4       -1.140458303979  0.000  singlet
      5       -1.082665861308  2.000  triplet
      6       -1.000141501565  0.000  singlet
      7       -0.901341090545  0.000  singlet
      8       -0.843482211555  2.000  triplet
      9       -0.703044624716  0.000  singlet
     10       -0.334309340923  0.000  singlet
     11        0.495149867638  0.000  singlet
  ---------------------------------------------
  Timing for initial guess  =      0.001 s

  Projecting out root 2
  Projecting out root 3
  Projecting out root 5
  Projecting out root 8
  ==> Diagonalizing Hamiltonian <==

  ----------------------------------------
    Iter.      Avg. Energy       Delta_E
  ----------------------------------------
      1       -2.184584291413  -2.185e+00
      2       -2.184584291413  -2.665e-15
  ----------------------------------------
  The Davidson-Liu algorithm converged in 3 iterations.

  ==> Root No. 0 <==

    2 0 0 2     -0.99771732

    Total Energy:        -2.184584291413209

  ==> Computing RDMs for Root No. 0 <==

    Timing for 1-RDM: 0.000 s
    Timing for 2-RDM: 0.000 s
    Timing for 3-RDM: 0.001 s

  ==> NATURAL ORBITALS <==

        1Ag     1.995760      1B2u    1.995112      1B1u    0.005663  
        1B3g    0.003465  


  ==> Multireference Driven Similarity Renormalization Group <==

    Reading DSRG options ............................ Done
    Setting ambit MO space .......................... Done
    Preparing tensors for density cumulants ......... Done
    Building Fock matrix ............................ Done
    Checking reference energy ....................... Done

           ----------------------------------------------------------
             Multireference Driven Similarity Renormalization Group
                                  Chenyang Li
           ----------------------------------------------------------

  Additional contributions by: Tianyuan Zhang

  ==> Density Cumulant Summary <==

    2-body             AA           AB           BB
    -----------------------------------------------
    max          0.010533     0.031587     0.010533
    norm         0.030568     0.093259     0.030568
    -----------------------------------------------
    3-body            AAA          AAB          ABB          BBB
    ------------------------------------------------------------
    max          0.000111     0.000994     0.000994     0.000111
    norm         0.001311     0.009201     0.009201     0.001311
    ------------------------------------------------------------

  ==> Checking Semicanonical Orbitals <==

    Abs. max of Fock core, active, virtual blocks (Fij, i != j)
                  core          active         virtual
    --------------------------------------------------
    Fα    0.0000000000    0.0000007239    0.0005836406
    Fβ    0.0000000000    0.0000007239    0.0005836406
    --------------------------------------------------

    1-Norm of Fock core, active, virtual blocks (Fij, i != j)
                  core          active         virtual
    --------------------------------------------------
    Fα    0.0000000000    0.0000036824    0.0060877075
    Fβ    0.0000000000    0.0000036824    0.0060877075
    --------------------------------------------------

    Warning! Orbitals are not semi-canonicalized!
    Orbital invariant formalism will be employed for MR-DSRG.

  ==> Calculation Information <==

    ntamp                                            15
    diis_min_vecs                                     2
    diis_max_vecs                                     5
    flow parameter                            5.000e-01
    taylor expansion threshold                1.000e-03
    intruder_tamp                             1.000e-01
    corr_level                                   LDSRG2
    int_type                                   CHOLESKY
    source operator                            STANDARD
    smart_dsrg_s                                 DSRG_S
    reference relaxation                           NONE
    dsrg transformation type                    UNITARY
    core virtual source type                     NORMAL
    sequential dsrg transformation                 TRUE
    omit blocks of >= 3 virtual indices            TRUE


  ==> Build Initial Amplitude from DSRG-MRPT2 <==

    Computing T2 amplitudes ...          Done. Timing      0.217 s
    Computing T1 amplitudes ...          Done. Timing      0.017 s

  ==> First-Order Excitation Amplitudes Summary <==

    Active Indices:    0    6   11   15 
    Largest T1 amplitudes for spin case A:
       i       a                  i       a                  i       a               
    --------------------------------------------------------------------------------
    [ 11      12    ] 0.000353 [  6       7    ] 0.000271 [  0       1    ] 0.000090 
    [ 15      16    ] 0.000087 [  0       2    ]-0.000078 [  6       8    ] 0.000071 
    [ 15      18    ]-0.000069 [  0       3    ]-0.000056 [ 15      17    ]-0.000021 
    [ 11      14    ]-0.000017 [  6       9    ]-0.000009 [ 11      13    ]-0.000003 
    [  6      17    ] 0.000003 [ 15       9    ]-0.000001 [  0      13    ] 0.000001 
    --------------------------------------------------------------------------------
    Norm of T1A vector: (nonzero elements: 48)                    0.000483509595955.
    --------------------------------------------------------------------------------
    Largest T1 amplitudes for spin case B:
       _       _                  _       _                  _       _               
       i       a                  i       a                  i       a               
    --------------------------------------------------------------------------------
    [ 11      12    ] 0.000353 [  6       7    ] 0.000271 [  0       1    ] 0.000090 
    [ 15      16    ] 0.000087 [  0       2    ]-0.000078 [  6       8    ] 0.000071 
    [ 15      18    ]-0.000069 [  0       3    ]-0.000056 [ 15      17    ]-0.000021 
    [ 11      14    ]-0.000017 [  6       9    ]-0.000009 [ 11      13    ]-0.000003 
    [  6      17    ] 0.000003 [ 15       9    ]-0.000001 [  0      13    ] 0.000001 
    --------------------------------------------------------------------------------
    Norm of T1B vector: (nonzero elements: 48)                    0.000483509595955.
    --------------------------------------------------------------------------------
    Largest T2 amplitudes for spin case AA:
       i   j   a   b              i   j   a   b              i   j   a   b           
    --------------------------------------------------------------------------------
    [  0  15   2  15] 0.035512 [ 11  15  12  15]-0.021908 [  0  11   1  11]-0.020853 
    [  0   6   0   7]-0.020744 [  0  11   0  12]-0.019560 [  0  15   0  16]-0.018409 
    [  0  11   1  12]-0.017777 [ 11  15   2   6] 0.017482 [  0  15   1  15]-0.017341 
    [  0   6  13  15] 0.016699 [  6  15   7  16]-0.015940 [ 11  15  11  16]-0.015641 
    [  6  15   7  15]-0.015282 [  6  15   6  16]-0.013815 [ 11  15  12  16]-0.013783 
    --------------------------------------------------------------------------------
    Norm of T2AA vector: (nonzero elements: 2816)                 0.191865379890709.
    --------------------------------------------------------------------------------
    Largest T2 amplitudes for spin case AB:
           _       _                  _       _                  _       _           
       i   j   a   b              i   j   a   b              i   j   a   b           
    --------------------------------------------------------------------------------
    [  0  15   0  16]-0.042504 [  0   0   0   1]-0.041851 [ 15  15   0   2]-0.038688 
    [ 15  15  15  16]-0.038299 [  0  15   1  15]-0.036734 [  0  11   0  12]-0.034491 
    [ 11  15  12  15]-0.030856 [  0   6   0   7]-0.028791 [  0   0  15  16]-0.028161 
    [  6  15   7  15]-0.027290 [ 15  15   2   2]-0.025043 [ 15  15   7   7]-0.024217 
    [ 15  15  16  16]-0.023127 [  0   0   2   2]-0.022206 [  0   0  19  19]-0.020549 
    --------------------------------------------------------------------------------
    Norm of T2AB vector: (nonzero elements: 3968)                 0.268370791971975.
    --------------------------------------------------------------------------------
    Largest T2 amplitudes for spin case BB:
       _   _   _   _              _   _   _   _              _   _   _   _           
       i   j   a   b              i   j   a   b              i   j   a   b           
    --------------------------------------------------------------------------------
    [  0  15   2  15] 0.035512 [ 11  15  12  15]-0.021908 [  0  11   1  11]-0.020853 
    [  0   6   0   7]-0.020744 [  0  11   0  12]-0.019560 [  0  15   0  16]-0.018409 
    [  0  11   1  12]-0.017777 [ 11  15   2   6] 0.017482 [  0  15   1  15]-0.017341 
    [  0   6  13  15] 0.016699 [  6  15   7  16]-0.015940 [ 11  15  11  16]-0.015641 
    [  6  15   7  15]-0.015282 [  6  15   6  16]-0.013815 [ 11  15  12  16]-0.013783 
    --------------------------------------------------------------------------------
    Norm of T2BB vector: (nonzero elements: 2816)                 0.191865379890709.
    --------------------------------------------------------------------------------

  ==> Possible Intruders <==

    T1 amplitudes larger than 0.1000 for spin case A: NULL
    T1 amplitudes larger than 0.1000 for spin case B: NULL
    T2 amplitudes larger than 0.1000 for spin case AA: NULL
    T2 amplitudes larger than 0.1000 for spin case AB: NULL
    T2 amplitudes larger than 0.1000 for spin case BB: NULL

  ==> Computing MR-LDSRG(2) Energy <==

    Reference:
      J. Chem. Phys. 2016, 144, 164114.

                  Energy (a.u.)           Non-Diagonal Norm        Amplitude RMS         Timings (s)   
           ---------------------------  ---------------------  ---------------------  -----------------
    Iter.        Corr.         Delta       Hbar1      Hbar2        T1         T2        Hbar     Amp.  
    ---------------------------------------------------------------------------------------------------
        0   -0.064436103734 -6.444e-02   3.505e-02  7.039e-01   7.900e-03  4.758e-02    19.785    0.358
        1   -0.068087376824 -3.651e-03   2.539e-02  6.820e-01   1.650e-03  1.030e-02    21.197    0.368
        2   -0.068537776507 -4.504e-04   2.457e-02  6.777e-01   4.849e-04  2.691e-03    20.761    0.364
        3   -0.068625576745 -8.780e-05   2.440e-02  6.777e-01   1.597e-04  7.549e-04    21.626    0.391
        4   -0.068648978633 -2.340e-05   2.437e-02  6.776e-01   5.041e-05  2.258e-04    20.172    0.352
        5   -0.068655009474 -6.031e-06   2.436e-02  6.776e-01   1.731e-05  6.933e-05    19.941    0.351 -> DIIS
        6   -0.068656837228 -1.828e-06   2.436e-02  6.776e-01   5.671e-06  2.214e-05    19.779    0.346 -> DIIS
        7   -0.068657569727 -7.325e-07   2.436e-02  6.776e-01   9.135e-08  5.870e-07    19.840    0.368 -> DIIS
        8   -0.068657563645  6.083e-09   2.436e-02  6.776e-01   1.489e-08  1.609e-07    19.869    0.341
    ---------------------------------------------------------------------------------------------------

  ==> MR-LDSRG(2) Energy Summary <==

    E0 (reference)                 =      -2.184584291413209
    MR-LDSRG(2) correlation energy =      -0.068657563644651
    MR-LDSRG(2) total energy       =      -2.253241855057860

  ==> Final Excitation Amplitudes Summary <==

    Active Indices:    0    6   11   15 
    Largest T1 amplitudes for spin case A:
       i       a                  i       a                  i       a               
    --------------------------------------------------------------------------------
    [ 11      12    ] 0.003813 [  6       7    ] 0.003245 [  0       3    ] 0.003053 
    [ 15      18    ] 0.002204 [ 15      17    ] 0.001852 [ 15      16    ] 0.001216 
    [  0       2    ]-0.000935 [  0       1    ] 0.000660 [ 11      13    ]-0.000415 
    [ 11      14    ]-0.000372 [  6       9    ]-0.000294 [  6       8    ] 0.000135 
    [  6      17    ] 0.000003 [ 15       9    ]-0.000002 [  0      13    ] 0.000001 
    --------------------------------------------------------------------------------
    Norm of T1A vector: (nonzero elements: 48)                    0.006773493700583.
    --------------------------------------------------------------------------------
    Largest T1 amplitudes for spin case B:
       _       _                  _       _                  _       _               
       i       a                  i       a                  i       a               
    --------------------------------------------------------------------------------
    [ 11      12    ] 0.003813 [  6       7    ] 0.003245 [  0       3    ] 0.003053 
    [ 15      18    ] 0.002204 [ 15      17    ] 0.001852 [ 15      16    ] 0.001216 
    [  0       2    ]-0.000935 [  0       1    ] 0.000660 [ 11      13    ]-0.000415 
    [ 11      14    ]-0.000372 [  6       9    ]-0.000294 [  6       8    ] 0.000135 
    [  6      17    ] 0.000003 [ 15       9    ]-0.000002 [  0      13    ] 0.000001 
    --------------------------------------------------------------------------------
    Norm of T1B vector: (nonzero elements: 48)                    0.006773493700583.
    --------------------------------------------------------------------------------
    Largest T2 amplitudes for spin case AA:
       i   j   a   b              i   j   a   b              i   j   a   b           
    --------------------------------------------------------------------------------
    [  0  15   2  15] 0.039561 [  0  11   1  11]-0.022539 [ 11  15  12  15]-0.020200 
    [  0   6   0   7]-0.019247 [ 11  15   2   6] 0.018896 [  0  15   0  16]-0.018334 
    [  0  15   1  15]-0.018304 [  0  11   1  12]-0.018176 [  0  11   0  12]-0.017994 
    [  0   6  13  15] 0.017095 [ 11  15  11  16]-0.017005 [  6  15   7  16]-0.016493 
    [  6  15   6  16]-0.015038 [  6  15   2  11] 0.014955 [  6  15   7  15]-0.014547 
    --------------------------------------------------------------------------------
    Norm of T2AA vector: (nonzero elements: 2880)                 0.196201584245420.
    --------------------------------------------------------------------------------
    Largest T2 amplitudes for spin case AB:
           _       _                  _       _                  _       _           
       i   j   a   b              i   j   a   b              i   j   a   b           
    --------------------------------------------------------------------------------
    [ 15  15   0   2]-0.045037 [  0   0   0   1]-0.044530 [  0  15   0  16]-0.042275 
    [  0  15   1  15]-0.038682 [ 15  15  15  16]-0.038255 [  0  11   0  12]-0.032308 
    [ 15  15   2   2]-0.031081 [ 15  15   7   7]-0.030291 [ 11  15  12  15]-0.028974 
    [ 15  15  16  16]-0.028469 [  0   0  15  16]-0.028181 [  0   6   0   7]-0.026989 
    [  0   0   2   2]-0.026299 [  6  15   7  15]-0.025953 [  0   0  12  12]-0.025865 
    --------------------------------------------------------------------------------
    Norm of T2AB vector: (nonzero elements: 4096)                 0.293630272075022.
    --------------------------------------------------------------------------------
    Largest T2 amplitudes for spin case BB:
       _   _   _   _              _   _   _   _              _   _   _   _           
       i   j   a   b              i   j   a   b              i   j   a   b           
    --------------------------------------------------------------------------------
    [  0  15   2  15] 0.039561 [  0  11   1  11]-0.022539 [ 11  15  12  15]-0.020200 
    [  0   6   0   7]-0.019247 [ 11  15   2   6] 0.018896 [  0  15   0  16]-0.018334 
    [  0  15   1  15]-0.018304 [  0  11   1  12]-0.018176 [  0  11   0  12]-0.017994 
    [  0   6  13  15] 0.017095 [ 11  15  11  16]-0.017005 [  6  15   7  16]-0.016493 
    [  6  15   6  16]-0.015038 [  6  15   2  11] 0.014955 [  6  15   7  15]-0.014547 
    --------------------------------------------------------------------------------
    Norm of T2BB vector: (nonzero elements: 2880)                 0.196201584245420.
    --------------------------------------------------------------------------------

  ==> Possible Intruders <==

    T1 amplitudes larger than 0.1000 for spin case A: NULL
    T1 amplitudes larger than 0.1000 for spin case B: NULL
    T2 amplitudes larger than 0.1000 for spin case AA: NULL
    T2 amplitudes larger than 0.1000 for spin case AB: NULL
    T2 amplitudes larger than 0.1000 for spin case BB: NULL

  ==> Total Timings (s) for Computing Commutators <==

             [H1, T1]    [H1, T2]    [H2, T1]    [H2, T2]
    -----------------------------------------------------
    -> C0       0.000       0.257       0.000       9.192
    -> C1       0.000       1.931       0.000      54.094
    -> C2                   6.424       0.000     107.879
    -----------------------------------------------------
	MRDSRG unrelaxed energy...........................................PASSED

    Psi4 stopped on: Tuesday, 06 November 2018 10:50PM
    Psi4 wall time for execution: 0:03:07.14

*** Psi4 exiting successfully. Buy a developer a beer!
