
    -----------------------------------------------------------------------
          Psi4: An Open-Source Ab Initio Electronic Structure Package
                               Psi4 1.3a1.dev228 

                         Git: Rev {master} 0238229 dirty


    R. M. Parrish, L. A. Burns, D. G. A. Smith, A. C. Simmonett,
    A. E. DePrince III, E. G. Hohenstein, U. Bozkaya, A. Yu. Sokolov,
    R. Di Remigio, R. M. Richard, J. F. Gonthier, A. M. James,
    H. R. McAlexander, A. Kumar, M. Saitow, X. Wang, B. P. Pritchard,
    P. Verma, H. F. Schaefer III, K. Patkowski, R. A. King, E. F. Valeev,
    F. A. Evangelista, J. M. Turney, T. D. Crawford, and C. D. Sherrill,
    J. Chem. Theory Comput. 13(7) pp 3185--3197 (2017).
    (doi: 10.1021/acs.jctc.7b00174)


                         Additional Contributions by
    P. Kraus, H. Kruse, M. H. Lechner, M. C. Schieber, and R. A. Shaw

    -----------------------------------------------------------------------


    Psi4 started on: Wednesday, 22 August 2018 06:52PM

    Process ID: 51953
    Host:       tianyuans-air.wireless.emory.edu
    PSIDATADIR: /Users/tianyuanzhang/Documents/Source/psi4_2018/psi4-bin-icpc-debug/share/psi4
    Memory:     500.0 MiB
    Threads:    1
    
  ==> Input File <==

--------------------------------------------------------------------------
#! Generated using commit GITCOMMIT

import forte

refrhf   = -2.179077711159176
refdsrg  = -2.253241856589615 # semi_canonical true
refdsrg  = -2.253241869563188 # semi_canonical false

memory 500 mb

molecule H4{
  0 1
  H  0.0 0.0 0.0
  H  0.0 0.0 0.7
  H  0.0 1.4 0.0
  H  0.0 1.4 0.7
}

set globals{
   basis                   cc-pvdz
   reference               rhf
   scf_type                pk
   d_convergence           12
   e_convergence           15
   maxiter                 300
}

set forte{
   job_type                mrdsrg
   int_type                cholesky
   cholesky_tolerance      1e-4
   corr_level              ldsrg2
   restricted_docc         [0,0,0,0,0,0,0,0]
   active                  [1,0,0,1,0,1,1,0]
   root_sym                0
   nroot                   1
   dsrg_s                  0.5
   e_convergence           8
   semi_canonical          false # test if mrdsrg can handle non-canonical orbitals
   dsrg_hbar_seq           true
   dsrg_omit_v3            true
}

Escf, wfn = energy('scf', return_wfn=True)
compare_values(refrhf,get_variable("CURRENT ENERGY"),10,"SCF energy")

energy('forte', ref_wfn=wfn)
compare_values(refdsrg,get_variable("CURRENT ENERGY"),8,"MRDSRG unrelaxed energy")
--------------------------------------------------------------------------

  Memory set to 476.837 MiB by Python driver.

*** tstart() called on tianyuans-air.wireless.emory.edu
*** at Wed Aug 22 18:52:25 2018

   => Loading Basis Set <=

    Name: CC-PVDZ
    Role: ORBITAL
    Keyword: BASIS
    atoms 1-4 entry H          line    22 file /Users/tianyuanzhang/Documents/Source/psi4_2018/psi4-bin-icpc-debug/share/psi4/basis/cc-pvdz.gbs 


         ---------------------------------------------------------
                                   SCF
            by Justin Turney, Rob Parrish, Andy Simmonett
                             and Daniel Smith
                              RHF Reference
                        1 Threads,    476 MiB Core
         ---------------------------------------------------------

  ==> Geometry <==

    Molecular point group: d2h
    Full point group: D2h

    Geometry (in Angstrom), charge = 0, multiplicity = 1:

       Center              X                  Y                   Z               Mass       
    ------------   -----------------  -----------------  -----------------  -----------------
         H            0.000000000000    -0.700000000000    -0.350000000000     1.007825032070
         H            0.000000000000    -0.700000000000     0.350000000000     1.007825032070
         H           -0.000000000000     0.700000000000    -0.350000000000     1.007825032070
         H           -0.000000000000     0.700000000000     0.350000000000     1.007825032070

  Running in d2h symmetry.

  Rotational constants: A =     34.13621  B =      8.53405  C =      6.82724 [cm^-1]
  Rotational constants: A = 1023377.76068  B = 255844.44017  C = 204675.55214 [MHz]
  Nuclear repulsion =    2.944060157129043

  Charge       = 0
  Multiplicity = 1
  Electrons    = 4
  Nalpha       = 2
  Nbeta        = 2

  ==> Algorithm <==

  SCF Algorithm Type is PK.
  DIIS enabled.
  MOM disabled.
  Fractional occupation disabled.
  Guess Type is SAD.
  Energy threshold   = 1.00e-15
  Density threshold  = 1.00e-12
  Integral threshold = 0.00e+00

  ==> Primary Basis <==

  Basis Set: CC-PVDZ
    Blend: CC-PVDZ
    Number of shells: 12
    Number of basis function: 20
    Number of Cartesian functions: 20
    Spherical Harmonics?: true
    Max angular momentum: 1

  ==> Pre-Iterations <==

   -------------------------------------------------------
    Irrep   Nso     Nmo     Nalpha   Nbeta   Ndocc  Nsocc
   -------------------------------------------------------
     Ag         4       4       0       0       0       0
     B1g        1       1       0       0       0       0
     B2g        1       1       0       0       0       0
     B3g        4       4       0       0       0       0
     Au         1       1       0       0       0       0
     B1u        4       4       0       0       0       0
     B2u        4       4       0       0       0       0
     B3u        1       1       0       0       0       0
   -------------------------------------------------------
    Total      20      20       2       2       2       0
   -------------------------------------------------------

  ==> Integral Setup <==

  Using in-core PK algorithm.
   Calculation information:
      Number of atoms:                   4
      Number of AO shells:              12
      Number of primitives:             20
      Number of atomic orbitals:        20
      Number of basis functions:        20

      Integral cutoff                 1.00e-12
      Number of threads:                 1

  Performing in-core PK
  Using 44310 doubles for integral storage.
  We computed 3081 shell quartets total.
  Whereas there are 3081 unique shell quartets.

  ==> DiskJK: Disk-Based J/K Matrices <==

    J tasked:                  Yes
    K tasked:                  Yes
    wK tasked:                  No
    Memory (MB):               357
    Schwarz Cutoff:          1E-12

    OpenMP threads:              1

  Minimum eigenvalue in the overlap matrix is 2.4975801198E-02.
  Using Symmetric Orthogonalization.

  SCF Guess: Superposition of Atomic Densities via on-the-fly atomic UHF.

  ==> Iterations <==

                        Total Energy        Delta E     RMS |[F,P]|

   @RHF iter   0:    -1.89053115060868   -1.89053e+00   4.91625e-02 
   @RHF iter   1:    -2.17498638758610   -2.84455e-01   8.12248e-03 
   @RHF iter   2:    -2.17894275946835   -3.95637e-03   1.50517e-03 DIIS
   @RHF iter   3:    -2.17907752253551   -1.34763e-04   6.71864e-05 DIIS
   @RHF iter   4:    -2.17907771098363   -1.88448e-07   2.29385e-06 DIIS
   @RHF iter   5:    -2.17907771115850   -1.74870e-10   8.98372e-08 DIIS
   @RHF iter   6:    -2.17907771115915   -6.55032e-13   1.84767e-08 DIIS
   @RHF iter   7:    -2.17907771115918   -2.22045e-14   1.36211e-09 DIIS
   @RHF iter   8:    -2.17907771115918   -8.88178e-16   1.91136e-11 DIIS
   @RHF iter   9:    -2.17907771115918    4.44089e-16   3.89635e-13 DIIS
  Energy converged.


  ==> Post-Iterations <==

    Orbital Energies [Eh]
    ---------------------

    Doubly Occupied:                                                      

       1Ag    -0.731109     1B2u   -0.473172  

    Virtual:                                                              

       1B1u    0.149152     1B3g    0.312110     2Ag     0.467948  
       2B2u    0.487205     2B1u    0.888424     2B3g    1.029316  
       3Ag     1.093503     1B3u    1.157482     1B1g    1.442832  
       3B1u    1.883852     4Ag     1.902987     1B2g    1.930967  
       3B2u    1.999378     4B2u    2.160832     1Au     2.213770  
       3B3g    2.724004     4B1u    3.829643     4B3g    4.017613  

    Final Occupation by Irrep:
             Ag   B1g   B2g   B3g    Au   B1u   B2u   B3u 
    DOCC [     1,    0,    0,    0,    0,    0,    1,    0 ]

  @RHF Final Energy:    -2.17907771115918

   => Energetics <=

    Nuclear Repulsion Energy =              2.9440601571290435
    One-Electron Energy =                  -7.8377143748767111
    Two-Electron Energy =                   2.7145765065884904
    Total Energy =                         -2.1790777111591773

Computation Completed


Properties will be evaluated at   0.000000,   0.000000,   0.000000 [a0]

Properties computed using the SCF density matrix

  Nuclear Dipole Moment: [e a0]
     X:     0.0000      Y:     0.0000      Z:     0.0000

  Electronic Dipole Moment: [e a0]
     X:     0.0000      Y:     0.0000      Z:     0.0000

  Dipole Moment: [e a0]
     X:     0.0000      Y:     0.0000      Z:     0.0000     Total:     0.0000

  Dipole Moment: [D]
     X:     0.0000      Y:     0.0000      Z:     0.0000     Total:     0.0000


*** tstop() called on tianyuans-air.wireless.emory.edu at Wed Aug 22 18:52:25 2018
Module time:
	user time   =       0.56 seconds =       0.01 minutes
	system time =       0.03 seconds =       0.00 minutes
	total time  =          0 seconds =       0.00 minutes
Total time:
	user time   =       0.56 seconds =       0.01 minutes
	system time =       0.03 seconds =       0.00 minutes
	total time  =          0 seconds =       0.00 minutes
	SCF energy........................................................PASSED
   => Loading Basis Set <=

    Name: STO-3G
    Role: ORBITAL
    Keyword: MINAO_BASIS
    atoms 1-4 entry H          line    19 file /Users/tianyuanzhang/Documents/Source/psi4_2018/psi4-bin-icpc-debug/share/psi4/basis/sto-3g.gbs 


Reading options from the FORTE block
Calling plugin forte.so.



  Forte
  ----------------------------------------------------------------------------
  A suite of quantum chemistry methods for strongly correlated electrons

    git branch: correct_performance_tests - git commit: 9e2c4285

  Developed by:
    Francesco A. Evangelista, Chenyang Li, Kevin P. Hannon,
    Jeffrey B. Schriber, Tianyuan Zhang, Chenxi Cai
  ----------------------------------------------------------------------------

  Size of Determinant class: 16

  ==> MO Space Information <==

  Read options for space RESTRICTED_DOCC
  Read options for space ACTIVE
  -------------------------------------------------------------------------
                       Ag   B1g   B2g   B3g    Au   B1u   B2u   B3u   Sum
  -------------------------------------------------------------------------
    FROZEN_DOCC         0     0     0     0     0     0     0     0     0
    RESTRICTED_DOCC     0     0     0     0     0     0     0     0     0
    ACTIVE              1     0     0     1     0     1     1     0     4
    RESTRICTED_UOCC     3     1     1     3     1     3     3     1    16
    FROZEN_UOCC         0     0     0     0     0     0     0     0     0
    Total               4     1     1     4     1     4     4     1    20
  -------------------------------------------------------------------------

  ==> Integral Transformation <==

  Number of molecular orbitals:               20
  Number of correlated molecular orbitals:    20
  Number of frozen occupied orbitals:          0
  Number of frozen unoccupied orbitals:        0

    Molecular point group: d2h
    Full point group: D2h

    Geometry (in Angstrom), charge = 0, multiplicity = 1:

       Center              X                  Y                   Z               Mass       
    ------------   -----------------  -----------------  -----------------  -----------------
         H            0.000000000000    -0.700000000000    -0.350000000000     1.007825032070
         H            0.000000000000    -0.700000000000     0.350000000000     1.007825032070
         H           -0.000000000000     0.700000000000    -0.350000000000     1.007825032070
         H           -0.000000000000     0.700000000000     0.350000000000     1.007825032070

  -AO BASIS SET INFORMATION:
    Name                   = CC-PVDZ
    Blend                  = CC-PVDZ
    Total number of shells = 12
    Number of primitives   = 20
    Number of AO           = 20
    Number of SO           = 20
    Maximum AM             = 1
    Spherical Harmonics    = TRUE

  -Contraction Scheme:
    Atom   Type   All Primitives // Shells:
   ------ ------ --------------------------
       1     H     4s 1p // 2s 1p 
       2     H     4s 1p // 2s 1p 
       3     H     4s 1p // 2s 1p 
       4     H     4s 1p // 2s 1p 

  ==> AO Basis Functions <==

    [ CC-PVDZ ]
    spherical
    ****
    H   1
    S   3 1.00
                        13.01000000           0.01968500
                         1.96200000           0.13797700
                         0.44460000           0.47814800
    S   1 1.00
                         0.12200000           1.00000000
    P   1 1.00
                         0.72700000           1.00000000
    ****


  Cholesky integrals time
 Computing the Cholesky Vectors 

    Computing CD Integrals               ......Done. Timing        0.015136 s
 Need 0.000232 GB to store cd integrals in core

 Number of cholesky vectors 78 to satisfy       0.000100000000 tolerance

  CholeskyIntegrals take 0.02128589

                -----------------------------------------------
                  String-based Full Configuration Interaction
                          by Francesco A. Evangelista
                -----------------------------------------------

  Number of electrons: 4
  Charge: 0
  Multiplicity: 1
  Davidson subspace max dim: 8
  Davidson subspace min dim: 2
  M_s: 0

  ==> String Lists <==

  Number of alpha electrons     = 2
  Number of beta electrons      = 2
  Number of alpha strings       = 6
  Number of beta strings        = 6
  Timing for strings        =      0.000 s
  Timing for NN strings     =      0.000 s
  Timing for VO strings     =      0.000 s
  Timing for OO strings     =      0.000 s
  Timing for VVOO strings   =      0.000 s
  Timing for VOVO strings   =      0.000 s
  Timing for 1-hole strings =      0.000 s
  Timing for 2-hole strings =      0.000 s
  Timing for 3-hole strings =      0.000 s
  Total timing              =      0.000 s

  ==> FCI Solver <==

    Number of determinants                          12
    Symmetry                                         0
    Multiplicity                                     1
    Number of roots                                  1
    Target root                                      0
    Trial vectors per root                          10

  Allocating memory for the Hamiltonian algorithm. Size: 2 x 2 x 2.   Memory: 0.000000 GB

  ==> FCI Initial Guess <==

  ---------------------------------------------
    Root            Energy     <S^2>   Spin
  ---------------------------------------------
      0       -2.184584292953  0.000  singlet
      1       -1.494748201537  0.000  singlet
      2       -1.249754873666  6.000  quintet
      3       -1.142244098723  2.000  triplet
      4       -1.140458308772  0.000  singlet
      5       -1.082665866245  2.000  triplet
      6       -1.000141505443  0.000  singlet
      7       -0.901341096796  0.000  singlet
      8       -0.843482216762  2.000  triplet
      9       -0.703044630582  0.000  singlet
     10       -0.334309348025  0.000  singlet
     11        0.495149855621  0.000  singlet
  ---------------------------------------------
  Timing for initial guess  =      0.001 s

  Projecting out root 2
  Projecting out root 3
  Projecting out root 5
  Projecting out root 8
  ==> Diagonalizing Hamiltonian <==

  ----------------------------------------
    Iter.      Avg. Energy       Delta_E
  ----------------------------------------
      1       -2.184584292953  -2.185e+00
      2       -2.184584292953  -8.882e-16
  ----------------------------------------
  The Davidson-Liu algorithm converged in 3 iterations.

  ==> Root No. 0 <==

    2 0 0 2     -0.99771732

    Total Energy:        -2.184584292953462

  ==> Computing RDMs for Root No. 0 <==

    Timing for 1-RDM: 0.000 s
    Timing for 2-RDM: 0.000 s
    Timing for 3-RDM: 0.000 s

  ==> NATURAL ORBITALS <==

        1Ag     1.995760      1B2u    1.995112      1B1u    0.005663  
        1B3g    0.003465  


  ==> Multireference Driven Similarity Renormalization Group <==

    Reading DSRG options ............................ Done
    Setting ambit MO space .......................... Done
    Preparing tensors for density cumulants ......... Done
    Building Fock matrix ............................ Done
    Checking reference energy ....................... Done

           ----------------------------------------------------------
             Multireference Driven Similarity Renormalization Group
                                  Chenyang Li
           ----------------------------------------------------------

  Additional contributions by: Tianyuan Zhang

  ==> Density Cumulant Summary <==

    2-body             AA           AB           BB
    -----------------------------------------------
    max          0.010533     0.031587     0.010533
    norm         0.030568     0.093259     0.030568
    -----------------------------------------------
    3-body            AAA          AAB          ABB          BBB
    ------------------------------------------------------------
    max          0.000111     0.000994     0.000994     0.000111
    norm         0.001311     0.009201     0.009201     0.001311
    ------------------------------------------------------------

  ==> Checking Semicanonical Orbitals <==

    Abs. max of Fock core, active, virtual blocks (Fij, i != j)
                  core          active         virtual
    --------------------------------------------------
    Fα    0.0000000000    0.0000007239    0.0005836406
    Fβ    0.0000000000    0.0000007239    0.0005836406
    --------------------------------------------------

    1-Norm of Fock core, active, virtual blocks (Fij, i != j)
                  core          active         virtual
    --------------------------------------------------
    Fα    0.0000000000    0.0000036824    0.0060877075
    Fβ    0.0000000000    0.0000036824    0.0060877075
    --------------------------------------------------

    Orbitals are semi-canonicalized.

  ==> Calculation Information <==

    ntamp                                            15
    diis_min_vecs                                     2
    diis_max_vecs                                     5
    flow parameter                            5.000e-01
    taylor expansion threshold                1.000e-03
    intruder_tamp                             1.000e-01
    corr_level                                   LDSRG2
    int_type                                   CHOLESKY
    source operator                            STANDARD
    smart_dsrg_s                                 DSRG_S
    reference relaxation                           NONE
    dsrg transformation type                    UNITARY
    core virtual source type                     NORMAL
    sequential dsrg transformation                 TRUE
    omit blocks of >= 3 virtual indices            TRUE


  ==> Build Initial Amplitude from DSRG-MRPT2 <==

    Computing T2 amplitudes ...          Done. Timing      0.007 s
    Computing T1 amplitudes ...          Done. Timing      0.001 s

  ==> First-Order Excitation Amplitudes Summary <==

    Active Indices:    0    6   11   15 
    Largest T1 amplitudes for spin case A:
       i       a                  i       a                  i       a               
    --------------------------------------------------------------------------------
    [ 11      12    ] 0.000353 [  6       7    ] 0.000271 [  0       1    ] 0.000090 
    [ 15      16    ] 0.000087 [  0       2    ]-0.000078 [  6       8    ] 0.000071 
    [ 15      18    ]-0.000069 [  0       3    ]-0.000056 [ 15      17    ]-0.000021 
    [ 11      14    ]-0.000017 [  6       9    ]-0.000009 [ 11      13    ]-0.000003 
    [  6      17    ]-0.000003 [ 15       9    ] 0.000001 [  0      13    ]-0.000001 
    --------------------------------------------------------------------------------
    Norm of T1A vector: (nonzero elements: 48)                    0.000483508798154.
    --------------------------------------------------------------------------------
    Largest T1 amplitudes for spin case B:
       _       _                  _       _                  _       _               
       i       a                  i       a                  i       a               
    --------------------------------------------------------------------------------
    [ 11      12    ] 0.000353 [  6       7    ] 0.000271 [  0       1    ] 0.000090 
    [ 15      16    ] 0.000087 [  0       2    ]-0.000078 [  6       8    ] 0.000071 
    [ 15      18    ]-0.000069 [  0       3    ]-0.000056 [ 15      17    ]-0.000021 
    [ 11      14    ]-0.000017 [  6       9    ]-0.000009 [ 11      13    ]-0.000003 
    [  6      17    ]-0.000003 [ 15       9    ] 0.000001 [  0      13    ]-0.000001 
    --------------------------------------------------------------------------------
    Norm of T1B vector: (nonzero elements: 48)                    0.000483508798154.
    --------------------------------------------------------------------------------
    Largest T2 amplitudes for spin case AA:
       i   j   a   b              i   j   a   b              i   j   a   b           
    --------------------------------------------------------------------------------
    [  0  15   2  15] 0.035512 [ 11  15  12  15]-0.021908 [  0  11   1  11]-0.020852 
    [  0   6   0   7]-0.020744 [  0  11   0  12]-0.019560 [  0  15   0  16]-0.018409 
    [  0  11   1  12]-0.017775 [ 11  15   2   6] 0.017482 [  0  15   1  15]-0.017341 
    [  0   6  13  15] 0.016699 [  6  15   7  16]-0.015940 [ 11  15  11  16]-0.015641 
    [  6  15   7  15]-0.015282 [  6  15   6  16]-0.013815 [ 11  15  12  16]-0.013782 
    --------------------------------------------------------------------------------
    Norm of T2AA vector: (nonzero elements: 2816)                 0.191860840705450.
    --------------------------------------------------------------------------------
    Largest T2 amplitudes for spin case AB:
           _       _                  _       _                  _       _           
       i   j   a   b              i   j   a   b              i   j   a   b           
    --------------------------------------------------------------------------------
    [  0  15   0  16]-0.042504 [  0   0   0   1]-0.041851 [ 15  15   0   2]-0.038687 
    [ 15  15  15  16]-0.038299 [  0  15   1  15]-0.036734 [  0  11   0  12]-0.034491 
    [ 11  15  12  15]-0.030855 [  0   6   0   7]-0.028791 [  0   0  15  16]-0.028160 
    [  6  15   7  15]-0.027290 [ 15  15   2   2]-0.025043 [ 15  15   7   7]-0.024216 
    [ 15  15  16  16]-0.023125 [  0   0   2   2]-0.022206 [  0   0  19  19]-0.020549 
    --------------------------------------------------------------------------------
    Norm of T2AB vector: (nonzero elements: 3968)                 0.268364646519172.
    --------------------------------------------------------------------------------
    Largest T2 amplitudes for spin case BB:
       _   _   _   _              _   _   _   _              _   _   _   _           
       i   j   a   b              i   j   a   b              i   j   a   b           
    --------------------------------------------------------------------------------
    [  0  15   2  15] 0.035512 [ 11  15  12  15]-0.021908 [  0  11   1  11]-0.020852 
    [  0   6   0   7]-0.020744 [  0  11   0  12]-0.019560 [  0  15   0  16]-0.018409 
    [  0  11   1  12]-0.017775 [ 11  15   2   6] 0.017482 [  0  15   1  15]-0.017341 
    [  0   6  13  15] 0.016699 [  6  15   7  16]-0.015940 [ 11  15  11  16]-0.015641 
    [  6  15   7  15]-0.015282 [  6  15   6  16]-0.013815 [ 11  15  12  16]-0.013782 
    --------------------------------------------------------------------------------
    Norm of T2BB vector: (nonzero elements: 2816)                 0.191860840705450.
    --------------------------------------------------------------------------------

  ==> Possible Intruders <==

    T1 amplitudes larger than 0.1000 for spin case A: NULL
    T1 amplitudes larger than 0.1000 for spin case B: NULL
    T2 amplitudes larger than 0.1000 for spin case AA: NULL
    T2 amplitudes larger than 0.1000 for spin case AB: NULL
    T2 amplitudes larger than 0.1000 for spin case BB: NULL

  ==> Computing MR-LDSRG(2) Energy <==

    Reference:
      J. Chem. Phys. 2016, 144, 164114.

                  Energy (a.u.)           Non-Diagonal Norm        Amplitude RMS         Timings (s)   
           ---------------------------  ---------------------  ---------------------  -----------------
    Iter.        Corr.         Delta       Hbar1      Hbar2        T1         T2        Hbar     Amp.  
    ---------------------------------------------------------------------------------------------------
        0   -0.064434211806 -6.443e-02   3.505e-02  7.040e-01   7.900e-03  4.759e-02     8.921    0.013
        1   -0.068087126800 -3.653e-03   2.539e-02  6.820e-01   1.648e-03  1.030e-02     9.199    0.010
        2   -0.068537713471 -4.506e-04   2.457e-02  6.777e-01   4.845e-04  2.691e-03     8.964    0.010
        3   -0.068625565396 -8.785e-05   2.440e-02  6.777e-01   1.596e-04  7.551e-04     8.911    0.010
        4   -0.068648981898 -2.342e-05   2.437e-02  6.776e-01   5.040e-05  2.259e-04     8.890    0.010
        5   -0.068655019258 -6.037e-06   2.436e-02  6.776e-01   1.731e-05  6.936e-05     8.957    0.010 -> DIIS
        6   -0.068656849039 -1.830e-06   2.436e-02  6.776e-01   5.670e-06  2.215e-05     8.897    0.010 -> DIIS
        7   -0.068657582688 -7.336e-07   2.436e-02  6.776e-01   9.126e-08  5.873e-07     8.831    0.012 -> DIIS
        8   -0.068657576610  6.079e-09   2.436e-02  6.776e-01   1.488e-08  1.610e-07     8.982    0.010
    ---------------------------------------------------------------------------------------------------

  ==> MR-LDSRG(2) Energy Summary <==

    E0 (reference)                 =      -2.184584292953462
    MR-LDSRG(2) correlation energy =      -0.068657576609510
    MR-LDSRG(2) total energy       =      -2.253241869562973

  ==> Final Excitation Amplitudes Summary <==

    Active Indices:    0    6   11   15 
    Largest T1 amplitudes for spin case A:
       i       a                  i       a                  i       a               
    --------------------------------------------------------------------------------
    [ 11      12    ] 0.003813 [  6       7    ] 0.003245 [  0       3    ] 0.003053 
    [ 15      18    ] 0.002203 [ 15      17    ] 0.001852 [ 15      16    ] 0.001216 
    [  0       2    ]-0.000935 [  0       1    ] 0.000659 [ 11      13    ]-0.000416 
    [ 11      14    ]-0.000372 [  6       9    ]-0.000293 [  6       8    ] 0.000135 
    [  6      17    ]-0.000003 [ 15       9    ] 0.000002 [  0      13    ]-0.000001 
    --------------------------------------------------------------------------------
    Norm of T1A vector: (nonzero elements: 48)                    0.006773346195849.
    --------------------------------------------------------------------------------
    Largest T1 amplitudes for spin case B:
       _       _                  _       _                  _       _               
       i       a                  i       a                  i       a               
    --------------------------------------------------------------------------------
    [ 11      12    ] 0.003813 [  6       7    ] 0.003245 [  0       3    ] 0.003053 
    [ 15      18    ] 0.002203 [ 15      17    ] 0.001852 [ 15      16    ] 0.001216 
    [  0       2    ]-0.000935 [  0       1    ] 0.000659 [ 11      13    ]-0.000416 
    [ 11      14    ]-0.000372 [  6       9    ]-0.000293 [  6       8    ] 0.000135 
    [  6      17    ]-0.000003 [ 15       9    ] 0.000002 [  0      13    ]-0.000001 
    --------------------------------------------------------------------------------
    Norm of T1B vector: (nonzero elements: 48)                    0.006773346195848.
    --------------------------------------------------------------------------------
    Largest T2 amplitudes for spin case AA:
       i   j   a   b              i   j   a   b              i   j   a   b           
    --------------------------------------------------------------------------------
    [  0  15   2  15] 0.039562 [  0  11   1  11]-0.022541 [ 11  15  12  15]-0.020201 
    [  0   6   0   7]-0.019247 [ 11  15   2   6] 0.018896 [  0  15   0  16]-0.018335 
    [  0  15   1  15]-0.018308 [  0  11   1  12]-0.018177 [  0  11   0  12]-0.017994 
    [  0   6  13  15] 0.017096 [ 11  15  11  16]-0.017006 [  6  15   7  16]-0.016493 
    [  6  15   6  16]-0.015038 [  6  15   2  11] 0.014954 [  6  15   7  15]-0.014546 
    --------------------------------------------------------------------------------
    Norm of T2AA vector: (nonzero elements: 2880)                 0.196210007124517.
    --------------------------------------------------------------------------------
    Largest T2 amplitudes for spin case AB:
           _       _                  _       _                  _       _           
       i   j   a   b              i   j   a   b              i   j   a   b           
    --------------------------------------------------------------------------------
    [ 15  15   0   2]-0.045034 [  0   0   0   1]-0.044535 [  0  15   0  16]-0.042278 
    [  0  15   1  15]-0.038684 [ 15  15  15  16]-0.038257 [  0  11   0  12]-0.032309 
    [ 15  15   2   2]-0.031081 [ 15  15   7   7]-0.030291 [ 11  15  12  15]-0.028974 
    [ 15  15  16  16]-0.028470 [  0   0  15  16]-0.028182 [  0   6   0   7]-0.026989 
    [  0   0   2   2]-0.026299 [  6  15   7  15]-0.025952 [  0   0  12  12]-0.025865 
    --------------------------------------------------------------------------------
    Norm of T2AB vector: (nonzero elements: 4096)                 0.293638989881136.
    --------------------------------------------------------------------------------
    Largest T2 amplitudes for spin case BB:
       _   _   _   _              _   _   _   _              _   _   _   _           
       i   j   a   b              i   j   a   b              i   j   a   b           
    --------------------------------------------------------------------------------
    [  0  15   2  15] 0.039562 [  0  11   1  11]-0.022541 [ 11  15  12  15]-0.020201 
    [  0   6   0   7]-0.019247 [ 11  15   2   6] 0.018896 [  0  15   0  16]-0.018335 
    [  0  15   1  15]-0.018308 [  0  11   1  12]-0.018177 [  0  11   0  12]-0.017994 
    [  0   6  13  15] 0.017096 [ 11  15  11  16]-0.017006 [  6  15   7  16]-0.016493 
    [  6  15   6  16]-0.015038 [  6  15   2  11] 0.014954 [  6  15   7  15]-0.014546 
    --------------------------------------------------------------------------------
    Norm of T2BB vector: (nonzero elements: 2880)                 0.196210007124517.
    --------------------------------------------------------------------------------

  ==> Possible Intruders <==

    T1 amplitudes larger than 0.1000 for spin case A: NULL
    T1 amplitudes larger than 0.1000 for spin case B: NULL
    T2 amplitudes larger than 0.1000 for spin case AA: NULL
    T2 amplitudes larger than 0.1000 for spin case AB: NULL
    T2 amplitudes larger than 0.1000 for spin case BB: NULL

  ==> Total Timings (s) for Computing Commutators <==

             [H1, T1]    [H1, T2]    [H2, T1]    [H2, T2]
    -----------------------------------------------------
    -> C0       0.000       0.145       0.000       4.990
    -> C1       0.000       0.926       0.000      22.952
    -> C2                   2.892       0.000      46.994
    -----------------------------------------------------
	MRDSRG unrelaxed energy...........................................PASSED

    Psi4 stopped on: Wednesday, 22 August 2018 06:53PM
    Psi4 wall time for execution: 0:01:21.59

*** Psi4 exiting successfully. Buy a developer a beer!
