
    -----------------------------------------------------------------------
          Psi4: An Open-Source Ab Initio Electronic Structure Package
                               Psi4 1.3a2.dev26 

                         Git: Rev {master} e20a281 


    R. M. Parrish, L. A. Burns, D. G. A. Smith, A. C. Simmonett,
    A. E. DePrince III, E. G. Hohenstein, U. Bozkaya, A. Yu. Sokolov,
    R. Di Remigio, R. M. Richard, J. F. Gonthier, A. M. James,
    H. R. McAlexander, A. Kumar, M. Saitow, X. Wang, B. P. Pritchard,
    P. Verma, H. F. Schaefer III, K. Patkowski, R. A. King, E. F. Valeev,
    F. A. Evangelista, J. M. Turney, T. D. Crawford, and C. D. Sherrill,
    J. Chem. Theory Comput. 13(7) pp 3185--3197 (2017).
    (doi: 10.1021/acs.jctc.7b00174)


                         Additional Contributions by
    P. Kraus, H. Kruse, M. H. Lechner, M. C. Schieber, and R. A. Shaw

    -----------------------------------------------------------------------


    Psi4 started on: Tuesday, 06 November 2018 08:45PM

    Process ID: 58823
    Host:       dhcp189-8.emerson.emory.edu
    PSIDATADIR: /Users/york/src/psi4new/psi4/share/psi4
    Memory:     500.0 MiB
    Threads:    1
    
  ==> Input File <==

--------------------------------------------------------------------------
#! Generated using commit GITCOMMIT

import forte

refmcscf   = -99.406065223640
refdsrg    = -99.497356555037186 # no relaxation
refdsrg    = -99.498401702632520 # relax once
refdsrg    = -99.498194734726098 # relax iterative

memory 500 mb

molecule HF{
  0 1
  F
  H  1 R
  R = 1.50
}

set globals{
   basis                   3-21g
   reference               twocon
   scf_type                pk
   e_convergence           8
   maxiter                 100
   docc                   [3,0,1,1]
}

set mcscf{
   docc                   [2,0,1,1]
   socc                   [2,0,0,0]
   maxiter                 1000
   level_shift             0.5
   d_convergence           10
   e_convergence           12
}

set forte{
   job_type                mrdsrg
   corr_level              ldsrg2_qc
   frozen_docc            [1,0,0,0]
   restricted_docc        [1,0,1,1]
   active                 [2,0,0,0]
   root_sym                0
   nroot                   1
   dsrg_s                  1.0
   relax_ref               iterate
   maxiter                 100
   e_convergence           8
}

Emcscf, wfn = energy('mcscf', return_wfn=True)
compare_values(refmcscf,get_variable("CURRENT ENERGY"),10,"MCSCF energy") #TEST

energy('forte', ref_wfn=wfn)
compare_values(refdsrg,get_variable("CURRENT ENERGY"),8,"MRDSRG fully relaxed energy") #TEST
--------------------------------------------------------------------------

  Memory set to 476.837 MiB by Python driver.
   => Loading Basis Set <=

    Name: 3-21G
    Role: ORBITAL
    Keyword: BASIS
    atoms 1 entry F          line   101 file /Users/york/src/psi4new/psi4/share/psi4/basis/3-21g.gbs 
    atoms 2 entry H          line    21 file /Users/york/src/psi4new/psi4/share/psi4/basis/3-21g.gbs 


*** tstart() called on dhcp189-8.emerson.emory.edu
*** at Tue Nov  6 20:45:02 2018


         ------------------------------------------
           MCSCF: a self-consistent field program
            written by Francesco A. Evangelista
         ------------------------------------------

  MOs per irrep:                                      A1  A2  B1  B2 Total
  ----------------------------------------------------------------------------
  Total                                                7    0    2    2    11
  Doubly Occupied                                      2    0    1    1     4
  Active/Singly Occupied                               2    0    0    0     2
  ----------------------------------------------------------------------------

  Running an SCF calculation
  TWOCON MOs = [2 (A1),3 (A1)]

  Generated 66 pairs
  Distributed as [34 A1][4 A2][14 B1][14 B2]
  batch   0 pq = [       0,      34] index = [               0,             595]

  Allocated the PK matrix (595 elements) 
  Allocated the  K matrix (595 elements) 
  Reading the two-electron integrals to form PK and K ... 
  batch   0 ... done.


  =========================================================================================
         Cycle          Energy               D(Energy)            D(Density)            DIIS
  ===========================================================================================
  Setting level shift to 0.500 S
  @SCF    0      -90.711680138176     -90.711680138176       0.179571426993
    ci      = [ 0.00000000, 0.00000000]
    ci_grad = [ 0.00000000, 0.00000000]
  Setting level shift to 0.500 S
  @SCF    1      -99.209208290096      -8.497528151920       0.171539036662
    ci      = [ 0.00000000, 0.00000000]
    ci_grad = [ 0.00000000, 0.00000000]
  Setting level shift to 0.500 S
  @SCF    2      -99.181126225880       0.028082064215       0.014194650111
    ci      = [ 0.00000000, 0.00000000]
    ci_grad = [ 0.00000000, 0.00000000]
  Setting level shift to 0.500 S
  @SCF    3      -99.187147056378      -0.006020830498       0.007187093304
    ci      = [ 0.00000000, 0.00000000]
    ci_grad = [ 0.00000000, 0.00000000]
  Setting level shift to 0.500 S
  @SCF    4      -99.185505238746       0.001641817632       0.004582734282
    ci      = [ 0.00000000, 0.00000000]
    ci_grad = [ 0.00000000, 0.00000000]
  Setting level shift to 0.500 S
  @SCF    5      -99.188474395194      -0.002969156448       0.002877713567
    ci      = [ 0.00000000, 0.00000000]
    ci_grad = [ 0.00000000, 0.00000000]
  Setting level shift to 0.500 S
  @SCF    6      -99.186908015658       0.001566379537       0.001957181741
    ci      = [ 0.00000000, 0.00000000]
    ci_grad = [ 0.00000000, 0.00000000]
  Setting level shift to 0.500 S/E
  @SCF    7      -99.189018416397      -0.002110400739       0.001358833744
    ci      = [ 0.00000000, 0.00000000]
    ci_grad = [ 0.00000000, 0.00000000]
  Setting level shift to 0.500 S/E
  @SCF    8      -99.188321587265       0.000696829132       0.000571003453
    ci      = [ 0.00000000, 0.00000000]
    ci_grad = [ 0.00000000, 0.00000000]
  Setting level shift to 0.500 S/E
  @SCF    9      -99.188265995912       0.000055591352       0.000013369739
    ci      = [ 0.00000000, 0.00000000]
    ci_grad = [ 0.00000000, 0.00000000]
  Setting level shift to 0.500 S/E
  @SCF   10      -99.188257103781       0.000008892132       0.000002169527
    ci      = [-0.93934204, 0.34298182]
    ci_grad = [ 0.00000000, 0.00000000]
  Setting level shift to 0.500 S/E
  @SCF   11      -99.188255335433       0.000001768348       0.000000855765
    ci      = [-0.93934230, 0.34298111]
    ci_grad = [-0.00000152, 0.00000100]
  Setting level shift to 0.500 S/E
  @SCF   12      -99.188255068850       0.000000266583       0.000000113202
    ci      = [-0.93934223, 0.34298130]
    ci_grad = [-0.00000029,-0.00000001]
  Setting level shift to 0.500 S/E
  @SCF   13      -99.188257583891      -0.000002515042       0.000000557796
    ci      = [-0.93934249, 0.34298060]
    ci_grad = [ 0.00000250,-0.00000048]
  Setting level shift to 0.500 S/E
  @SCF   14      -99.188256442094       0.000001141797       0.000000350212
    ci      = [-0.93934242, 0.34298079]
    ci_grad = [-0.00000111, 0.00000029]
  Setting level shift to 0.500 S/E
  @SCF   15      -99.188256647610      -0.000000205516       0.000000028652
    ci      = [-0.93934243, 0.34298075]
    ci_grad = [ 0.00000020,-0.00000005]
  Setting level shift to 0.500 S/E
  @SCF   16      -99.188272219598      -0.000015571987       0.000001970923
    ci      = [-0.93934243, 0.34298075]
    ci_grad = [ 0.00001560,-0.00000267]
  Setting level shift to 0.500 S/E
  @SCF   17      -99.188250651916       0.000021567682       0.000002909252
    ci      = [-0.93934243, 0.34298075]
    ci_grad = [-0.00002006, 0.00000794]
  Setting level shift to 0.500 S/E
  @SCF   18      -99.338121751280      -0.149871099364       0.036391840947
    ci      = [-0.93934243, 0.34298075]
    ci_grad = [ 0.16012530, 0.02802378]
  Setting level shift to 0.500 S/E
  @SCF   19      -99.382222254159      -0.044100502880       0.017282268121
    ci      = [-0.93934243, 0.34298075]
    ci_grad = [ 0.05049211, 0.01325425]
  Setting level shift to 0.500 S/E
  @SCF   20      -99.390701242223      -0.008478988064       0.006387057079
    ci      = [-0.93934243, 0.34298075]
    ci_grad = [ 0.01846823, 0.03066260]
  Setting level shift to 0.500 S/E
  @SCF   21      -99.396313560851      -0.005612318628       0.005228732828
    ci      = [-0.93934243, 0.34298075]
    ci_grad = [ 0.01366243, 0.02392754]
  Setting level shift to 0.500 S/E
  @SCF   22      -99.401926327835      -0.005612766984       0.006534702139
    ci      = [-0.93934243, 0.34298075]
    ci_grad = [ 0.01346055, 0.02315755]
  Setting level shift to 0.500 S/E
  @SCF   23      -99.404359609559      -0.002433281724       0.004417717383
    ci      = [-0.93934243, 0.34298075]
    ci_grad = [ 0.00887264, 0.01884807]
  Setting level shift to 0.500 S/E
  @SCF   24      -99.405870291462      -0.001510681903       0.005264129063
    ci      = [-0.93934243, 0.34298075]
    ci_grad = [ 0.00790990, 0.01881699]
  Setting level shift to 0.500 S/E
  @SCF   25      -99.405927833285      -0.000057541822       0.000690372400
    ci      = [-0.93934243, 0.34298075]
    ci_grad = [ 0.00656544, 0.01937843]
  Setting level shift to 0.500 S/E
  @SCF   26      -99.405962481476      -0.000034648191       0.000462739471
    ci      = [-0.93934243, 0.34298075]
    ci_grad = [ 0.00660658, 0.01958740]
  Setting level shift to 0.500 S/E
  @SCF   27      -99.405975041833      -0.000012560358       0.000398214983
    ci      = [-0.93934243, 0.34298075]
    ci_grad = [ 0.00657727, 0.01956717]
  Setting level shift to 0.500 S/E
  @SCF   28      -99.405965394572       0.000009647261       0.000243880385
    ci      = [-0.94798049, 0.31832844]
    ci_grad = [ 0.00648583, 0.01934506]
  Setting level shift to 0.500 S/E
  @SCF   29      -99.405972667346      -0.000007272774       0.000130654592
    ci      = [-0.94802528, 0.31819502]
    ci_grad = [ 0.00004188, 0.00010193]
  Setting level shift to 0.500 S/E
  @SCF   30      -99.405974887487      -0.000002220141       0.000011460523
    ci      = [-0.94804257, 0.31814348]
    ci_grad = [ 0.00001562, 0.00003956]
  Setting level shift to 0.500 S/E
  @SCF   31      -99.405974062535       0.000000824952       0.000005015609
    ci      = [-0.94803621, 0.31816244]
    ci_grad = [-0.00000575,-0.00001455]
  Setting level shift to 0.500 S/E
  @SCF   32      -99.405991943305      -0.000017880770       0.000137892289
    ci      = [-0.94803621, 0.31816244]
    ci_grad = [ 0.00012965, 0.00033062]
  Setting level shift to 0.500 S/E
  @SCF   33      -99.406007360116      -0.000015416811       0.000143496643
    ci      = [-0.94803621, 0.31816244]
    ci_grad = [ 0.00023643, 0.00065799]
  Setting level shift to 0.500 S/E
  @SCF   34      -99.406041652868      -0.000034292752       0.000443585337
    ci      = [-0.94803621, 0.31816244]
    ci_grad = [ 0.00057366, 0.00161329]
  Setting level shift to 0.500 S/E
  @SCF   35      -99.406049028233      -0.000007375366       0.000160955312
    ci      = [-0.94884968, 0.31572819]
    ci_grad = [ 0.00064473, 0.00191423]
  Setting level shift to 0.500 S/E
  @SCF   36      -99.406062448737      -0.000013420503       0.000413469389
    ci      = [-0.94884968, 0.31572819]
    ci_grad = [ 0.00030373, 0.00087373]
  Setting level shift to 0.500 S/E
  @SCF   37      -99.406061952750       0.000000495987       0.000578632483
    ci      = [-0.94969892, 0.31316444]
    ci_grad = [ 0.00067069, 0.00203550]
  Setting level shift to 0.500 S/E
  @SCF   38      -99.406064526402      -0.000002573652       0.000402517109
    ci      = [-0.94931616, 0.31432280]
    ci_grad = [-0.00030080,-0.00091667]
  Setting level shift to 0.500 S/E
  @SCF   39      -99.406064792340      -0.000000265938       0.000249416800
    ci      = [-0.94953421, 0.31366348]
    ci_grad = [ 0.00017287, 0.00052248]
  Setting level shift to 0.500 S/E
  @SCF   40      -99.406065210159      -0.000000417819       0.000094216739
    ci      = [-0.94945275, 0.31390998]
    ci_grad = [-0.00006414,-0.00019532]
  Setting level shift to 0.500 S/E
  @SCF   41      -99.406065178827       0.000000031332       0.000019627187
    ci      = [-0.94946838, 0.31386270]
    ci_grad = [ 0.00001235, 0.00003746]
  Setting level shift to 0.500 S/E
  @SCF   42      -99.406065219436      -0.000000040609       0.000025997913
    ci      = [-0.94944611, 0.31393006]
    ci_grad = [-0.00001760,-0.00005335]
  Setting level shift to 0.500 S/E
  @SCF   43      -99.406065223523      -0.000000004087       0.000010944920
    ci      = [-0.94943813, 0.31395420]
    ci_grad = [-0.00000632,-0.00001911]
  Setting level shift to 0.500 S/E
  @SCF   44      -99.406065223492       0.000000000031       0.000000938478
    ci      = [-0.94943870, 0.31395248]
    ci_grad = [ 0.00000045, 0.00000136]
  Setting level shift to 0.500 S/E
  @SCF   45      -99.406065223633      -0.000000000141       0.000002021055
    ci      = [-0.94943701, 0.31395760]
    ci_grad = [-0.00000134,-0.00000405]
  Setting level shift to 0.500 S/E
  @SCF   46      -99.406065223637      -0.000000000003       0.000000408047
    ci      = [-0.94943714, 0.31395720]
    ci_grad = [ 0.00000010, 0.00000031]
  Setting level shift to 0.500 S/E
  @SCF   47      -99.406065223638      -0.000000000001       0.000000124993
    ci      = [-0.94943709, 0.31395734]
    ci_grad = [-0.00000004,-0.00000011]
  Setting level shift to 0.500 S/E
  @SCF   48      -99.406065223639      -0.000000000001       0.000000169006
    ci      = [-0.94943701, 0.31395758]
    ci_grad = [-0.00000006,-0.00000019]
  Setting level shift to 0.500 S/E
  @SCF   49      -99.406065223640      -0.000000000001       0.000000108802
    ci      = [-0.94943699, 0.31395764]
    ci_grad = [-0.00000001,-0.00000004]
  Setting level shift to 0.500 S/E
  @SCF   50      -99.406065223640       0.000000000000       0.000000061851
    ci      = [-0.94943696, 0.31395774]
    ci_grad = [-0.00000003,-0.00000008]
  Setting level shift to 0.500 S/E
  @SCF   51      -99.406065223640      -0.000000000000       0.000000011604
    ci      = [-0.94943696, 0.31395773]
    ci_grad = [ 0.00000000, 0.00000001]
  Setting level shift to 0.500 S/E
  @SCF   52      -99.406065223640      -0.000000000000       0.000000007888
    ci      = [-0.94943696, 0.31395774]
    ci_grad = [-0.00000000,-0.00000000]
  Setting level shift to 0.500 S/E
  @SCF   53      -99.406065223640       0.000000000000       0.000000010279
    ci      = [-0.94943697, 0.31395772]
    ci_grad = [ 0.00000001, 0.00000002]
  Setting level shift to 0.500 S/E
  @SCF   54      -99.406065223639       0.000000000000       0.000000003115
    ci      = [-0.94943696, 0.31395772]
    ci_grad = [-0.00000000,-0.00000000]
  Setting level shift to 0.500 S/E
  @SCF   55      -99.406065223640      -0.000000000000       0.000000005943
    ci      = [-0.94943697, 0.31395771]
    ci_grad = [ 0.00000000, 0.00000001]
  Setting level shift to 0.500 S/E
  @SCF   56      -99.406065223640      -0.000000000000       0.000000000629
    ci      = [-0.94943697, 0.31395771]
    ci_grad = [ 0.00000000, 0.00000000]
  Setting level shift to 0.500 S/E
  @SCF   57      -99.406065223640       0.000000000000       0.000000001170
    ci      = [-0.94943697, 0.31395771]
    ci_grad = [ 0.00000000, 0.00000000]
  Setting level shift to 0.500 S/E
  @SCF   58      -99.406065223640       0.000000000000       0.000000000386
    ci      = [-0.94943697, 0.31395771]
    ci_grad = [ 0.00000000, 0.00000000]
  Setting level shift to 0.500 S/E
  @SCF   59      -99.406065223639       0.000000000000       0.000000000973
    ci      = [-0.94943697, 0.31395771]
    ci_grad = [-0.00000000,-0.00000000]
  Setting level shift to 0.500 S/E
  @SCF   60      -99.406065223640      -0.000000000000       0.000000000193
    ci      = [-0.94943697, 0.31395771]
    ci_grad = [ 0.00000000, 0.00000000]
  Setting level shift to 0.500 S/E
  @SCF   61      -99.406065223639       0.000000000000       0.000000000279
    ci      = [-0.94943697, 0.31395771]
    ci_grad = [-0.00000000,-0.00000000]
  Setting level shift to 0.500 S/E
  @SCF   62      -99.406065223640      -0.000000000000       0.000000000036
    ci      = [-0.94943697, 0.31395771]
    ci_grad = [ 0.00000000, 0.00000000]
  Setting level shift to 0.500 S/E
  @SCF   63      -99.406065223640      -0.000000000000       0.000000000057
    ci      = [-0.94943697, 0.31395771]
    ci_grad = [-0.00000000,-0.00000000]
  Setting level shift to 0.500 S/E
  @SCF   64      -99.406065223640       0.000000000000       0.000000000034
    ci      = [-0.94943697, 0.31395771]
    ci_grad = [ 0.00000000, 0.00000000]
  =========================================================================================

      * SCF total energy   =     -99.406065223640


      CI coefficients  = [-0.949436969, 0.313957709]

  End of SCF
  MOs orthonormality check passed.

  Orbitals are canonicalized as:
  inactive (docc + uocc) : Fock(core)
  active   (actv)        : Fock(core)

  =========================================================================
  Eigenvalues (Eh)
  -------------------------------------------------------------------------
  Doubly occupied orbitals
      1    -26.175209  A1      2     -1.495695  A1      3     -0.623385  B1
      4     -0.623385  B2
  Active orbitals
      5     -0.510102  A1      6      0.074682  A1
  Unoccupied orbitals
      7      1.595133  A1      8      2.709370  B1      9      2.709370  B2
     10      2.796416  A1     11      3.870480  A1
  =========================================================================


  MCSCF Execution Completed.


*** tstop() called on dhcp189-8.emerson.emory.edu at Tue Nov  6 20:45:02 2018
Module time:
	user time   =       0.04 seconds =       0.00 minutes
	system time =       0.02 seconds =       0.00 minutes
	total time  =          0 seconds =       0.00 minutes
Total time:
	user time   =       0.04 seconds =       0.00 minutes
	system time =       0.02 seconds =       0.00 minutes
	total time  =          0 seconds =       0.00 minutes
	MCSCF energy......................................................PASSED
   => Loading Basis Set <=

    Name: STO-3G
    Role: ORBITAL
    Keyword: MINAO_BASIS
    atoms 1 entry F          line    91 file /Users/york/src/psi4new/psi4/share/psi4/basis/sto-3g.gbs 
    atoms 2 entry H          line    19 file /Users/york/src/psi4new/psi4/share/psi4/basis/sto-3g.gbs 


Reading options from the FORTE block
Calling plugin forte.so.



  Forte
  ----------------------------------------------------------------------------
  A suite of quantum chemistry methods for strongly correlated electrons

    git branch: dwsa-dsrg-pt - git commit: 84cccd4f

  Developed by:
    Francesco A. Evangelista, Chenyang Li, Kevin P. Hannon,
    Jeffrey B. Schriber, Tianyuan Zhang, Chenxi Cai
  ----------------------------------------------------------------------------

  Size of Determinant class: 16

  ==> MO Space Information <==

  Read options for space FROZEN_DOCC
  Read options for space RESTRICTED_DOCC
  Read options for space ACTIVE
  -------------------------------------------------
                       A1    A2    B1    B2   Sum
  -------------------------------------------------
    FROZEN_DOCC         1     0     0     0     1
    RESTRICTED_DOCC     1     0     1     1     3
    ACTIVE              2     0     0     0     2
    RESTRICTED_UOCC     3     0     1     1     5
    FROZEN_UOCC         0     0     0     0     0
    Total               7     0     2     2    11
  -------------------------------------------------

  ==> Integral Transformation <==

  Number of molecular orbitals:                    11
  Number of correlated molecular orbitals:         10
  Number of frozen occupied orbitals:               1
  Number of frozen unoccupied orbitals:             0
  Two-electron integral type:              Conventional


  Overall Conventional Integrals timings

	Presorting SO-basis two-electron integrals.
	Sorting File: SO Ints (nn|nn) nbuckets = 1
	Transforming the one-electron integrals and constructing Fock matrices
	Starting first half-transformation.
	Sorting half-transformed integrals.
	First half integral transformation complete.
	Starting second half-transformation.
	Two-electron integral transformation complete.

  Integral transformation done. 0.00802425 s
  Reading the two-electron integrals from disk
  Size of two-electron integrals:   0.000327 GB  Using in-core PK algorithm.
   Calculation information:
      Number of atoms:                   2
      Number of AO shells:               7
      Number of primitives:             12
      Number of atomic orbitals:        11
      Number of basis functions:        11

      Integral cutoff                 1.00e-12
      Number of threads:                 1

  Performing in-core PK
  Using 4422 doubles for integral storage.
  We computed 406 shell quartets total.
  Whereas there are 406 unique shell quartets.


  Frozen-core energy            -75.818535539737 a.u.
  Timing for frozen one-body operator:                        0.034 s.
  Resorting integrals after freezing core.
  Timing for freezing core and virtual orbitals:              0.035 s.
  Conventional integrals take 0.06940655 s

                -----------------------------------------------
                  String-based Full Configuration Interaction
                          by Francesco A. Evangelista
                -----------------------------------------------

  Number of electrons: 10
  Charge: 0
  Multiplicity: 1
  Davidson subspace max dim: 8
  Davidson subspace min dim: 2
  M_s: 0

  ==> String Lists <==

  Number of alpha electrons     = 1
  Number of beta electrons      = 1
  Number of alpha strings       = 2
  Number of beta strings        = 2
  Timing for strings        =      0.000 s
  Timing for NN strings     =      0.000 s
  Timing for VO strings     =      0.000 s
  Timing for OO strings     =      0.000 s
  Timing for VVOO strings   =      0.000 s
  Timing for VOVO strings   =      0.000 s
  Timing for 1-hole strings =      0.000 s
  Timing for 2-hole strings =      0.000 s
  Timing for 3-hole strings =      0.000 s
  Total timing              =      0.000 s

  ==> FCI Solver <==

    Number of determinants                           4
    Symmetry                                         0
    Multiplicity                                     1
    Number of roots                                  1
    Target root                                      0
    Trial vectors per root                          10

  Allocating memory for the Hamiltonian algorithm. Size: 2 x 2 x 2.   Memory: 0.000000 GB

  ==> FCI Initial Guess <==

  ---------------------------------------------
    Root            Energy     <S^2>   Spin
  ---------------------------------------------
      0      -99.406065223640  0.000  singlet
      1      -99.266219554016  2.000  triplet
      2      -98.863152603389  0.000  singlet
      3      -98.545355419275  0.000  singlet
  ---------------------------------------------
  Timing for initial guess  =      0.000 s

  Projecting out root 1
  ==> Diagonalizing Hamiltonian <==

  ----------------------------------------
    Iter.      Avg. Energy       Delta_E
  ----------------------------------------
      1      -99.406065223639  -9.941e+01
      2      -99.406065223639  +0.000e+00
  ----------------------------------------
  The Davidson-Liu algorithm converged in 3 iterations.

  ==> Root No. 0 <==

    20     -0.94943697
    02      0.31395771

    Total Energy:       -99.406065223639445

  ==> Computing RDMs for Root No. 0 <==

    Timing for 1-RDM: 0.000 s
    Timing for 2-RDM: 0.000 s
    Timing for 3-RDM: 0.000 s

  ==> NATURAL ORBITALS <==

        1A1     1.802861      2A1     0.197139  


       -----------------------------------------------------------------
                            Semi-Canonical Orbitals
         Chenyang Li, Jeffrey B. Schriber and Francesco A. Evangelista
       -----------------------------------------------------------------

  Took 0.000041 s to build Fock matrix

  ==> Checking Fock Matrix Diagonal Blocks <==

    Off-Diag. Elements       Max           2-Norm
    ------------------------------------------------
    Fa actv              0.0348818653   0.0493304070
    Fb actv              0.0348818653   0.0493304070
    ------------------------------------------------
    Fa core              0.0000000000   0.0000000000
    Fb core              0.0000000000   0.0000000000
    ------------------------------------------------
    Fa virt              0.0000000000   0.0000000000
    Fb virt              0.0000000000   0.0000000000
    ------------------------------------------------

  ==> Integral Transformation to Semicanonical Basis <==

 Integrals are about to be computed.	Presorting SO-basis two-electron integrals.
	Sorting File: SO Ints (nn|nn) nbuckets = 1
	Transforming the one-electron integrals and constructing Fock matrices
	Starting first half-transformation.
	Sorting half-transformed integrals.
	First half integral transformation complete.
	Starting second half-transformation.
	Two-electron integral transformation complete.

  Integral transformation done. 0.00638836 s
  Reading the two-electron integrals from disk
  Size of two-electron integrals:   0.000327 GB
 Integrals are about to be updated.  Using in-core PK algorithm.
   Calculation information:
      Number of atoms:                   2
      Number of AO shells:               7
      Number of primitives:             12
      Number of atomic orbitals:        11
      Number of basis functions:        11

      Integral cutoff                 1.00e-12
      Number of threads:                 1

  Performing in-core PK
  Using 4422 doubles for integral storage.
  We computed 406 shell quartets total.
  Whereas there are 406 unique shell quartets.


  Frozen-core energy            -75.818535539737 a.u.
  Timing for frozen one-body operator:                        0.027 s.
  Resorting integrals after freezing core.
  Timing for freezing core and virtual orbitals:              0.028 s.

  ==> Reference Transformation to Semicanonical Basis <==

    Transformed 1 cumulants.
    Transformed 2 cumulants and RDMs.
    Transformed 3 cumulants.
  SemiCanonicalize takes 1.340330 s.

  ==> Multireference Driven Similarity Renormalization Group <==

    Reading DSRG options ............................ Done
    Setting ambit MO space .......................... Done
    Preparing tensors for density cumulants ......... Done
    Building Fock matrix ............................ Done
    Checking reference energy ....................... Done

           ----------------------------------------------------------
             Multireference Driven Similarity Renormalization Group
                                  Chenyang Li
           ----------------------------------------------------------

  Additional contributions by: Tianyuan Zhang

  ==> Density Cumulant Summary <==

    2-body             AA           AB           BB
    -----------------------------------------------
    max          0.088854     0.294745     0.088854
    norm         0.177707     0.457479     0.177707
    -----------------------------------------------
    3-body            AAA          AAB          ABB          BBB
    ------------------------------------------------------------
    max          0.000000     0.070835     0.070835     0.000000
    norm         0.000000     0.201772     0.201772     0.000000
    ------------------------------------------------------------

  ==> Checking Semicanonical Orbitals <==

    Abs. max of Fock core, active, virtual blocks (Fij, i != j)
                  core          active         virtual
    --------------------------------------------------
    Fα    0.0000000000    0.0000000000    0.0000000000
    Fβ    0.0000000000    0.0000000000    0.0000000000
    --------------------------------------------------

    1-Norm of Fock core, active, virtual blocks (Fij, i != j)
                  core          active         virtual
    --------------------------------------------------
    Fα    0.0000000000    0.0000000000    0.0000000000
    Fβ    0.0000000000    0.0000000000    0.0000000000
    --------------------------------------------------

    Orbitals are semi-canonicalized.

  ==> Calculation Information <==

    ntamp                                            15
    diis_min_vecs                                     2
    diis_max_vecs                                     5
    flow parameter                            1.000e+00
    taylor expansion threshold                1.000e-03
    intruder_tamp                             1.000e-01
    corr_level                                LDSRG2_QC
    int_type                               CONVENTIONAL
    source operator                            STANDARD
    smart_dsrg_s                                 DSRG_S
    reference relaxation                        ITERATE
    dsrg transformation type                    UNITARY
    core virtual source type                     NORMAL
    sequential dsrg transformation                FALSE
    omit blocks of >= 3 virtual indices           FALSE


  ==> MR-DSRG Reference Relaxation Iter. 0 <==


  ==> Build Initial Amplitude from DSRG-MRPT2 <==

    Computing T2 amplitudes ...          Done. Timing      0.003 s
    Computing T1 amplitudes ...          Done. Timing      0.002 s

  ==> First-Order Excitation Amplitudes Summary <==

    Active Indices:    1    2 
    Largest T1 amplitudes for spin case A:
       i       a                  i       a                  i       a               
    --------------------------------------------------------------------------------
    [  2       4    ]-0.102481 [  2       3    ] 0.096228 [  0       1    ] 0.039643 
    [  1       4    ]-0.020489 [  1       3    ]-0.007567 [  0       2    ]-0.006771 
    [  2       5    ] 0.004893 [  1       5    ] 0.003082 [  6       7    ] 0.000313 
    [  8       9    ] 0.000313 [  0       3    ] 0.000094 [  0       5    ]-0.000043 
    [  0       4    ] 0.000023 
    --------------------------------------------------------------------------------
    Norm of T1A vector: (nonzero elements: 13)                    0.147953920208715.
    --------------------------------------------------------------------------------
    Largest T1 amplitudes for spin case B:
       _       _                  _       _                  _       _               
       i       a                  i       a                  i       a               
    --------------------------------------------------------------------------------
    [  2       4    ]-0.102481 [  2       3    ] 0.096228 [  0       1    ] 0.039643 
    [  1       4    ]-0.020489 [  1       3    ]-0.007567 [  0       2    ]-0.006771 
    [  2       5    ] 0.004893 [  1       5    ] 0.003082 [  6       7    ] 0.000313 
    [  8       9    ] 0.000313 [  0       3    ] 0.000094 [  0       5    ]-0.000043 
    [  0       4    ] 0.000023 
    --------------------------------------------------------------------------------
    Norm of T1B vector: (nonzero elements: 13)                    0.147953920208715.
    --------------------------------------------------------------------------------
    Largest T2 amplitudes for spin case AA:
       i   j   a   b              i   j   a   b              i   j   a   b           
    --------------------------------------------------------------------------------
    [  1   6   1   7]-0.046847 [  1   8   1   9]-0.046847 [  2   6   1   7]-0.045393 
    [  2   8   1   9]-0.045393 [  2   6   2   7]-0.036068 [  2   8   2   9]-0.036068 
    [  0   1   1   2] 0.034294 [  1   6   2   7]-0.030773 [  1   8   2   9]-0.030773 
    [  1   2   1   3] 0.024606 [  6   8   7   9]-0.024088 [  0   1   1   5]-0.021278 
    [  1   2   1   4]-0.019808 [  2   6   4   7]-0.019572 [  2   8   4   9]-0.019572 
    --------------------------------------------------------------------------------
    Norm of T2AA vector: (nonzero elements: 240)                  0.282244264026573.
    --------------------------------------------------------------------------------
    Largest T2 amplitudes for spin case AB:
           _       _                  _       _                  _       _           
       i   j   a   b              i   j   a   b              i   j   a   b           
    --------------------------------------------------------------------------------
    [  2   2   2   3] 0.075866 [  2   2   1   4]-0.074388 [  0   0   1   1]-0.060158 
    [  2   2   3   3]-0.051717 [  1   2   1   3] 0.050780 [  1   2   1   4]-0.050276 
    [  2   6   1   7]-0.050009 [  2   8   1   9]-0.050009 [  1   6   1   7]-0.048770 
    [  1   8   1   9]-0.048770 [  1   2   2   4]-0.046425 [  2   6   2   7]-0.039894 
    [  2   8   2   9]-0.039894 [  8   8   9   9]-0.036327 [  6   6   7   7]-0.036327 
    --------------------------------------------------------------------------------
    Norm of T2AB vector: (nonzero elements: 405)                  0.349806856595500.
    --------------------------------------------------------------------------------
    Largest T2 amplitudes for spin case BB:
       _   _   _   _              _   _   _   _              _   _   _   _           
       i   j   a   b              i   j   a   b              i   j   a   b           
    --------------------------------------------------------------------------------
    [  1   6   1   7]-0.046847 [  1   8   1   9]-0.046847 [  2   6   1   7]-0.045393 
    [  2   8   1   9]-0.045393 [  2   6   2   7]-0.036068 [  2   8   2   9]-0.036068 
    [  0   1   1   2] 0.034294 [  1   6   2   7]-0.030773 [  1   8   2   9]-0.030773 
    [  1   2   1   3] 0.024606 [  6   8   7   9]-0.024088 [  0   1   1   5]-0.021278 
    [  1   2   1   4]-0.019808 [  2   6   4   7]-0.019572 [  2   8   4   9]-0.019572 
    --------------------------------------------------------------------------------
    Norm of T2BB vector: (nonzero elements: 240)                  0.282244264026573.
    --------------------------------------------------------------------------------

  ==> Possible Intruders <==

    T1 amplitudes larger than 0.1000 for spin case A:
        Amplitude         Value                  Denominator              
    ----------------------------------------------------------------------
    [  2       4    ]   -0.10248098 (  0.076755 -   2.296416 =  -2.219660)
    ----------------------------------------------------------------------
    T1 amplitudes larger than 0.1000 for spin case B:
        Amplitude         Value                  Denominator              
    ----------------------------------------------------------------------
    [  2       4    ]   -0.10248098 (  0.076755 -   2.296416 =  -2.219660)
    ----------------------------------------------------------------------
    T2 amplitudes larger than 0.1000 for spin case AA: NULL
    T2 amplitudes larger than 0.1000 for spin case AB: NULL
    T2 amplitudes larger than 0.1000 for spin case BB: NULL

  ==> Computing MR-LDSRG(2)-QC Energy <==

    DSRG transformed Hamiltonian is truncated to quadratic nested commutator.
    Reference:
      J. Chem. Phys. (in preparation)

                  Energy (a.u.)           Non-Diagonal Norm        Amplitude RMS         Timings (s)   
           ---------------------------  ---------------------  ---------------------  -----------------
    Iter.        Corr.         Delta       Hbar1      Hbar2        T1         T2        Hbar     Amp.  
    ---------------------------------------------------------------------------------------------------
        0   -0.088647290798 -8.865e-02   1.457e-01  6.696e-01   4.339e-02  1.764e-01     3.757    0.008
        1   -0.090857680248 -2.210e-03   1.429e-01  2.731e-01   2.190e-02  6.249e-02     3.744    0.007
        2   -0.091122024658 -2.643e-04   1.099e-01  1.652e-01   6.071e-03  2.606e-02     3.839    0.008
        3   -0.091299063025 -1.770e-04   1.151e-01  1.655e-01   2.686e-03  1.125e-02     3.751    0.007
        4   -0.091285284532  1.378e-05   1.120e-01  1.549e-01   9.753e-04  4.790e-03     3.762    0.008
        5   -0.091294687351 -9.403e-06   1.130e-01  1.578e-01   4.247e-04  2.063e-03     3.727    0.008 -> DIIS
        6   -0.091292258122  2.429e-06   1.125e-01  1.561e-01   1.690e-04  8.835e-04     3.747    0.008 -> DIIS
        7   -0.091291492498  7.656e-07   1.127e-01  1.566e-01   3.859e-06  9.919e-06     3.739    0.007 -> DIIS
        8   -0.091291423573  6.892e-08   1.127e-01  1.566e-01   1.364e-06  3.188e-06     3.769    0.007 -> DIIS
        9   -0.091291358958  6.462e-08   1.127e-01  1.566e-01   4.138e-07  1.144e-06     3.733    0.007 -> DIIS
       10   -0.091291333896  2.506e-08   1.127e-01  1.566e-01   5.379e-08  2.930e-07     3.806    0.007 -> DIIS
       11   -0.091291332392  1.504e-09   1.127e-01  1.566e-01   1.717e-08  1.018e-07     3.795    0.008
    ---------------------------------------------------------------------------------------------------

  ==> MR-LDSRG(2)-QC Energy Summary <==

    E0 (reference)                      =     -99.406065223639445
    MR-LDSRG(2)-QC correlation energy   =      -0.091291332391978
    MR-LDSRG(2)-QC total energy         =     -99.497356556031420

  ==> Final Excitation Amplitudes Summary <==

    Active Indices:    1    2 
    Largest T1 amplitudes for spin case A:
       i       a                  i       a                  i       a               
    --------------------------------------------------------------------------------
    [  2       4    ]-0.088350 [  2       3    ] 0.086181 [  0       1    ] 0.048224 
    [  1       4    ]-0.013971 [  0       2    ]-0.011147 [  1       3    ]-0.006449 
    [  2       5    ] 0.002552 [  1       5    ] 0.002018 [  0       4    ] 0.000663 
    [  0       3    ]-0.000642 [  0       5    ]-0.000592 [  6       7    ] 0.000206 
    [  8       9    ] 0.000206 
    --------------------------------------------------------------------------------
    Norm of T1A vector: (nonzero elements: 13)                    0.133908103131588.
    --------------------------------------------------------------------------------
    Largest T1 amplitudes for spin case B:
       _       _                  _       _                  _       _               
       i       a                  i       a                  i       a               
    --------------------------------------------------------------------------------
    [  2       4    ]-0.088350 [  2       3    ] 0.086181 [  0       1    ] 0.048224 
    [  1       4    ]-0.013971 [  0       2    ]-0.011147 [  1       3    ]-0.006449 
    [  2       5    ] 0.002552 [  1       5    ] 0.002018 [  0       4    ] 0.000663 
    [  0       3    ]-0.000642 [  0       5    ]-0.000592 [  6       7    ] 0.000206 
    [  8       9    ] 0.000206 
    --------------------------------------------------------------------------------
    Norm of T1B vector: (nonzero elements: 13)                    0.133908103131588.
    --------------------------------------------------------------------------------
    Largest T2 amplitudes for spin case AA:
       i   j   a   b              i   j   a   b              i   j   a   b           
    --------------------------------------------------------------------------------
    [  0   1   1   2] 0.041413 [  1   6   1   7]-0.038372 [  1   8   1   9]-0.038372 
    [  2   8   1   9]-0.030426 [  2   6   1   7]-0.030426 [  1   6   2   7]-0.025976 
    [  1   8   2   9]-0.025976 [  2   6   2   7]-0.025161 [  2   8   2   9]-0.025161 
    [  6   8   7   9]-0.023101 [  1   2   1   3] 0.020113 [  0   1   1   5]-0.016611 
    [  0   2   1   2]-0.015957 [  1   2   2   3] 0.015648 [  1   6   4   7]-0.014107 
    --------------------------------------------------------------------------------
    Norm of T2AA vector: (nonzero elements: 240)                  0.228381671327652.
    --------------------------------------------------------------------------------
    Largest T2 amplitudes for spin case AB:
           _       _                  _       _                  _       _           
       i   j   a   b              i   j   a   b              i   j   a   b           
    --------------------------------------------------------------------------------
    [  0   0   1   1]-0.067312 [  2   2   2   3] 0.056723 [  1   2   1   3] 0.045272 
    [  1   6   1   7]-0.041829 [  1   8   1   9]-0.041829 [  8   8   9   9]-0.041786 
    [  6   6   7   7]-0.041786 [  0   0   1   2]-0.040259 [  2   6   1   7]-0.035766 
    [  2   8   1   9]-0.035766 [  2   2   3   3]-0.034031 [  2   2   1   4]-0.033783 
    [  2   6   2   7]-0.030944 [  2   8   2   9]-0.030944 [  1   2   2   3]-0.030915 
    --------------------------------------------------------------------------------
    Norm of T2AB vector: (nonzero elements: 405)                  0.295719391525990.
    --------------------------------------------------------------------------------
    Largest T2 amplitudes for spin case BB:
       _   _   _   _              _   _   _   _              _   _   _   _           
       i   j   a   b              i   j   a   b              i   j   a   b           
    --------------------------------------------------------------------------------
    [  0   1   1   2] 0.041413 [  1   6   1   7]-0.038372 [  1   8   1   9]-0.038372 
    [  2   6   1   7]-0.030426 [  2   8   1   9]-0.030426 [  1   6   2   7]-0.025976 
    [  1   8   2   9]-0.025976 [  2   6   2   7]-0.025161 [  2   8   2   9]-0.025161 
    [  6   8   7   9]-0.023101 [  1   2   1   3] 0.020113 [  0   1   1   5]-0.016611 
    [  0   2   1   2]-0.015957 [  1   2   2   3] 0.015648 [  1   6   4   7]-0.014107 
    --------------------------------------------------------------------------------
    Norm of T2BB vector: (nonzero elements: 240)                  0.228381671327652.
    --------------------------------------------------------------------------------

  ==> Possible Intruders <==

    T1 amplitudes larger than 0.1000 for spin case A: NULL
    T1 amplitudes larger than 0.1000 for spin case B: NULL
    T2 amplitudes larger than 0.1000 for spin case AA: NULL
    T2 amplitudes larger than 0.1000 for spin case AB: NULL
    T2 amplitudes larger than 0.1000 for spin case BB: NULL

  ==> De-Normal-Order DSRG Transformed Hamiltonian <==

    Computing the scalar term                ... Done. Timing    0.002 s
    Computing the 1-body term                ... Done. Timing    0.001 s

  ==> Rotate DSRG Transformed Hamiltonian back to Original Basis <==

    Rotating 1-body term to original basis   ... Done. Timing    0.000 s
    Rotating 2-body term to original basis   ... Done. Timing    0.012 s

                -----------------------------------------------
                  String-based Full Configuration Interaction
                          by Francesco A. Evangelista
                -----------------------------------------------

  Number of electrons: 10
  Charge: 0
  Multiplicity: 1
  Davidson subspace max dim: 8
  Davidson subspace min dim: 2
  M_s: 0

  ==> String Lists <==

  Number of alpha electrons     = 1
  Number of beta electrons      = 1
  Number of alpha strings       = 2
  Number of beta strings        = 2
  Timing for strings        =      0.000 s
  Timing for NN strings     =      0.000 s
  Timing for VO strings     =      0.000 s
  Timing for OO strings     =      0.000 s
  Timing for VVOO strings   =      0.000 s
  Timing for VOVO strings   =      0.000 s
  Timing for 1-hole strings =      0.000 s
  Timing for 2-hole strings =      0.000 s
  Timing for 3-hole strings =      0.000 s
  Total timing              =      0.000 s

  ==> FCI Solver <==

    Number of determinants                           4
    Symmetry                                         0
    Multiplicity                                     1
    Number of roots                                  1
    Target root                                      0
    Trial vectors per root                          10

  Allocating memory for the Hamiltonian algorithm. Size: 2 x 2 x 2.   Memory: 0.000000 GB

  ==> FCI Initial Guess <==

  ---------------------------------------------
    Root            Energy     <S^2>   Spin
  ---------------------------------------------
      0      -99.498401703623  0.000  singlet
      1      -99.370040871057  2.000  triplet
      2      -99.089953574136  0.000  singlet
      3      -98.766695540825  0.000  singlet
  ---------------------------------------------
  Timing for initial guess  =      0.000 s

  Projecting out root 1
  ==> Diagonalizing Hamiltonian <==

  ----------------------------------------
    Iter.      Avg. Energy       Delta_E
  ----------------------------------------
      1      -99.498401703623  -9.950e+01
      2      -99.498401703623  +2.842e-14
  ----------------------------------------
  The Davidson-Liu algorithm converged in 3 iterations.

  ==> Root No. 0 <==

    20      0.96044969
    02     -0.27715857

    Total Energy:       -99.498401703623387

  ==> Computing RDMs for Root No. 0 <==

    Timing for 1-RDM: 0.000 s
    Timing for 2-RDM: 0.000 s
    Timing for 3-RDM: 0.000 s

  ==> NATURAL ORBITALS <==

        1A1     1.846044      2A1     0.153956  

  The following reference rotation will make the new reference and integrals in the same basis.

  ==> Reference Transformation to Semicanonical Basis <==

    Transformed 1 cumulants.
    Transformed 2 cumulants and RDMs.
    Transformed 3 cumulants.

  ==> Semicanonicalize Orbitals <==

  Took 0.000039 s to build Fock matrix

  ==> Checking Fock Matrix Diagonal Blocks <==

    Off-Diag. Elements       Max           2-Norm
    ------------------------------------------------
    Fa actv              0.0035403811   0.0050068549
    Fb actv              0.0035403811   0.0050068549
    ------------------------------------------------
    Fa core              0.0000000000   0.0000000000
    Fb core              0.0000000000   0.0000000000
    ------------------------------------------------
    Fa virt              0.0019268208   0.0044699520
    Fb virt              0.0019268208   0.0044699520
    ------------------------------------------------

  ==> Integral Transformation to Semicanonical Basis <==

 Integrals are about to be computed.	Presorting SO-basis two-electron integrals.
	Sorting File: SO Ints (nn|nn) nbuckets = 1
	Transforming the one-electron integrals and constructing Fock matrices
	Starting first half-transformation.
	Sorting half-transformed integrals.
	First half integral transformation complete.
	Starting second half-transformation.
	Two-electron integral transformation complete.

  Integral transformation done. 0.00885945 s
  Reading the two-electron integrals from disk
  Size of two-electron integrals:   0.000327 GB
 Integrals are about to be updated.  Using in-core PK algorithm.
   Calculation information:
      Number of atoms:                   2
      Number of AO shells:               7
      Number of primitives:             12
      Number of atomic orbitals:        11
      Number of basis functions:        11

      Integral cutoff                 1.00e-12
      Number of threads:                 1

  Performing in-core PK
  Using 4422 doubles for integral storage.
  We computed 406 shell quartets total.
  Whereas there are 406 unique shell quartets.


  Frozen-core energy            -75.818535539737 a.u.
  Timing for frozen one-body operator:                        0.027 s.
  Resorting integrals after freezing core.
  Timing for freezing core and virtual orbitals:              0.028 s.

  ==> Reference Transformation to Semicanonical Basis <==

    Transformed 1 cumulants.
    Transformed 2 cumulants and RDMs.
    Transformed 3 cumulants.
  SemiCanonicalize takes 1.330825 s.

  ==> Density Cumulant Summary <==

    2-body             AA           AB           BB
    -----------------------------------------------
    max          0.071052     0.265369     0.071052
    norm         0.142105     0.402863     0.142105
    -----------------------------------------------
    3-body            AAA          AAB          ABB          BBB
    ------------------------------------------------------------
    max          0.000000     0.059939     0.059939     0.000000
    norm         0.000000     0.170027     0.170027     0.000000
    ------------------------------------------------------------

  Updated reference energy E0 =     -99.404727547489941

  ==> MR-DSRG Reference Relaxation Iter. 1 <==


  ==> Build Initial Amplitude from DSRG-MRPT2 <==

    Computing T2 amplitudes ...          Done. Timing      0.002 s
    Computing T1 amplitudes ...          Done. Timing      0.002 s

  ==> First-Order Excitation Amplitudes Summary <==

    Active Indices:    1    2 
    Largest T1 amplitudes for spin case A:
       i       a                  i       a                  i       a               
    --------------------------------------------------------------------------------
    [  2       4    ] 0.104907 [  2       3    ]-0.095074 [  0       1    ]-0.040916 
    [  1       4    ] 0.020421 [  1       3    ] 0.007378 [  0       2    ] 0.007138 
    [  2       5    ]-0.005441 [  1       5    ]-0.003112 [  8       9    ]-0.001809 
    [  6       7    ]-0.001809 [  0       5    ] 0.001030 [  0       4    ]-0.000061 
    [  0       3    ] 0.000046 
    --------------------------------------------------------------------------------
    Norm of T1A vector: (nonzero elements: 13)                    0.149291035143849.
    --------------------------------------------------------------------------------
    Largest T1 amplitudes for spin case B:
       _       _                  _       _                  _       _               
       i       a                  i       a                  i       a               
    --------------------------------------------------------------------------------
    [  2       4    ] 0.104907 [  2       3    ]-0.095074 [  0       1    ]-0.040916 
    [  1       4    ] 0.020421 [  1       3    ] 0.007378 [  0       2    ] 0.007138 
    [  2       5    ]-0.005441 [  1       5    ]-0.003112 [  8       9    ]-0.001809 
    [  6       7    ]-0.001809 [  0       5    ] 0.001030 [  0       4    ]-0.000061 
    [  0       3    ] 0.000046 
    --------------------------------------------------------------------------------
    Norm of T1B vector: (nonzero elements: 13)                    0.149291035143849.
    --------------------------------------------------------------------------------
    Largest T2 amplitudes for spin case AA:
       i   j   a   b              i   j   a   b              i   j   a   b           
    --------------------------------------------------------------------------------
    [  1   6   1   7]-0.046431 [  1   8   1   9]-0.046431 [  2   6   1   7]-0.045716 
    [  2   8   1   9]-0.045716 [  2   6   2   7]-0.036513 [  2   8   2   9]-0.036513 
    [  0   1   1   2]-0.034453 [  1   6   2   7]-0.030725 [  1   8   2   9]-0.030725 
    [  1   2   1   3]-0.024446 [  6   8   7   9]-0.024096 [  0   1   1   5]-0.021086 
    [  1   2   1   4] 0.019729 [  2   6   4   7] 0.019674 [  2   8   4   9] 0.019674 
    --------------------------------------------------------------------------------
    Norm of T2AA vector: (nonzero elements: 240)                  0.282470993232192.
    --------------------------------------------------------------------------------
    Largest T2 amplitudes for spin case AB:
           _       _                  _       _                  _       _           
       i   j   a   b              i   j   a   b              i   j   a   b           
    --------------------------------------------------------------------------------
    [  2   2   1   4] 0.074960 [  2   2   2   3]-0.074917 [  0   0   1   1]-0.060588 
    [  2   2   3   3]-0.052031 [  1   2   1   3]-0.050801 [  2   6   1   7]-0.050343 
    [  2   8   1   9]-0.050343 [  1   2   1   4] 0.049805 [  1   6   1   7]-0.048316 
    [  1   8   1   9]-0.048316 [  1   2   2   4] 0.046383 [  2   6   2   7]-0.040378 
    [  2   8   2   9]-0.040378 [  8   8   9   9]-0.036340 [  6   6   7   7]-0.036340 
    --------------------------------------------------------------------------------
    Norm of T2AB vector: (nonzero elements: 405)                  0.349773881350873.
    --------------------------------------------------------------------------------
    Largest T2 amplitudes for spin case BB:
       _   _   _   _              _   _   _   _              _   _   _   _           
       i   j   a   b              i   j   a   b              i   j   a   b           
    --------------------------------------------------------------------------------
    [  1   6   1   7]-0.046431 [  1   8   1   9]-0.046431 [  2   6   1   7]-0.045716 
    [  2   8   1   9]-0.045716 [  2   6   2   7]-0.036513 [  2   8   2   9]-0.036513 
    [  0   1   1   2]-0.034453 [  1   6   2   7]-0.030725 [  1   8   2   9]-0.030725 
    [  1   2   1   3]-0.024446 [  6   8   7   9]-0.024096 [  0   1   1   5]-0.021086 
    [  1   2   1   4] 0.019729 [  2   6   4   7] 0.019674 [  2   8   4   9] 0.019674 
    --------------------------------------------------------------------------------
    Norm of T2BB vector: (nonzero elements: 240)                  0.282470993232192.
    --------------------------------------------------------------------------------

  ==> Possible Intruders <==

    T1 amplitudes larger than 0.1000 for spin case A:
        Amplitude         Value                  Denominator              
    ----------------------------------------------------------------------
    [  2       4    ]    0.10490674 (  0.084756 -   2.309382 =  -2.224626)
    ----------------------------------------------------------------------
    T1 amplitudes larger than 0.1000 for spin case B:
        Amplitude         Value                  Denominator              
    ----------------------------------------------------------------------
    [  2       4    ]    0.10490674 (  0.084756 -   2.309382 =  -2.224626)
    ----------------------------------------------------------------------
    T2 amplitudes larger than 0.1000 for spin case AA: NULL
    T2 amplitudes larger than 0.1000 for spin case AB: NULL
    T2 amplitudes larger than 0.1000 for spin case BB: NULL

  ==> Computing MR-LDSRG(2)-QC Energy <==

    DSRG transformed Hamiltonian is truncated to quadratic nested commutator.
    Reference:
      J. Chem. Phys. (in preparation)

                  Energy (a.u.)           Non-Diagonal Norm        Amplitude RMS         Timings (s)   
           ---------------------------  ---------------------  ---------------------  -----------------
    Iter.        Corr.         Delta       Hbar1      Hbar2        T1         T2        Hbar     Amp.  
    ---------------------------------------------------------------------------------------------------
        0   -0.090967139671 -9.097e-02   1.512e-01  6.770e-01   4.443e-02  1.791e-01     3.832    0.008
        1   -0.093123306727 -2.156e-03   1.459e-01  2.796e-01   2.188e-02  6.437e-02     3.815    0.007
        2   -0.093324571456 -2.013e-04   1.137e-01  1.686e-01   5.942e-03  2.701e-02     3.818    0.007
        3   -0.093476338897 -1.518e-04   1.186e-01  1.693e-01   2.605e-03  1.176e-02     3.819    0.008
        4   -0.093468002229  8.337e-06   1.158e-01  1.582e-01   9.302e-04  5.035e-03     3.873    0.008
        5   -0.093473817701 -5.815e-06   1.167e-01  1.613e-01   4.054e-04  2.184e-03     3.835    0.009 -> DIIS
        6   -0.093473081774  7.359e-07   1.162e-01  1.595e-01   1.601e-04  9.423e-04     3.853    0.008 -> DIIS
        7   -0.093471840611  1.241e-06   1.164e-01  1.600e-01   4.739e-06  1.148e-05     3.894    0.008 -> DIIS
        8   -0.093471729786  1.108e-07   1.164e-01  1.600e-01   1.613e-06  3.825e-06     3.870    0.008 -> DIIS
        9   -0.093471658866  7.092e-08   1.164e-01  1.600e-01   4.818e-07  1.337e-06     3.872    0.008 -> DIIS
       10   -0.093471631268  2.760e-08   1.164e-01  1.600e-01   5.117e-08  3.291e-07     3.860    0.008 -> DIIS
       11   -0.093471630845  4.228e-10   1.164e-01  1.600e-01   1.956e-08  1.149e-07     3.857    0.008
    ---------------------------------------------------------------------------------------------------

  ==> MR-LDSRG(2)-QC Energy Summary <==

    E0 (reference)                      =     -99.404727547489941
    MR-LDSRG(2)-QC correlation energy   =      -0.093471630844830
    MR-LDSRG(2)-QC total energy         =     -99.498199178334772

  ==> Final Excitation Amplitudes Summary <==

    Active Indices:    1    2 
    Largest T1 amplitudes for spin case A:
       i       a                  i       a                  i       a               
    --------------------------------------------------------------------------------
    [  2       4    ] 0.089994 [  2       3    ]-0.084836 [  0       1    ]-0.049622 
    [  1       4    ] 0.014033 [  0       2    ] 0.011399 [  1       3    ] 0.006112 
    [  2       5    ]-0.002893 [  1       5    ]-0.002040 [  8       9    ]-0.001398 
    [  6       7    ]-0.001398 [  0       3    ]-0.000641 [  0       4    ] 0.000543 
    [  0       5    ] 0.000236 
    --------------------------------------------------------------------------------
    Norm of T1A vector: (nonzero elements: 13)                    0.134684212801352.
    --------------------------------------------------------------------------------
    Largest T1 amplitudes for spin case B:
       _       _                  _       _                  _       _               
       i       a                  i       a                  i       a               
    --------------------------------------------------------------------------------
    [  2       4    ] 0.089994 [  2       3    ]-0.084836 [  0       1    ]-0.049622 
    [  1       4    ] 0.014033 [  0       2    ] 0.011399 [  1       3    ] 0.006112 
    [  2       5    ]-0.002893 [  1       5    ]-0.002040 [  8       9    ]-0.001398 
    [  6       7    ]-0.001398 [  0       3    ]-0.000641 [  0       4    ] 0.000543 
    [  0       5    ] 0.000236 
    --------------------------------------------------------------------------------
    Norm of T1B vector: (nonzero elements: 13)                    0.134684212801352.
    --------------------------------------------------------------------------------
    Largest T2 amplitudes for spin case AA:
       i   j   a   b              i   j   a   b              i   j   a   b           
    --------------------------------------------------------------------------------
    [  0   1   1   2]-0.041559 [  1   6   1   7]-0.037989 [  1   8   1   9]-0.037989 
    [  2   6   1   7]-0.030433 [  2   8   1   9]-0.030433 [  1   8   2   9]-0.026012 
    [  1   6   2   7]-0.026012 [  2   6   2   7]-0.025402 [  2   8   2   9]-0.025402 
    [  6   8   7   9]-0.023078 [  1   2   1   3]-0.019989 [  0   1   1   5]-0.016437 
    [  1   2   2   3]-0.015882 [  0   2   1   2] 0.015655 [  1   6   4   7] 0.013986 
    --------------------------------------------------------------------------------
    Norm of T2AA vector: (nonzero elements: 240)                  0.228034045455260.
    --------------------------------------------------------------------------------
    Largest T2 amplitudes for spin case AB:
           _       _                  _       _                  _       _           
       i   j   a   b              i   j   a   b              i   j   a   b           
    --------------------------------------------------------------------------------
    [  0   0   1   1]-0.066665 [  2   2   2   3]-0.055514 [  1   2   1   3]-0.044944 
    [  8   8   9   9]-0.041772 [  6   6   7   7]-0.041772 [  1   6   1   7]-0.041396 
    [  1   8   1   9]-0.041396 [  0   0   1   2]-0.040339 [  2   6   1   7]-0.035706 
    [  2   8   1   9]-0.035706 [  2   2   3   3]-0.033941 [  2   2   1   4] 0.033764 
    [  2   6   2   7]-0.031231 [  2   8   2   9]-0.031231 [  1   1   1   3] 0.030847 
    --------------------------------------------------------------------------------
    Norm of T2AB vector: (nonzero elements: 405)                  0.294696261358502.
    --------------------------------------------------------------------------------
    Largest T2 amplitudes for spin case BB:
       _   _   _   _              _   _   _   _              _   _   _   _           
       i   j   a   b              i   j   a   b              i   j   a   b           
    --------------------------------------------------------------------------------
    [  0   1   1   2]-0.041559 [  1   6   1   7]-0.037989 [  1   8   1   9]-0.037989 
    [  2   8   1   9]-0.030433 [  2   6   1   7]-0.030433 [  1   8   2   9]-0.026012 
    [  1   6   2   7]-0.026012 [  2   6   2   7]-0.025402 [  2   8   2   9]-0.025402 
    [  6   8   7   9]-0.023078 [  1   2   1   3]-0.019989 [  0   1   1   5]-0.016437 
    [  1   2   2   3]-0.015882 [  0   2   1   2] 0.015655 [  1   6   4   7] 0.013986 
    --------------------------------------------------------------------------------
    Norm of T2BB vector: (nonzero elements: 240)                  0.228034045455261.
    --------------------------------------------------------------------------------

  ==> Possible Intruders <==

    T1 amplitudes larger than 0.1000 for spin case A: NULL
    T1 amplitudes larger than 0.1000 for spin case B: NULL
    T2 amplitudes larger than 0.1000 for spin case AA: NULL
    T2 amplitudes larger than 0.1000 for spin case AB: NULL
    T2 amplitudes larger than 0.1000 for spin case BB: NULL

  ==> De-Normal-Order DSRG Transformed Hamiltonian <==

    Computing the scalar term                ... Done. Timing    0.002 s
    Computing the 1-body term                ... Done. Timing    0.001 s

  ==> Rotate DSRG Transformed Hamiltonian back to Original Basis <==

    Rotating 1-body term to original basis   ... Done. Timing    0.000 s
    Rotating 2-body term to original basis   ... Done. Timing    0.013 s

                -----------------------------------------------
                  String-based Full Configuration Interaction
                          by Francesco A. Evangelista
                -----------------------------------------------

  Number of electrons: 10
  Charge: 0
  Multiplicity: 1
  Davidson subspace max dim: 8
  Davidson subspace min dim: 2
  M_s: 0

  ==> String Lists <==

  Number of alpha electrons     = 1
  Number of beta electrons      = 1
  Number of alpha strings       = 2
  Number of beta strings        = 2
  Timing for strings        =      0.000 s
  Timing for NN strings     =      0.000 s
  Timing for VO strings     =      0.000 s
  Timing for OO strings     =      0.000 s
  Timing for VVOO strings   =      0.000 s
  Timing for VOVO strings   =      0.000 s
  Timing for 1-hole strings =      0.000 s
  Timing for 2-hole strings =      0.000 s
  Timing for 3-hole strings =      0.000 s
  Total timing              =      0.000 s

  ==> FCI Solver <==

    Number of determinants                           4
    Symmetry                                         0
    Multiplicity                                     1
    Number of roots                                  1
    Target root                                      0
    Trial vectors per root                          10

  Allocating memory for the Hamiltonian algorithm. Size: 2 x 2 x 2.   Memory: 0.000000 GB

  ==> FCI Initial Guess <==

  ---------------------------------------------
    Root            Energy     <S^2>   Spin
  ---------------------------------------------
      0      -99.498199857333  0.000  singlet
      1      -99.369413412098  2.000  triplet
      2      -99.088842459212  0.000  singlet
      3      -98.765507120327  0.000  singlet
  ---------------------------------------------
  Timing for initial guess  =      0.000 s

  Projecting out root 1
  ==> Diagonalizing Hamiltonian <==

  ----------------------------------------
    Iter.      Avg. Energy       Delta_E
  ----------------------------------------
      1      -99.498199857333  -9.950e+01
      2      -99.498199857333  -4.263e-14
  ----------------------------------------
  The Davidson-Liu algorithm converged in 3 iterations.

  ==> Root No. 0 <==

    20      0.95865411
    02     -0.27410023

    Total Energy:       -99.498199857332949

  ==> Computing RDMs for Root No. 0 <==

    Timing for 1-RDM: 0.000 s
    Timing for 2-RDM: 0.000 s
    Timing for 3-RDM: 0.000 s

  ==> NATURAL ORBITALS <==

        1A1     1.847130      2A1     0.152870  

  The following reference rotation will make the new reference and integrals in the same basis.

  ==> Reference Transformation to Semicanonical Basis <==

    Transformed 1 cumulants.
    Transformed 2 cumulants and RDMs.
    Transformed 3 cumulants.

  ==> Semicanonicalize Orbitals <==

  Took 0.000042 s to build Fock matrix

  ==> Checking Fock Matrix Diagonal Blocks <==

    Off-Diag. Elements       Max           2-Norm
    ------------------------------------------------
    Fa actv              0.0000791365   0.0001119159
    Fb actv              0.0000791365   0.0001119159
    ------------------------------------------------
    Fa core              0.0000000000   0.0000000000
    Fb core              0.0000000000   0.0000000000
    ------------------------------------------------
    Fa virt              0.0000392427   0.0000914882
    Fb virt              0.0000392427   0.0000914882
    ------------------------------------------------

  ==> Integral Transformation to Semicanonical Basis <==

 Integrals are about to be computed.	Presorting SO-basis two-electron integrals.
	Sorting File: SO Ints (nn|nn) nbuckets = 1
	Transforming the one-electron integrals and constructing Fock matrices
	Starting first half-transformation.
	Sorting half-transformed integrals.
	First half integral transformation complete.
	Starting second half-transformation.
	Two-electron integral transformation complete.

  Integral transformation done. 0.00805228 s
  Reading the two-electron integrals from disk
  Size of two-electron integrals:   0.000327 GB
 Integrals are about to be updated.  Using in-core PK algorithm.
   Calculation information:
      Number of atoms:                   2
      Number of AO shells:               7
      Number of primitives:             12
      Number of atomic orbitals:        11
      Number of basis functions:        11

      Integral cutoff                 1.00e-12
      Number of threads:                 1

  Performing in-core PK
  Using 4422 doubles for integral storage.
  We computed 406 shell quartets total.
  Whereas there are 406 unique shell quartets.


  Frozen-core energy            -75.818535539737 a.u.
  Timing for frozen one-body operator:                        0.028 s.
  Resorting integrals after freezing core.
  Timing for freezing core and virtual orbitals:              0.029 s.

  ==> Reference Transformation to Semicanonical Basis <==

    Transformed 1 cumulants.
    Transformed 2 cumulants and RDMs.
    Transformed 3 cumulants.
  SemiCanonicalize takes 1.348829 s.

  ==> Density Cumulant Summary <==

    2-body             AA           AB           BB
    -----------------------------------------------
    max          0.070593     0.264536     0.070593
    norm         0.141186     0.401396     0.141186
    -----------------------------------------------
    3-body            AAA          AAB          ABB          BBB
    ------------------------------------------------------------
    max          0.000000     0.059631     0.059631     0.000000
    norm         0.000000     0.169143     0.169143     0.000000
    ------------------------------------------------------------

  Updated reference energy E0 =     -99.404660609961766

  ==> MR-DSRG Reference Relaxation Iter. 2 <==


  ==> Build Initial Amplitude from DSRG-MRPT2 <==

    Computing T2 amplitudes ...          Done. Timing      0.003 s
    Computing T1 amplitudes ...          Done. Timing      0.002 s

  ==> First-Order Excitation Amplitudes Summary <==

    Active Indices:    1    2 
    Largest T1 amplitudes for spin case A:
       i       a                  i       a                  i       a               
    --------------------------------------------------------------------------------
    [  2       4    ]-0.104959 [  2       3    ] 0.095050 [  0       1    ] 0.040943 
    [  1       4    ]-0.020419 [  1       3    ]-0.007373 [  0       2    ]-0.007148 
    [  2       5    ] 0.005453 [  1       5    ] 0.003114 [  8       9    ]-0.001851 
    [  6       7    ]-0.001851 [  0       5    ] 0.001052 [  0       4    ]-0.000064 
    [  0       3    ] 0.000046 
    --------------------------------------------------------------------------------
    Norm of T1A vector: (nonzero elements: 13)                    0.149321914827065.
    --------------------------------------------------------------------------------
    Largest T1 amplitudes for spin case B:
       _       _                  _       _                  _       _               
       i       a                  i       a                  i       a               
    --------------------------------------------------------------------------------
    [  2       4    ]-0.104959 [  2       3    ] 0.095050 [  0       1    ] 0.040943 
    [  1       4    ]-0.020419 [  1       3    ]-0.007373 [  0       2    ]-0.007148 
    [  2       5    ] 0.005453 [  1       5    ] 0.003114 [  8       9    ]-0.001851 
    [  6       7    ]-0.001851 [  0       5    ] 0.001052 [  0       4    ]-0.000064 
    [  0       3    ] 0.000046 
    --------------------------------------------------------------------------------
    Norm of T1B vector: (nonzero elements: 13)                    0.149321914827065.
    --------------------------------------------------------------------------------
    Largest T2 amplitudes for spin case AA:
       i   j   a   b              i   j   a   b              i   j   a   b           
    --------------------------------------------------------------------------------
    [  1   6   1   7]-0.046421 [  1   8   1   9]-0.046421 [  2   6   1   7]-0.045724 
    [  2   8   1   9]-0.045724 [  2   6   2   7]-0.036523 [  2   8   2   9]-0.036523 
    [  0   1   1   2] 0.034456 [  1   6   2   7]-0.030723 [  1   8   2   9]-0.030723 
    [  1   2   1   3] 0.024443 [  6   8   7   9]-0.024096 [  0   1   1   5]-0.021081 
    [  1   2   1   4]-0.019728 [  2   6   4   7]-0.019677 [  2   8   4   9]-0.019677 
    --------------------------------------------------------------------------------
    Norm of T2AA vector: (nonzero elements: 240)                  0.282476631878033.
    --------------------------------------------------------------------------------
    Largest T2 amplitudes for spin case AB:
           _       _                  _       _                  _       _           
       i   j   a   b              i   j   a   b              i   j   a   b           
    --------------------------------------------------------------------------------
    [  2   2   1   4]-0.074975 [  2   2   2   3] 0.074895 [  0   0   1   1]-0.060598 
    [  2   2   3   3]-0.052038 [  1   2   1   3] 0.050801 [  2   6   1   7]-0.050351 
    [  2   8   1   9]-0.050351 [  1   2   1   4]-0.049795 [  1   6   1   7]-0.048306 
    [  1   8   1   9]-0.048306 [  1   2   2   4]-0.046382 [  2   6   2   7]-0.040389 
    [  2   8   2   9]-0.040389 [  6   6   7   7]-0.036340 [  8   8   9   9]-0.036340 
    --------------------------------------------------------------------------------
    Norm of T2AB vector: (nonzero elements: 405)                  0.349773827700964.
    --------------------------------------------------------------------------------
    Largest T2 amplitudes for spin case BB:
       _   _   _   _              _   _   _   _              _   _   _   _           
       i   j   a   b              i   j   a   b              i   j   a   b           
    --------------------------------------------------------------------------------
    [  1   6   1   7]-0.046421 [  1   8   1   9]-0.046421 [  2   6   1   7]-0.045724 
    [  2   8   1   9]-0.045724 [  2   6   2   7]-0.036523 [  2   8   2   9]-0.036523 
    [  0   1   1   2] 0.034456 [  1   6   2   7]-0.030723 [  1   8   2   9]-0.030723 
    [  1   2   1   3] 0.024443 [  6   8   7   9]-0.024096 [  0   1   1   5]-0.021081 
    [  1   2   1   4]-0.019728 [  2   6   4   7]-0.019677 [  2   8   4   9]-0.019677 
    --------------------------------------------------------------------------------
    Norm of T2BB vector: (nonzero elements: 240)                  0.282476631878033.
    --------------------------------------------------------------------------------

  ==> Possible Intruders <==

    T1 amplitudes larger than 0.1000 for spin case A:
        Amplitude         Value                  Denominator              
    ----------------------------------------------------------------------
    [  2       4    ]   -0.10495906 (  0.084951 -   2.309651 =  -2.224701)
    ----------------------------------------------------------------------
    T1 amplitudes larger than 0.1000 for spin case B:
        Amplitude         Value                  Denominator              
    ----------------------------------------------------------------------
    [  2       4    ]   -0.10495906 (  0.084951 -   2.309651 =  -2.224701)
    ----------------------------------------------------------------------
    T2 amplitudes larger than 0.1000 for spin case AA: NULL
    T2 amplitudes larger than 0.1000 for spin case AB: NULL
    T2 amplitudes larger than 0.1000 for spin case BB: NULL

  ==> Computing MR-LDSRG(2)-QC Energy <==

    DSRG transformed Hamiltonian is truncated to quadratic nested commutator.
    Reference:
      J. Chem. Phys. (in preparation)

                  Energy (a.u.)           Non-Diagonal Norm        Amplitude RMS         Timings (s)   
           ---------------------------  ---------------------  ---------------------  -----------------
    Iter.        Corr.         Delta       Hbar1      Hbar2        T1         T2        Hbar     Amp.  
    ---------------------------------------------------------------------------------------------------
        0   -0.091031679820 -9.103e-02   1.513e-01  6.772e-01   4.446e-02  1.792e-01     3.923    0.007
        1   -0.093188003925 -2.156e-03   1.460e-01  2.797e-01   2.188e-02  6.442e-02     3.815    0.008
        2   -0.093387654569 -1.997e-04   1.138e-01  1.687e-01   5.939e-03  2.704e-02     3.830    0.008
        3   -0.093538907622 -1.513e-04   1.187e-01  1.694e-01   2.604e-03  1.178e-02     3.811    0.007
        4   -0.093530656110  8.252e-06   1.159e-01  1.583e-01   9.292e-04  5.043e-03     3.809    0.008
        5   -0.093536414762 -5.759e-06   1.168e-01  1.614e-01   4.050e-04  2.188e-03     3.775    0.008 -> DIIS
        6   -0.093535707304  7.075e-07   1.163e-01  1.596e-01   1.599e-04  9.440e-04     3.751    0.008 -> DIIS
        7   -0.093534460115  1.247e-06   1.165e-01  1.601e-01   4.758e-06  1.151e-05     3.735    0.008 -> DIIS
        8   -0.093534348519  1.116e-07   1.164e-01  1.601e-01   1.618e-06  3.839e-06     3.776    0.008 -> DIIS
        9   -0.093534277512  7.101e-08   1.164e-01  1.601e-01   4.833e-07  1.341e-06     3.760    0.008 -> DIIS
       10   -0.093534249889  2.762e-08   1.164e-01  1.601e-01   5.112e-08  3.300e-07     3.778    0.008 -> DIIS
       11   -0.093534249487  4.019e-10   1.164e-01  1.601e-01   1.964e-08  1.152e-07     3.762    0.008
    ---------------------------------------------------------------------------------------------------

  ==> MR-LDSRG(2)-QC Energy Summary <==

    E0 (reference)                      =     -99.404660609961766
    MR-LDSRG(2)-QC correlation energy   =      -0.093534249486825
    MR-LDSRG(2)-QC total energy         =     -99.498194859448589

  ==> Final Excitation Amplitudes Summary <==

    Active Indices:    1    2 
    Largest T1 amplitudes for spin case A:
       i       a                  i       a                  i       a               
    --------------------------------------------------------------------------------
    [  2       4    ]-0.090029 [  2       3    ] 0.084807 [  0       1    ] 0.049653 
    [  1       4    ]-0.014035 [  0       2    ]-0.011404 [  1       3    ]-0.006105 
    [  2       5    ] 0.002899 [  1       5    ] 0.002041 [  8       9    ]-0.001429 
    [  6       7    ]-0.001429 [  0       3    ]-0.000641 [  0       4    ] 0.000540 
    [  0       5    ] 0.000252 
    --------------------------------------------------------------------------------
    Norm of T1A vector: (nonzero elements: 13)                    0.134702214544179.
    --------------------------------------------------------------------------------
    Largest T1 amplitudes for spin case B:
       _       _                  _       _                  _       _               
       i       a                  i       a                  i       a               
    --------------------------------------------------------------------------------
    [  2       4    ]-0.090029 [  2       3    ] 0.084807 [  0       1    ] 0.049653 
    [  1       4    ]-0.014035 [  0       2    ]-0.011404 [  1       3    ]-0.006105 
    [  2       5    ] 0.002899 [  1       5    ] 0.002041 [  8       9    ]-0.001429 
    [  6       7    ]-0.001429 [  0       3    ]-0.000641 [  0       4    ] 0.000540 
    [  0       5    ] 0.000252 
    --------------------------------------------------------------------------------
    Norm of T1B vector: (nonzero elements: 13)                    0.134702214544179.
    --------------------------------------------------------------------------------
    Largest T2 amplitudes for spin case AA:
       i   j   a   b              i   j   a   b              i   j   a   b           
    --------------------------------------------------------------------------------
    [  0   1   1   2] 0.041562 [  1   6   1   7]-0.037981 [  1   8   1   9]-0.037981 
    [  2   6   1   7]-0.030433 [  2   8   1   9]-0.030433 [  1   6   2   7]-0.026013 
    [  1   8   2   9]-0.026013 [  2   6   2   7]-0.025407 [  2   8   2   9]-0.025407 
    [  6   8   7   9]-0.023078 [  1   2   1   3] 0.019986 [  0   1   1   5]-0.016433 
    [  1   2   2   3] 0.015887 [  0   2   1   2]-0.015648 [  1   6   4   7]-0.013983 
    --------------------------------------------------------------------------------
    Norm of T2AA vector: (nonzero elements: 240)                  0.228026728847896.
    --------------------------------------------------------------------------------
    Largest T2 amplitudes for spin case AB:
           _       _                  _       _                  _       _           
       i   j   a   b              i   j   a   b              i   j   a   b           
    --------------------------------------------------------------------------------
    [  0   0   1   1]-0.066650 [  2   2   2   3] 0.055487 [  1   2   1   3] 0.044936 
    [  6   6   7   7]-0.041772 [  8   8   9   9]-0.041772 [  1   6   1   7]-0.041387 
    [  1   8   1   9]-0.041387 [  0   0   1   2]-0.040340 [  2   6   1   7]-0.035705 
    [  2   8   1   9]-0.035705 [  2   2   3   3]-0.033939 [  2   2   1   4]-0.033763 
    [  2   6   2   7]-0.031237 [  2   8   2   9]-0.031237 [  1   1   1   3]-0.030861 
    --------------------------------------------------------------------------------
[...]
    -----------------------------------------------
    max          0.070582     0.264516     0.070582
    norm         0.141164     0.401362     0.141164
    -----------------------------------------------
    3-body            AAA          AAB          ABB          BBB
    ------------------------------------------------------------
    max          0.000000     0.059624     0.059624     0.000000
    norm         0.000000     0.169123     0.169123     0.000000
    ------------------------------------------------------------

  Updated reference energy E0 =     -99.404658987377132

  ==> MR-DSRG Reference Relaxation Iter. 4 <==


  ==> Build Initial Amplitude from DSRG-MRPT2 <==

    Computing T2 amplitudes ...          Done. Timing      0.002 s
    Computing T1 amplitudes ...          Done. Timing      0.003 s

  ==> First-Order Excitation Amplitudes Summary <==

    Active Indices:    1    2 
    Largest T1 amplitudes for spin case A:
       i       a                  i       a                  i       a               
    --------------------------------------------------------------------------------
    [  2       4    ]-0.104960 [  2       3    ] 0.095050 [  0       1    ] 0.040943 
    [  1       4    ]-0.020418 [  1       3    ]-0.007373 [  0       2    ]-0.007148 
    [  2       5    ] 0.005453 [  1       5    ] 0.003114 [  8       9    ]-0.001852 
    [  6       7    ]-0.001852 [  0       5    ] 0.001052 [  0       4    ]-0.000064 
    [  0       3    ] 0.000046 
    --------------------------------------------------------------------------------
    Norm of T1A vector: (nonzero elements: 13)                    0.149322670714838.
    --------------------------------------------------------------------------------
    Largest T1 amplitudes for spin case B:
       _       _                  _       _                  _       _               
       i       a                  i       a                  i       a               
    --------------------------------------------------------------------------------
    [  2       4    ]-0.104960 [  2       3    ] 0.095050 [  0       1    ] 0.040943 
    [  1       4    ]-0.020418 [  1       3    ]-0.007373 [  0       2    ]-0.007148 
    [  2       5    ] 0.005453 [  1       5    ] 0.003114 [  8       9    ]-0.001852 
    [  6       7    ]-0.001852 [  0       5    ] 0.001052 [  0       4    ]-0.000064 
    [  0       3    ] 0.000046 
    --------------------------------------------------------------------------------
    Norm of T1B vector: (nonzero elements: 13)                    0.149322670714838.
    --------------------------------------------------------------------------------
    Largest T2 amplitudes for spin case AA:
       i   j   a   b              i   j   a   b              i   j   a   b           
    --------------------------------------------------------------------------------
    [  1   6   1   7]-0.046421 [  1   8   1   9]-0.046421 [  2   6   1   7]-0.045724 
    [  2   8   1   9]-0.045724 [  2   6   2   7]-0.036524 [  2   8   2   9]-0.036524 
    [  0   1   1   2] 0.034457 [  1   6   2   7]-0.030723 [  1   8   2   9]-0.030723 
    [  1   2   1   3] 0.024443 [  6   8   7   9]-0.024096 [  0   1   1   5]-0.021081 
    [  1   2   1   4]-0.019728 [  2   6   4   7]-0.019677 [  2   8   4   9]-0.019677 
    --------------------------------------------------------------------------------
    Norm of T2AA vector: (nonzero elements: 240)                  0.282476765098862.
    --------------------------------------------------------------------------------
    Largest T2 amplitudes for spin case AB:
           _       _                  _       _                  _       _           
       i   j   a   b              i   j   a   b              i   j   a   b           
    --------------------------------------------------------------------------------
    [  2   2   1   4]-0.074976 [  2   2   2   3] 0.074895 [  0   0   1   1]-0.060598 
    [  2   2   3   3]-0.052038 [  1   2   1   3] 0.050801 [  2   6   1   7]-0.050351 
    [  2   8   1   9]-0.050351 [  1   2   1   4]-0.049795 [  1   6   1   7]-0.048306 
    [  1   8   1   9]-0.048306 [  1   2   2   4]-0.046382 [  2   6   2   7]-0.040389 
    [  2   8   2   9]-0.040389 [  6   6   7   7]-0.036340 [  8   8   9   9]-0.036340 
    --------------------------------------------------------------------------------
    Norm of T2AB vector: (nonzero elements: 405)                  0.349773820743717.
    --------------------------------------------------------------------------------
    Largest T2 amplitudes for spin case BB:
       _   _   _   _              _   _   _   _              _   _   _   _           
       i   j   a   b              i   j   a   b              i   j   a   b           
    --------------------------------------------------------------------------------
    [  1   6   1   7]-0.046421 [  1   8   1   9]-0.046421 [  2   6   1   7]-0.045724 
    [  2   8   1   9]-0.045724 [  2   6   2   7]-0.036524 [  2   8   2   9]-0.036524 
    [  0   1   1   2] 0.034457 [  1   6   2   7]-0.030723 [  1   8   2   9]-0.030723 
    [  1   2   1   3] 0.024443 [  6   8   7   9]-0.024096 [  0   1   1   5]-0.021081 
    [  1   2   1   4]-0.019728 [  2   6   4   7]-0.019677 [  2   8   4   9]-0.019677 
    --------------------------------------------------------------------------------
    Norm of T2BB vector: (nonzero elements: 240)                  0.282476765098862.
    --------------------------------------------------------------------------------

  ==> Possible Intruders <==

    T1 amplitudes larger than 0.1000 for spin case A:
        Amplitude         Value                  Denominator              
    ----------------------------------------------------------------------
    [  2       4    ]   -0.10496035 (  0.084955 -   2.309658 =  -2.224703)
    ----------------------------------------------------------------------
    T1 amplitudes larger than 0.1000 for spin case B:
        Amplitude         Value                  Denominator              
    ----------------------------------------------------------------------
    [  2       4    ]   -0.10496035 (  0.084955 -   2.309658 =  -2.224703)
    ----------------------------------------------------------------------
    T2 amplitudes larger than 0.1000 for spin case AA: NULL
    T2 amplitudes larger than 0.1000 for spin case AB: NULL
    T2 amplitudes larger than 0.1000 for spin case BB: NULL

  ==> Computing MR-LDSRG(2)-QC Energy <==

    DSRG transformed Hamiltonian is truncated to quadratic nested commutator.
    Reference:
      J. Chem. Phys. (in preparation)

                  Energy (a.u.)           Non-Diagonal Norm        Amplitude RMS         Timings (s)   
           ---------------------------  ---------------------  ---------------------  -----------------
    Iter.        Corr.         Delta       Hbar1      Hbar2        T1         T2        Hbar     Amp.  
    ---------------------------------------------------------------------------------------------------
        0   -0.091033227167 -9.103e-02   1.513e-01  6.772e-01   4.446e-02  1.792e-01     3.755    0.007
        1   -0.093189550728 -2.156e-03   1.460e-01  2.797e-01   2.188e-02  6.442e-02     3.766    0.007
        2   -0.093389165519 -1.996e-04   1.138e-01  1.687e-01   5.939e-03  2.704e-02     3.795    0.008
        3   -0.093540404864 -1.512e-04   1.187e-01  1.694e-01   2.604e-03  1.178e-02     3.762    0.008
        4   -0.093532156020  8.249e-06   1.159e-01  1.583e-01   9.292e-04  5.043e-03     3.762    0.008
        5   -0.093537913004 -5.757e-06   1.168e-01  1.614e-01   4.050e-04  2.188e-03     3.821    0.008 -> DIIS
        6   -0.093537206365  7.066e-07   1.163e-01  1.596e-01   1.599e-04  9.441e-04     3.783    0.008 -> DIIS
        7   -0.093535958989  1.247e-06   1.165e-01  1.601e-01   4.759e-06  1.151e-05     3.759    0.008 -> DIIS
        8   -0.093535847375  1.116e-07   1.165e-01  1.601e-01   1.618e-06  3.840e-06     3.761    0.008 -> DIIS
        9   -0.093535776366  7.101e-08   1.165e-01  1.601e-01   4.834e-07  1.341e-06     3.750    0.008 -> DIIS
       10   -0.093535748742  2.762e-08   1.165e-01  1.601e-01   5.112e-08  3.300e-07     3.728    0.007 -> DIIS
       11   -0.093535748341  4.013e-10   1.165e-01  1.601e-01   1.964e-08  1.152e-07     3.798    0.008
    ---------------------------------------------------------------------------------------------------

  ==> MR-LDSRG(2)-QC Energy Summary <==

    E0 (reference)                      =     -99.404658987377132
    MR-LDSRG(2)-QC correlation energy   =      -0.093535748340651
    MR-LDSRG(2)-QC total energy         =     -99.498194735717789

  ==> Final Excitation Amplitudes Summary <==

    Active Indices:    1    2 
    Largest T1 amplitudes for spin case A:
       i       a                  i       a                  i       a               
    --------------------------------------------------------------------------------
    [  2       4    ]-0.090030 [  2       3    ] 0.084807 [  0       1    ] 0.049654 
    [  1       4    ]-0.014035 [  0       2    ]-0.011404 [  1       3    ]-0.006105 
    [  2       5    ] 0.002900 [  1       5    ] 0.002041 [  8       9    ]-0.001429 
    [  6       7    ]-0.001429 [  0       3    ]-0.000641 [  0       4    ] 0.000540 
    [  0       5    ] 0.000252 
    --------------------------------------------------------------------------------
    Norm of T1A vector: (nonzero elements: 13)                    0.134702655126391.
    --------------------------------------------------------------------------------
    Largest T1 amplitudes for spin case B:
       _       _                  _       _                  _       _               
       i       a                  i       a                  i       a               
    --------------------------------------------------------------------------------
    [  2       4    ]-0.090030 [  2       3    ] 0.084807 [  0       1    ] 0.049654 
    [  1       4    ]-0.014035 [  0       2    ]-0.011404 [  1       3    ]-0.006105 
    [  2       5    ] 0.002900 [  1       5    ] 0.002041 [  8       9    ]-0.001429 
    [  6       7    ]-0.001429 [  0       3    ]-0.000641 [  0       4    ] 0.000540 
    [  0       5    ] 0.000252 
    --------------------------------------------------------------------------------
    Norm of T1B vector: (nonzero elements: 13)                    0.134702655126391.
    --------------------------------------------------------------------------------
    Largest T2 amplitudes for spin case AA:
       i   j   a   b              i   j   a   b              i   j   a   b           
    --------------------------------------------------------------------------------
    [  0   1   1   2] 0.041562 [  1   6   1   7]-0.037981 [  1   8   1   9]-0.037981 
    [  2   6   1   7]-0.030433 [  2   8   1   9]-0.030433 [  1   6   2   7]-0.026013 
    [  1   8   2   9]-0.026013 [  2   6   2   7]-0.025407 [  2   8   2   9]-0.025407 
    [  6   8   7   9]-0.023078 [  1   2   1   3] 0.019986 [  0   1   1   5]-0.016433 
    [  1   2   2   3] 0.015887 [  0   2   1   2]-0.015647 [  1   6   4   7]-0.013983 
    --------------------------------------------------------------------------------
    Norm of T2AA vector: (nonzero elements: 240)                  0.228026541550525.
    --------------------------------------------------------------------------------
    Largest T2 amplitudes for spin case AB:
           _       _                  _       _                  _       _           
       i   j   a   b              i   j   a   b              i   j   a   b           
    --------------------------------------------------------------------------------
    [  0   0   1   1]-0.066649 [  2   2   2   3] 0.055486 [  1   2   1   3] 0.044936 
    [  8   8   9   9]-0.041772 [  6   6   7   7]-0.041772 [  1   6   1   7]-0.041386 
    [  1   8   1   9]-0.041386 [  0   0   1   2]-0.040340 [  2   6   1   7]-0.035705 
    [  2   8   1   9]-0.035705 [  2   2   3   3]-0.033939 [  2   2   1   4]-0.033763 
    [  2   6   2   7]-0.031237 [  2   8   2   9]-0.031237 [  1   1   1   3]-0.030861 
    --------------------------------------------------------------------------------
    Norm of T2AB vector: (nonzero elements: 405)                  0.294673032902267.
    --------------------------------------------------------------------------------
    Largest T2 amplitudes for spin case BB:
       _   _   _   _              _   _   _   _              _   _   _   _           
       i   j   a   b              i   j   a   b              i   j   a   b           
    --------------------------------------------------------------------------------
    [  0   1   1   2] 0.041562 [  1   6   1   7]-0.037981 [  1   8   1   9]-0.037981 
    [  2   6   1   7]-0.030433 [  2   8   1   9]-0.030433 [  1   6   2   7]-0.026013 
    [  1   8   2   9]-0.026013 [  2   6   2   7]-0.025407 [  2   8   2   9]-0.025407 
    [  6   8   7   9]-0.023078 [  1   2   1   3] 0.019986 [  0   1   1   5]-0.016433 
    [  1   2   2   3] 0.015887 [  0   2   1   2]-0.015647 [  1   6   4   7]-0.013983 
    --------------------------------------------------------------------------------
    Norm of T2BB vector: (nonzero elements: 240)                  0.228026541550525.
    --------------------------------------------------------------------------------

  ==> Possible Intruders <==

    T1 amplitudes larger than 0.1000 for spin case A: NULL
    T1 amplitudes larger than 0.1000 for spin case B: NULL
    T2 amplitudes larger than 0.1000 for spin case AA: NULL
    T2 amplitudes larger than 0.1000 for spin case AB: NULL
    T2 amplitudes larger than 0.1000 for spin case BB: NULL

  ==> De-Normal-Order DSRG Transformed Hamiltonian <==

    Computing the scalar term                ... Done. Timing    0.003 s
    Computing the 1-body term                ... Done. Timing    0.001 s

  ==> Rotate DSRG Transformed Hamiltonian back to Original Basis <==

    Rotating 1-body term to original basis   ... Done. Timing    0.001 s
    Rotating 2-body term to original basis   ... Done. Timing    0.015 s

                -----------------------------------------------
                  String-based Full Configuration Interaction
                          by Francesco A. Evangelista
                -----------------------------------------------

  Number of electrons: 10
  Charge: 0
  Multiplicity: 1
  Davidson subspace max dim: 8
  Davidson subspace min dim: 2
  M_s: 0

  ==> String Lists <==

  Number of alpha electrons     = 1
  Number of beta electrons      = 1
  Number of alpha strings       = 2
  Number of beta strings        = 2
  Timing for strings        =      0.000 s
  Timing for NN strings     =      0.000 s
  Timing for VO strings     =      0.000 s
  Timing for OO strings     =      0.000 s
  Timing for VVOO strings   =      0.000 s
  Timing for VOVO strings   =      0.000 s
  Timing for 1-hole strings =      0.000 s
  Timing for 2-hole strings =      0.000 s
  Timing for 3-hole strings =      0.000 s
  Total timing              =      0.000 s

  ==> FCI Solver <==

    Number of determinants                           4
    Symmetry                                         0
    Multiplicity                                     1
    Number of roots                                  1
    Target root                                      0
    Trial vectors per root                          10

  Allocating memory for the Hamiltonian algorithm. Size: 2 x 2 x 2.   Memory: 0.000000 GB

  ==> FCI Initial Guess <==

  ---------------------------------------------
    Root            Energy     <S^2>   Spin
  ---------------------------------------------
      0      -99.498194735718  0.000  singlet
      1      -99.369398753538  2.000  triplet
      2      -99.088814636940  0.000  singlet
      3      -98.765478734756  0.000  singlet
  ---------------------------------------------
  Timing for initial guess  =      0.000 s

  Projecting out root 1
  ==> Diagonalizing Hamiltonian <==

  ----------------------------------------
    Iter.      Avg. Energy       Delta_E
  ----------------------------------------
      1      -99.498194735718  -9.950e+01
      2      -99.498194735718  +1.421e-14
  ----------------------------------------
  The Davidson-Liu algorithm converged in 3 iterations.

  ==> Root No. 0 <==

    20      0.95926861
    02     -0.27468497

    Total Energy:       -99.498194735717689

  ==> Computing RDMs for Root No. 0 <==

    Timing for 1-RDM: 0.000 s
    Timing for 2-RDM: 0.000 s
    Timing for 3-RDM: 0.000 s

  ==> NATURAL ORBITALS <==

        1A1     1.847155      2A1     0.152845  

  The following reference rotation will make the new reference and integrals in the same basis.

  ==> Reference Transformation to Semicanonical Basis <==

    Transformed 1 cumulants.
    Transformed 2 cumulants and RDMs.
    Transformed 3 cumulants.

  ==> Semicanonicalize Orbitals <==

  Took 0.000040 s to build Fock matrix

  ==> Checking Fock Matrix Diagonal Blocks <==

    Off-Diag. Elements       Max           2-Norm
    ------------------------------------------------
    Fa actv              0.0000000010   0.0000000014
    Fb actv              0.0000000010   0.0000000014
    ------------------------------------------------
    Fa core              0.0000000000   0.0000000000
    Fb core              0.0000000000   0.0000000000
    ------------------------------------------------
    Fa virt              0.0000000229   0.0000000531
    Fb virt              0.0000000229   0.0000000531
    ------------------------------------------------
  Orbitals are already semicanonicalized.

  ==> Density Cumulant Summary <==

    2-body             AA           AB           BB
    -----------------------------------------------
    max          0.070582     0.264516     0.070582
    norm         0.141164     0.401362     0.141164
    -----------------------------------------------
    3-body            AAA          AAB          ABB          BBB
    ------------------------------------------------------------
    max          0.000000     0.059624     0.059624     0.000000
    norm         0.000000     0.169123     0.169123     0.000000
    ------------------------------------------------------------

  Updated reference energy E0 =     -99.404658986508167

  ==> MRDSRG Reference Relaxation Summary <==

                  Fixed Ref. (a.u.)               Relaxed Ref. (a.u.)      
           -------------------------------  -------------------------------
    Iter.      Total Energy        Delta        Total Energy        Delta  
    -----------------------------------------------------------------------
        0      -99.497356556031 -9.950e+01      -99.498401703623 -9.950e+01
        1      -99.498199178335 -8.426e-04      -99.498199857333  2.018e-04
        2      -99.498194859449  4.319e-06      -99.498194859814  4.998e-06
        3      -99.498194738535  1.209e-07      -99.498194738535  1.213e-07
        4      -99.498194735718  2.817e-09      -99.498194735718  2.817e-09
    -----------------------------------------------------------------------
    MRDSRG Total Energy            =     -99.498194735717789
    MRDSRG Total Energy (relaxed)  =     -99.498194735717689


  ==> Total Timings (s) for Computing Commutators <==

             [H1, T1]    [H1, T2]    [H2, T1]    [H2, T2]
    -----------------------------------------------------
    -> C0       0.087       0.168       0.526       8.471
    -> C1       0.512       2.992       4.574      68.379
    -> C2                   9.642      23.121     123.995
    -----------------------------------------------------
	MRDSRG fully relaxed energy.......................................PASSED

    Psi4 stopped on: Tuesday, 06 November 2018 08:49PM
    Psi4 wall time for execution: 0:04:20.59

*** Psi4 exiting successfully. Buy a developer a beer!
