
    -----------------------------------------------------------------------
          Psi4: An Open-Source Ab Initio Electronic Structure Package
                               Psi4 1.2a1.dev704 

                         Git: Rev {master} a7fc050 


    R. M. Parrish, L. A. Burns, D. G. A. Smith, A. C. Simmonett,
    A. E. DePrince III, E. G. Hohenstein, U. Bozkaya, A. Yu. Sokolov,
    R. Di Remigio, R. M. Richard, J. F. Gonthier, A. M. James,
    H. R. McAlexander, A. Kumar, M. Saitow, X. Wang, B. P. Pritchard,
    P. Verma, H. F. Schaefer III, K. Patkowski, R. A. King, E. F. Valeev,
    F. A. Evangelista, J. M. Turney, T. D. Crawford, and C. D. Sherrill,
    J. Chem. Theory Comput. 13(7) pp 3185--3197 (2017).
    (doi: 10.1021/acs.jctc.7b00174)

    -----------------------------------------------------------------------


    Psi4 started on: Friday, 29 December 2017 09:43PM

    Process ID:  71070
    PSIDATADIR: /Users/york/src/psi4new/psi4/share/psi4
    Memory:     500.0 MiB
    Threads:    1
    
  ==> Input File <==

--------------------------------------------------------------------------
#! Generated using commit GITCOMMIT

import forte
memory 1 gb

r_scf = -154.809201458319
r_0ag = -155.350467803889

molecule butadiene{
0 1
H  1.080977 -2.558832  0.000000
H -1.080977  2.558832  0.000000
H  2.103773 -1.017723  0.000000
H -2.103773  1.017723  0.000000
H -0.973565 -1.219040  0.000000
H  0.973565  1.219040  0.000000
C  0.000000  0.728881  0.000000
C  0.000000 -0.728881  0.000000
C  1.117962 -1.474815  0.000000
C -1.117962  1.474815  0.000000

symmetry c1
}

set {
  reference         rhf
  scf_type          pk
  basis             def2-svp
  e_convergence     10
  d_convergence     8
  maxiter           100
  cubeprop_orbitals [14,15,16,17]
}
Escf, wfn = energy('scf', return_wfn=True)
compare_values(r_scf, Escf, 8, "SCF energy")

set forte{
  job_type            dsrg-mrpt2
  rotate_mos          [1,17,20]
  cas_type            cas
  fcimo_localize_actv true
  e_convergence       12
  dsrg_s              0.5
  frozen_docc         [4]
  restricted_docc     [9]
  active              [4]
  avg_state           [[0,1,6]]
  rotate_mos          [1,17,20]
  dsrg_dipole         true
}
E0ag, wfn = energy('forte', ref_wfn=wfn, return_wfn=True)
compare_values(r_0ag, E0ag, 8, "abs. energy of singlet 0Ag")

psi4.print_out("\nNote the second CASCI does not print meaningful dipoles.")
psi4.print_out("\nThis is because the FCIIntegrals are in LOCALIZED basis ")
psi4.print_out("but ForteIntegrals are in SEMI-CANONICAL basis.")
--------------------------------------------------------------------------

  Memory set to 953.674 MiB by Python driver.

*** tstart() called on yorks-mac.wireless.emory.edu
*** at Fri Dec 29 21:43:34 2017

   => Loading Basis Set <=

    Name: DEF2-SVP
    Role: ORBITAL
    Keyword: BASIS
    atoms 1-6  entry H          line    15 file /Users/york/src/psi4new/psi4/share/psi4/basis/def2-svp.gbs 
    atoms 7-10 entry C          line    90 file /Users/york/src/psi4new/psi4/share/psi4/basis/def2-svp.gbs 


         ---------------------------------------------------------
                                   SCF
            by Justin Turney, Rob Parrish, Andy Simmonett
                             and Daniel Smith
                              RHF Reference
                        1 Threads,    953 MiB Core
         ---------------------------------------------------------

  ==> Geometry <==

    Molecular point group: c1
    Full point group: C2h

    Geometry (in Angstrom), charge = 0, multiplicity = 1:

       Center              X                  Y                   Z               Mass       
    ------------   -----------------  -----------------  -----------------  -----------------
           H          1.080977000000    -2.558832000000     0.000000000000     1.007825032070
           H         -1.080977000000     2.558832000000     0.000000000000     1.007825032070
           H          2.103773000000    -1.017723000000     0.000000000000     1.007825032070
           H         -2.103773000000     1.017723000000     0.000000000000     1.007825032070
           H         -0.973565000000    -1.219040000000     0.000000000000     1.007825032070
           H          0.973565000000     1.219040000000     0.000000000000     1.007825032070
           C          0.000000000000     0.728881000000     0.000000000000    12.000000000000
           C          0.000000000000    -0.728881000000     0.000000000000    12.000000000000
           C          1.117962000000    -1.474815000000     0.000000000000    12.000000000000
           C         -1.117962000000     1.474815000000     0.000000000000    12.000000000000

  Running in c1 symmetry.

  Rotational constants: A =      1.39831  B =      0.14741  C =      0.13335 [cm^-1]
  Rotational constants: A =  41920.28271  B =   4419.18033  C =   3997.74354 [MHz]
  Nuclear repulsion =  103.516093773397515

  Charge       = 0
  Multiplicity = 1
  Electrons    = 30
  Nalpha       = 15
  Nbeta        = 15

  ==> Algorithm <==

  SCF Algorithm Type is PK.
  DIIS enabled.
  MOM disabled.
  Fractional occupation disabled.
  Guess Type is SAD.
  Energy threshold   = 1.00e-10
  Density threshold  = 1.00e-08
  Integral threshold = 0.00e+00

  ==> Primary Basis <==

  Basis Set: DEF2-SVP
    Blend: DEF2-SVP
    Number of shells: 42
    Number of basis function: 86
    Number of Cartesian functions: 90
    Spherical Harmonics?: true
    Max angular momentum: 2

  ==> Pre-Iterations <==

   -------------------------------------------------------
    Irrep   Nso     Nmo     Nalpha   Nbeta   Ndocc  Nsocc
   -------------------------------------------------------
     A         86      86       0       0       0       0
   -------------------------------------------------------
    Total      86      86      15      15      15       0
   -------------------------------------------------------

  ==> Integral Setup <==

  Using in-core PK algorithm.
   Calculation information:
      Number of atoms:                  10
      Number of AO shells:              42
      Number of primitives:             78
      Number of atomic orbitals:        90
      Number of basis functions:        86

      Integral cutoff                 1.00e-12
      Number of threads:                 1

  Performing in-core PK
  Using 13998822 doubles for integral storage.
  We computed 385288 shell quartets total.
  Whereas there are 408156 unique shell quartets.
  ==> DiskJK: Disk-Based J/K Matrices <==

    J tasked:                  Yes
    K tasked:                  Yes
    wK tasked:                  No
    Memory (MB):               715
    Schwarz Cutoff:          1E-12

    OpenMP threads:              1
  Minimum eigenvalue in the overlap matrix is 1.8516788927E-03.
  Using Symmetric Orthogonalization.

  SCF Guess: Superposition of Atomic Densities via on-the-fly atomic UHF.

  ==> Iterations <==

                        Total Energy        Delta E     RMS |[F,P]|

   @RHF iter   0:  -156.88943773141091   -1.56889e+02   4.38802e-02 
   @RHF iter   1:  -154.71857490499764    2.17086e+00   3.31958e-03 
   @RHF iter   2:  -154.79484470757470   -7.62698e-02   1.15148e-03 DIIS
   @RHF iter   3:  -154.80645264497736   -1.16079e-02   5.77068e-04 DIIS
   @RHF iter   4:  -154.80877643611393   -2.32379e-03   1.75145e-04 DIIS
   @RHF iter   5:  -154.80917978990914   -4.03354e-04   3.90909e-05 DIIS
   @RHF iter   6:  -154.80920030062975   -2.05107e-05   9.63389e-06 DIIS
   @RHF iter   7:  -154.80920133983665   -1.03921e-06   2.93671e-06 DIIS
   @RHF iter   8:  -154.80920145064420   -1.10808e-07   7.27259e-07 DIIS
   @RHF iter   9:  -154.80920145819240   -7.54821e-09   9.87078e-08 DIIS
   @RHF iter  10:  -154.80920145831260   -1.20195e-10   2.06347e-08 DIIS
   @RHF iter  11:  -154.80920145831823   -5.62750e-12   4.97314e-09 DIIS

  ==> Post-Iterations <==

    Orbital Energies (a.u.)
    -----------------------

    Doubly Occupied:                                                      

       1A    -11.243115     2A    -11.242402     3A    -11.236533  
       4A    -11.236508     5A     -1.078931     6A     -0.987457  
       7A     -0.818069     8A     -0.748132     9A     -0.643715  
      10A     -0.634702    11A     -0.558613    12A     -0.544130  
      13A     -0.495367    14A     -0.443875    15A     -0.322203  

    Virtual:                                                              

      16A      0.114604    17A      0.202404    18A      0.208193  
      19A      0.218272    20A      0.237812    21A      0.269023  
      22A      0.279205    23A      0.295457    24A      0.444533  
      25A      0.459483    26A      0.535098    27A      0.555485  
      28A      0.580928    29A      0.602941    30A      0.625158  
      31A      0.686928    32A      0.724648    33A      0.746358  
      34A      0.756693    35A      0.828068    36A      0.846995  
      37A      0.874224    38A      0.881505    39A      0.900856  
      40A      0.905545    41A      0.918921    42A      0.950799  
      43A      1.022838    44A      1.088126    45A      1.090347  
      46A      1.227137    47A      1.363898    48A      1.392577  
      49A      1.430279    50A      1.457741    51A      1.493521  
      52A      1.526441    53A      1.555811    54A      1.865556  
      55A      1.872195    56A      1.900411    57A      1.926357  
      58A      1.929125    59A      1.996993    60A      2.040038  
      61A      2.049096    62A      2.079197    63A      2.084842  
      64A      2.176176    65A      2.185964    66A      2.317107  
      67A      2.320522    68A      2.361230    69A      2.367522  
      70A      2.438919    71A      2.573505    72A      2.622184  
      73A      2.625461    74A      2.667799    75A      2.737832  
      76A      2.858975    77A      2.862270    78A      2.913273  
      79A      3.057000    80A      3.101298    81A      3.171681  
      82A      3.173502    83A      3.318628    84A      3.380894  
      85A      3.713573    86A      3.734697  

    Final Occupation by Irrep:
              A 
    DOCC [    15 ]

  Energy converged.

  @RHF Final Energy:  -154.80920145831823

   => Energetics <=

    Nuclear Repulsion Energy =            103.5160937733975146
    One-Electron Energy =                -412.1830885515253726
    Two-Electron Energy =                 153.8577933198096162
    Total Energy =                       -154.8092014583182277



Properties will be evaluated at   0.000000,   0.000000,   0.000000 Bohr

Properties computed using the SCF density matrix

  Nuclear Dipole Moment: (a.u.)
     X:     0.0000      Y:     0.0000      Z:     0.0000

  Electronic Dipole Moment: (a.u.)
     X:    -0.0000      Y:     0.0000      Z:    -0.0000

  Dipole Moment: (a.u.)
     X:    -0.0000      Y:     0.0000      Z:    -0.0000     Total:     0.0000

  Dipole Moment: (Debye)
     X:    -0.0000      Y:     0.0000      Z:    -0.0000     Total:     0.0000


*** tstop() called on yorks-mac.wireless.emory.edu at Fri Dec 29 21:43:39 2017
Module time:
	user time   =       3.98 seconds =       0.07 minutes
	system time =       0.11 seconds =       0.00 minutes
	total time  =          5 seconds =       0.08 minutes
Total time:
	user time   =       3.98 seconds =       0.07 minutes
	system time =       0.11 seconds =       0.00 minutes
	total time  =          5 seconds =       0.08 minutes
	SCF energy........................................................PASSED
   => Loading Basis Set <=

    Name: STO-3G
    Role: ORBITAL
    Keyword: MINAO_BASIS
    atoms 1-6  entry H          line    19 file /Users/york/src/psi4new/psi4/share/psi4/basis/sto-3g.gbs 
    atoms 7-10 entry C          line    61 file /Users/york/src/psi4new/psi4/share/psi4/basis/sto-3g.gbs 


Reading options from the FORTE block
Calling plugin forte.so.



  Forte
  ----------------------------------------------------------------------------
  A suite of quantum chemistry methods for strongly correlated electrons

    git branch: master - git commit: f15141bf

  Developed by:
    Francesco A. Evangelista, Chenyang Li, Kevin P. Hannon,
    Jeffrey B. Schriber, Tianyuan Zhang, Chenxi Cai
  ----------------------------------------------------------------------------

  Size of Determinant class: 32

  ==> MO Space Information <==

  Read options for space FROZEN_DOCC
  Read options for space RESTRICTED_DOCC
  Read options for space ACTIVE
 Removing orbital 0
 Removing orbital 1
 Removing orbital 2
 Removing orbital 3
  -------------------------------
                        A   Sum
  -------------------------------
    FROZEN_DOCC         4     4
    RESTRICTED_DOCC     9     9
    ACTIVE              4     4
    RESTRICTED_UOCC    69    69
    FROZEN_UOCC         0     0
    Total              86    86
  -------------------------------

  ==> Integral Transformation <==

  Number of molecular orbitals:               86
  Number of correlated molecular orbitals:    82
  Number of frozen occupied orbitals:          4
  Number of frozen unoccupied orbitals:        0




  ==> ROTATING MOS <==

  IRREP  MO_1  MO_2
   0   16   19
    Molecular point group: c1
    Full point group: C2h

    Geometry (in Angstrom), charge = 0, multiplicity = 1:

       Center              X                  Y                   Z               Mass       
    ------------   -----------------  -----------------  -----------------  -----------------
           H          1.080977000000    -2.558832000000     0.000000000000     1.007825032070
           H         -1.080977000000     2.558832000000     0.000000000000     1.007825032070
           H          2.103773000000    -1.017723000000     0.000000000000     1.007825032070
           H         -2.103773000000     1.017723000000     0.000000000000     1.007825032070
           H         -0.973565000000    -1.219040000000     0.000000000000     1.007825032070
           H          0.973565000000     1.219040000000     0.000000000000     1.007825032070
           C          0.000000000000     0.728881000000     0.000000000000    12.000000000000
           C          0.000000000000    -0.728881000000     0.000000000000    12.000000000000
           C          1.117962000000    -1.474815000000     0.000000000000    12.000000000000
           C         -1.117962000000     1.474815000000     0.000000000000    12.000000000000

  -AO BASIS SET INFORMATION:
    Name                   = DEF2-SVP
    Blend                  = DEF2-SVP
    Total number of shells = 42
    Number of primitives   = 78
    Number of AO           = 90
    Number of SO           = 86
    Maximum AM             = 2
    Spherical Harmonics    = TRUE

  -Contraction Scheme:
    Atom   Type   All Primitives // Shells:
   ------ ------ --------------------------
       1     H     4s 1p // 2s 1p 
       2     H     4s 1p // 2s 1p 
       3     H     4s 1p // 2s 1p 
       4     H     4s 1p // 2s 1p 
       5     H     4s 1p // 2s 1p 
       6     H     4s 1p // 2s 1p 
       7     C     7s 4p 1d // 3s 2p 1d 
       8     C     7s 4p 1d // 3s 2p 1d 
       9     C     7s 4p 1d // 3s 2p 1d 
      10     C     7s 4p 1d // 3s 2p 1d 

  ==> AO Basis Functions <==

    [ DEF2-SVP ]
    spherical
    ****
    H   1
    S   3 1.00
                        13.01070100           0.01968216
                         1.96225720           0.13796524
                         0.44453796           0.47831935
    S   1 1.00
                         0.12194962           1.00000000
    P   1 1.00
                         0.80000000           1.00000000
    ****
    H   2
    S   3 1.00
                        13.01070100           0.01968216
                         1.96225720           0.13796524
                         0.44453796           0.47831935
    S   1 1.00
                         0.12194962           1.00000000
    P   1 1.00
                         0.80000000           1.00000000
    ****
    H   3
    S   3 1.00
                        13.01070100           0.01968216
                         1.96225720           0.13796524
                         0.44453796           0.47831935
    S   1 1.00
                         0.12194962           1.00000000
    P   1 1.00
                         0.80000000           1.00000000
    ****
    H   4
    S   3 1.00
                        13.01070100           0.01968216
                         1.96225720           0.13796524
                         0.44453796           0.47831935
    S   1 1.00
                         0.12194962           1.00000000
    P   1 1.00
                         0.80000000           1.00000000
    ****
    H   5
    S   3 1.00
                        13.01070100           0.01968216
                         1.96225720           0.13796524
                         0.44453796           0.47831935
    S   1 1.00
                         0.12194962           1.00000000
    P   1 1.00
                         0.80000000           1.00000000
    ****
    H   6
    S   3 1.00
                        13.01070100           0.01968216
                         1.96225720           0.13796524
                         0.44453796           0.47831935
    S   1 1.00
                         0.12194962           1.00000000
    P   1 1.00
                         0.80000000           1.00000000
    ****
    C   7
    S   5 1.00
                      1238.40169380           0.00545688
                       186.29004992           0.04063841
                        42.25117635           0.18025594
                        11.67655793           0.46315122
                         3.59305065           0.44087173
    S   1 1.00
                         0.40245147           1.00000000
    S   1 1.00
                         0.13090183           1.00000000
    P   3 1.00
                         9.46809706           0.03838787
                         2.01035451           0.21117025
                         0.54771005           0.51328172
    P   1 1.00
                         0.15268614           1.00000000
    D   1 1.00
                         0.80000000           1.00000000
    ****
    C   8
    S   5 1.00
                      1238.40169380           0.00545688
                       186.29004992           0.04063841
                        42.25117635           0.18025594
                        11.67655793           0.46315122
                         3.59305065           0.44087173
    S   1 1.00
                         0.40245147           1.00000000
    S   1 1.00
                         0.13090183           1.00000000
    P   3 1.00
                         9.46809706           0.03838787
                         2.01035451           0.21117025
                         0.54771005           0.51328172
    P   1 1.00
                         0.15268614           1.00000000
    D   1 1.00
                         0.80000000           1.00000000
    ****
    C   9
    S   5 1.00
                      1238.40169380           0.00545688
                       186.29004992           0.04063841
                        42.25117635           0.18025594
                        11.67655793           0.46315122
                         3.59305065           0.44087173
    S   1 1.00
                         0.40245147           1.00000000
    S   1 1.00
                         0.13090183           1.00000000
    P   3 1.00
                         9.46809706           0.03838787
                         2.01035451           0.21117025
                         0.54771005           0.51328172
    P   1 1.00
                         0.15268614           1.00000000
    D   1 1.00
                         0.80000000           1.00000000
    ****
    C  10
    S   5 1.00
                      1238.40169380           0.00545688
                       186.29004992           0.04063841
                        42.25117635           0.18025594
                        11.67655793           0.46315122
                         3.59305065           0.44087173
    S   1 1.00
                         0.40245147           1.00000000
    S   1 1.00
                         0.13090183           1.00000000
    P   3 1.00
                         9.46809706           0.03838787
                         2.01035451           0.21117025
                         0.54771005           0.51328172
    P   1 1.00
                         0.15268614           1.00000000
    D   1 1.00
                         0.80000000           1.00000000
    ****


  Overall Conventional Integrals timings

	Presorting SO-basis two-electron integrals.
	Sorting File: SO Ints (nn|nn) nbuckets = 1
	Transforming the one-electron integrals and constructing Fock matrices
	Starting first half-transformation.
	Sorting half-transformed integrals.
	First half integral transformation complete.
	Starting second half-transformation.
	Two-electron integral transformation complete.

  Integral transformation done. 5.60704000 s
  Reading the two-electron integrals from disk
  Size of two-electron integrals:   1.222659 GB  Using in-core PK algorithm.
   Calculation information:
      Number of atoms:                  10
      Number of AO shells:              42
      Number of primitives:             78
      Number of atomic orbitals:        90
      Number of basis functions:        86

      Integral cutoff                 1.00e-12
      Number of threads:                 1

  Performing in-core PK
  Using 13998822 doubles for integral storage.
  We computed 385288 shell quartets total.
  Whereas there are 408156 unique shell quartets.

  Frozen-core energy           -176.777110788204 a.u.

  FrozenOneBody Operator takes  2.64017900 s
  Resorting integrals after freezing core.
  Conventional integrals take 22.41891100 s

              ---------------------------------------------------
                Complete Active Space Configuration Interaction
                                  Chenyang Li
              ---------------------------------------------------


  ==> Input Summary <==

    No. a electrons in active      =     2
    No. b electrons in active      =     2
    multiplicity                   =     1
    spin ms (2 * Sz)               =     0

  ==> Orbital Spaces <==

    TOTAL MO                      [   86 ]
    FROZEN CORE                   [    4 ]
    FROZEN VIRTUAL                [    0 ]
    CORRELATED MO                 [   82 ]
    CORE                          [    9 ]
    ACTIVE                        [    4 ]
    VIRTUAL                       [   69 ]

  ==> State Averaging Summary <==

    Irrep.  Multi.  Nstates                              Weights
    ------------------------------------------------------------
       A       1        6    0.167 0.167 0.167 0.167 0.167 0.167
    ------------------------------------------------------------
    Total number of states: 6
    ------------------------------------------------------------


  ==> Localizing active orbitals <==
  ==> Pipek-Mezey Localizer <==

    Convergence =   1.000E-12
    Maxiter     =        1000

    Iteration                   Metric       Residual
    @PM    0   1.0574597223523818E+00              -
    @PM    1   4.8820673619520267E+00   3.616788E+00
    @PM    2   4.9436766333332516E+00   1.261950E-02
    @PM    3   4.9438175566860432E+00   2.850578E-05
    @PM    4   4.9438175713061181E+00   2.957244E-09
    @PM    5   4.9438175714111221E+00   2.123946E-11
    @PM    6   4.9438175714112651E+00   2.892435E-14

    PM Localizer converged.

    Molecular point group: c1
    Full point group: C2h

    Geometry (in Angstrom), charge = 0, multiplicity = 1:

       Center              X                  Y                   Z               Mass       
    ------------   -----------------  -----------------  -----------------  -----------------
           H          1.080977000000    -2.558832000000     0.000000000000     1.007825032070
           H         -1.080977000000     2.558832000000     0.000000000000     1.007825032070
           H          2.103773000000    -1.017723000000     0.000000000000     1.007825032070
           H         -2.103773000000     1.017723000000     0.000000000000     1.007825032070
           H         -0.973565000000    -1.219040000000     0.000000000000     1.007825032070
           H          0.973565000000     1.219040000000     0.000000000000     1.007825032070
           C          0.000000000000     0.728881000000     0.000000000000    12.000000000000
           C          0.000000000000    -0.728881000000     0.000000000000    12.000000000000
           C          1.117962000000    -1.474815000000     0.000000000000    12.000000000000
           C         -1.117962000000     1.474815000000     0.000000000000    12.000000000000

  -AO BASIS SET INFORMATION:
    Name                   = DEF2-SVP
    Blend                  = DEF2-SVP
    Total number of shells = 42
    Number of primitives   = 78
    Number of AO           = 90
    Number of SO           = 86
    Maximum AM             = 2
    Spherical Harmonics    = TRUE

  -Contraction Scheme:
    Atom   Type   All Primitives // Shells:
   ------ ------ --------------------------
       1     H     4s 1p // 2s 1p 
       2     H     4s 1p // 2s 1p 
       3     H     4s 1p // 2s 1p 
       4     H     4s 1p // 2s 1p 
       5     H     4s 1p // 2s 1p 
       6     H     4s 1p // 2s 1p 
       7     C     7s 4p 1d // 3s 2p 1d 
       8     C     7s 4p 1d // 3s 2p 1d 
       9     C     7s 4p 1d // 3s 2p 1d 
      10     C     7s 4p 1d // 3s 2p 1d 

  ==> AO Basis Functions <==

    [ DEF2-SVP ]
    spherical
    ****
    H   1
    S   3 1.00
                        13.01070100           0.01968216
                         1.96225720           0.13796524
                         0.44453796           0.47831935
    S   1 1.00
                         0.12194962           1.00000000
    P   1 1.00
                         0.80000000           1.00000000
    ****
    H   2
    S   3 1.00
                        13.01070100           0.01968216
                         1.96225720           0.13796524
                         0.44453796           0.47831935
    S   1 1.00
                         0.12194962           1.00000000
    P   1 1.00
                         0.80000000           1.00000000
    ****
    H   3
    S   3 1.00
                        13.01070100           0.01968216
                         1.96225720           0.13796524
                         0.44453796           0.47831935
    S   1 1.00
                         0.12194962           1.00000000
    P   1 1.00
                         0.80000000           1.00000000
    ****
    H   4
    S   3 1.00
                        13.01070100           0.01968216
                         1.96225720           0.13796524
                         0.44453796           0.47831935
    S   1 1.00
                         0.12194962           1.00000000
    P   1 1.00
                         0.80000000           1.00000000
    ****
    H   5
    S   3 1.00
                        13.01070100           0.01968216
                         1.96225720           0.13796524
                         0.44453796           0.47831935
    S   1 1.00
                         0.12194962           1.00000000
    P   1 1.00
                         0.80000000           1.00000000
    ****
    H   6
    S   3 1.00
                        13.01070100           0.01968216
                         1.96225720           0.13796524
                         0.44453796           0.47831935
    S   1 1.00
                         0.12194962           1.00000000
    P   1 1.00
                         0.80000000           1.00000000
    ****
    C   7
    S   5 1.00
                      1238.40169380           0.00545688
                       186.29004992           0.04063841
                        42.25117635           0.18025594
                        11.67655793           0.46315122
                         3.59305065           0.44087173
    S   1 1.00
                         0.40245147           1.00000000
    S   1 1.00
                         0.13090183           1.00000000
    P   3 1.00
                         9.46809706           0.03838787
                         2.01035451           0.21117025
                         0.54771005           0.51328172
    P   1 1.00
                         0.15268614           1.00000000
    D   1 1.00
                         0.80000000           1.00000000
    ****
    C   8
    S   5 1.00
                      1238.40169380           0.00545688
                       186.29004992           0.04063841
                        42.25117635           0.18025594
                        11.67655793           0.46315122
                         3.59305065           0.44087173
    S   1 1.00
                         0.40245147           1.00000000
    S   1 1.00
                         0.13090183           1.00000000
    P   3 1.00
                         9.46809706           0.03838787
                         2.01035451           0.21117025
                         0.54771005           0.51328172
    P   1 1.00
                         0.15268614           1.00000000
    D   1 1.00
                         0.80000000           1.00000000
    ****
    C   9
    S   5 1.00
                      1238.40169380           0.00545688
                       186.29004992           0.04063841
                        42.25117635           0.18025594
                        11.67655793           0.46315122
                         3.59305065           0.44087173
    S   1 1.00
                         0.40245147           1.00000000
    S   1 1.00
                         0.13090183           1.00000000
    P   3 1.00
                         9.46809706           0.03838787
                         2.01035451           0.21117025
                         0.54771005           0.51328172
    P   1 1.00
                         0.15268614           1.00000000
    D   1 1.00
                         0.80000000           1.00000000
    ****
    C  10
    S   5 1.00
                      1238.40169380           0.00545688
                       186.29004992           0.04063841
                        42.25117635           0.18025594
                        11.67655793           0.46315122
                         3.59305065           0.44087173
    S   1 1.00
                         0.40245147           1.00000000
    S   1 1.00
                         0.13090183           1.00000000
    P   3 1.00
                         9.46809706           0.03838787
                         2.01035451           0.21117025
                         0.54771005           0.51328172
    P   1 1.00
                         0.15268614           1.00000000
    D   1 1.00
                         0.80000000           1.00000000
    ****


 Integrals are about to be computed.	Presorting SO-basis two-electron integrals.
	Sorting File: SO Ints (nn|nn) nbuckets = 1
	Transforming the one-electron integrals and constructing Fock matrices
	Starting first half-transformation.
	Sorting half-transformed integrals.
	First half integral transformation complete.
	Starting second half-transformation.
	Two-electron integral transformation complete.

  Integral transformation done. 6.19768900 s
  Reading the two-electron integrals from disk
  Size of two-electron integrals:   1.222659 GB
 Integrals are about to be updated.  Using in-core PK algorithm.
   Calculation information:
      Number of atoms:                  10
      Number of AO shells:              42
      Number of primitives:             78
      Number of atomic orbitals:        90
      Number of basis functions:        86

      Integral cutoff                 1.00e-12
      Number of threads:                 1

  Performing in-core PK
  Using 13998822 doubles for integral storage.
  We computed 385288 shell quartets total.
  Whereas there are 408156 unique shell quartets.

  Frozen-core energy           -176.777110788204 a.u.

  FrozenOneBody Operator takes  2.69847800 s
  Resorting integrals after freezing core.
  Frozen Orbitals takes     5.598 s.
  Forming alpha and beta strings      ...  Done. Timing        0.000094 s
  Forming determinants                ...  Done. Timing        0.000035 s

  ==> Determinants Summary <==

    number of alpha active electrons    =     2
    number of beta active electrons     =     2
    root symmetry (zero based)          =     0
    number of determinants              =    36

  Diagonalizing Hamiltonian           ...
  Found 20 roots with 2S+1 = 1 *
  Found 15 roots with 2S+1 = 3
  Found 1 roots with 2S+1 = 5  Done. Timing        0.014290 s

  * * * * * * * * * * * * * * * * *
  *  CI Vectors & Configurations  *
  * * * * * * * * * * * * * * * * *

  ==> Root No. 0 <==

    baba         -0.3518159583
    abab         -0.3518159583
    baab         -0.2920325071
    abba         -0.2920325071
    02ab          0.2213329733
    02ba          0.2213329733
    ba20          0.2213329709
    ab20          0.2213329709
    ba02          0.2202758051
    ab02          0.2202758051
    20ba          0.2202758026
    20ab          0.2202758026
    0202         -0.1678261869
    2020         -0.1678261831
    0220         -0.1379776547
    2002         -0.1372330808
    2ba0         -0.1040256215
    2ab0         -0.1040256215
    0ba2         -0.1040256203
    0ab2         -0.1040256203
    a2b0          0.0710337152
    b2a0          0.0710337152
    0a2b          0.0710337138
    0b2a          0.0710337138
    2a0b          0.0633394283
    2b0a          0.0633394283
    b0a2          0.0633394269
    a0b2          0.0633394269
    aabb         -0.0597834512
    bbaa         -0.0597834512
    b20a         -0.0520806029
    a20b         -0.0520806029
    b02a         -0.0520806011
    a02b         -0.0520806011

    Total Energy:   -154.847006095790107


  ==> Root No. 1 <==

    aabb          0.4608161432
    bbaa          0.4608161432
    abba         -0.2928884581
    baab         -0.2928884581
    2ab0          0.2496735790
    2ba0          0.2496735790
    0ba2          0.2496735775
    0ab2          0.2496735775
    baba          0.1679276851
    abab          0.1679276851
    2b0a         -0.0898687286
    2a0b         -0.0898687286
    b0a2         -0.0898687280
    a0b2         -0.0898687280
    02ba          0.0728959516
    02ab          0.0728959516
    ab20          0.0728959509
    ba20          0.0728959509
    0220         -0.0683278318
    ab02          0.0610862677
    ba02          0.0610862677
    20ba          0.0610862669
    20ab          0.0610862669
    2002         -0.0570532253
    b2a0         -0.0543169916
    a2b0         -0.0543169916
    0b2a         -0.0543169910
    0a2b         -0.0543169910

    Total Energy:   -154.590268106961275


  ==> Root No. 2 <==

    0202         -0.3180428244
    2020          0.3180428228
    ba20         -0.2144785489
    ab20         -0.2144785489
    02ba          0.2144785466
    02ab          0.2144785466
    20ab         -0.1940459219
    20ba         -0.1940459219
    ab02          0.1940459197
    ba02          0.1940459197
    a20b         -0.1891677205
    b20a         -0.1891677205
    a02b          0.1891677181
    b02a          0.1891677181
    b2a0          0.1790644606
    a2b0          0.1790644606
    0a2b         -0.1790644604
    0b2a         -0.1790644604
    2b0a          0.1596261132
    2a0b          0.1596261132
    a0b2         -0.1596261130
    b0a2         -0.1596261130
    0ab2          0.1467022923
    0ba2          0.1467022923
    2ba0         -0.1467022902
    2ab0         -0.1467022902

    Total Energy:   -154.546370524472110


  ==> Root No. 3 <==

    2002          0.3452921484
    0220         -0.3290974742
    02ab          0.2846757240
    02ba          0.2846757240
    ab20          0.2846757235
    ba20          0.2846757235
    ba02         -0.2838414981
    ab02         -0.2838414981
    20ba         -0.2838414962
    20ab         -0.2838414962
    a2b0          0.1429105570
    b2a0          0.1429105570
    0a2b          0.1429105557
    0b2a          0.1429105557
    2a0b         -0.0709180948
    2b0a         -0.0709180948
    b0a2         -0.0709180931
    a0b2         -0.0709180931
    b20a         -0.0560385489
    a20b         -0.0560385489
    a02b         -0.0560385485
    b02a         -0.0560385485
    2020         -0.0501742736
    0202         -0.0501742732

    Total Energy:   -154.453714765391339


  ==> Root No. 4 <==

    a20b         -0.2922658207
    b20a         -0.2922658207
    b02a         -0.2922658193
    a02b         -0.2922658193
    abab          0.2625271846
    baba          0.2625271846
    2020         -0.2213025467
    0202         -0.2213025449
    b0a2          0.1955977695
    a0b2          0.1955977695
    2b0a          0.1955977687
    2a0b          0.1955977687
    0a2b          0.1885265360
    0b2a          0.1885265360
    a2b0          0.1885265347
    b2a0          0.1885265347
    aabb          0.1587898360
    bbaa          0.1587898360
    abba          0.1037373486
    baab          0.1037373486
    0220          0.0897159590
    2200         -0.0841094493
    0022         -0.0841094471
    2002         -0.0670476251
    20ba          0.0589681444
    20ab          0.0589681444
    ba02          0.0589681418
    ab02          0.0589681418

    Total Energy:   -154.380572075691987


  ==> Root No. 5 <==

    0ba2          0.3317621437
    0ab2          0.3317621437
    2ab0         -0.3317621428
    2ba0         -0.3317621428
    0202          0.2669401082
    2020         -0.2669401041
    2a0b          0.1994260985
    2b0a          0.1994260985
    a0b2         -0.1994260975
    b0a2         -0.1994260975
    ba20          0.1829444321
    ab20          0.1829444321
    02ab         -0.1829444316
    02ba         -0.1829444316
    20ab          0.1343638048
    20ba          0.1343638048
    ab02         -0.1343638047
    ba02         -0.1343638047
    b2a0          0.1051912148
    a2b0          0.1051912148
    0a2b         -0.1051912139
    0b2a         -0.1051912139

    Total Energy:   -154.367491280069743



  ==> Permanent Dipole Moments (A) <==

  Only print nonzero (> 1.0e-5) elements.


  ==> Transition Dipole Moments (A -> A) <==

  Only print nonzero (> 1.0e-5) elements.
  Transition dipole moments (a.u.) 0 -> 2:  X:  1.6290  Y: -1.6638  Z:  0.0000  Total:  2.3285
  Transition dipole moments (a.u.) 0 -> 5:  X: -1.0148  Y: -0.2110  Z: -0.0000  Total:  1.0365
  Transition dipole moments (a.u.) 1 -> 2:  X: -0.0255  Y:  0.6797  Z:  0.0000  Total:  0.6802
  Transition dipole moments (a.u.) 1 -> 5:  X: -0.5529  Y:  1.5571  Z:  0.0000  Total:  1.6523
  Transition dipole moments (a.u.) 2 -> 3:  X:  0.5209  Y: -0.6364  Z: -0.0000  Total:  0.8224
  Transition dipole moments (a.u.) 2 -> 4:  X:  2.1948  Y: -2.9538  Z: -0.0000  Total:  3.6799
  Transition dipole moments (a.u.) 3 -> 5:  X: -0.1903  Y:  0.1026  Z: -0.0000  Total:  0.2162
  Transition dipole moments (a.u.) 4 -> 5:  X:  0.1755  Y: -1.1414  Z: -0.0000  Total:  1.1549


  ==> Oscillator Strength (A -> A) <==

  Only print nonzero (> 1.0e-5) elements.
  Oscillator strength (a.u.) 0 -> 2:  X:  0.5319  Y:  0.5548  Z:  0.0000  Total:  1.0867
  Oscillator strength (a.u.) 0 -> 5:  X:  0.3292  Y:  0.0142  Z:  0.0000  Total:  0.3434
  Oscillator strength (a.u.) 1 -> 2:  X:  0.0000  Y:  0.0135  Z:  0.0000  Total:  0.0135
  Oscillator strength (a.u.) 1 -> 5:  X:  0.0454  Y:  0.3601  Z:  0.0000  Total:  0.4055
  Oscillator strength (a.u.) 2 -> 3:  X:  0.0168  Y:  0.0250  Z:  0.0000  Total:  0.0418
  Oscillator strength (a.u.) 2 -> 4:  X:  0.5324  Y:  0.9644  Z:  0.0000  Total:  1.4968
  Oscillator strength (a.u.) 3 -> 5:  X:  0.0021  Y:  0.0006  Z:  0.0000  Total:  0.0027
  Oscillator strength (a.u.) 4 -> 5:  X:  0.0003  Y:  0.0114  Z:  0.0000  Total:  0.0116

  Total Energy (averaged over 6 states): -154.530903808062760

  Computing 1-, 2- and 3-cumulants ... Done. Timing        0.028763 s


       -----------------------------------------------------------------
                            Semi-Canonical Orbitals
         Chenyang Li, Jeffrey B. Schriber and Francesco A. Evangelista
       -----------------------------------------------------------------

  Took 0.019598 s to build Fock matrix

  ==> Checking Fock Matrix Diagonal Blocks <==

    Off-Diag. Elements       Max           2-Norm
    ------------------------------------------------
    Fa actv              0.1929908390   0.4411615703
    Fb actv              0.1929908390   0.4411615703
    ------------------------------------------------
    Fa core              0.0120219971   0.0285393502
    Fb core              0.0120219971   0.0285393502
    ------------------------------------------------
    Fa virt              0.0103499035   0.0926399075
    Fb virt              0.0103499035   0.0926399075
    ------------------------------------------------

  ==> Integral Transformation to Semicanonical Basis <==
    Molecular point group: c1
    Full point group: C2h

    Geometry (in Angstrom), charge = 0, multiplicity = 1:

       Center              X                  Y                   Z               Mass       
    ------------   -----------------  -----------------  -----------------  -----------------
           H          1.080977000000    -2.558832000000     0.000000000000     1.007825032070
           H         -1.080977000000     2.558832000000     0.000000000000     1.007825032070
           H          2.103773000000    -1.017723000000     0.000000000000     1.007825032070
           H         -2.103773000000     1.017723000000     0.000000000000     1.007825032070
           H         -0.973565000000    -1.219040000000     0.000000000000     1.007825032070
           H          0.973565000000     1.219040000000     0.000000000000     1.007825032070
           C          0.000000000000     0.728881000000     0.000000000000    12.000000000000
           C          0.000000000000    -0.728881000000     0.000000000000    12.000000000000
           C          1.117962000000    -1.474815000000     0.000000000000    12.000000000000
           C         -1.117962000000     1.474815000000     0.000000000000    12.000000000000

  -AO BASIS SET INFORMATION:
    Name                   = DEF2-SVP
    Blend                  = DEF2-SVP
    Total number of shells = 42
    Number of primitives   = 78
    Number of AO           = 90
    Number of SO           = 86
    Maximum AM             = 2
    Spherical Harmonics    = TRUE

  -Contraction Scheme:
    Atom   Type   All Primitives // Shells:
   ------ ------ --------------------------
       1     H     4s 1p // 2s 1p 
       2     H     4s 1p // 2s 1p 
       3     H     4s 1p // 2s 1p 
       4     H     4s 1p // 2s 1p 
       5     H     4s 1p // 2s 1p 
       6     H     4s 1p // 2s 1p 
       7     C     7s 4p 1d // 3s 2p 1d 
       8     C     7s 4p 1d // 3s 2p 1d 
       9     C     7s 4p 1d // 3s 2p 1d 
      10     C     7s 4p 1d // 3s 2p 1d 

  ==> AO Basis Functions <==

    [ DEF2-SVP ]
    spherical
    ****
    H   1
    S   3 1.00
                        13.01070100           0.01968216
                         1.96225720           0.13796524
                         0.44453796           0.47831935
    S   1 1.00
                         0.12194962           1.00000000
    P   1 1.00
                         0.80000000           1.00000000
    ****
    H   2
    S   3 1.00
                        13.01070100           0.01968216
                         1.96225720           0.13796524
                         0.44453796           0.47831935
    S   1 1.00
                         0.12194962           1.00000000
    P   1 1.00
                         0.80000000           1.00000000
    ****
    H   3
    S   3 1.00
                        13.01070100           0.01968216
                         1.96225720           0.13796524
                         0.44453796           0.47831935
    S   1 1.00
                         0.12194962           1.00000000
    P   1 1.00
                         0.80000000           1.00000000
    ****
    H   4
    S   3 1.00
                        13.01070100           0.01968216
                         1.96225720           0.13796524
                         0.44453796           0.47831935
    S   1 1.00
                         0.12194962           1.00000000
    P   1 1.00
                         0.80000000           1.00000000
    ****
    H   5
    S   3 1.00
                        13.01070100           0.01968216
                         1.96225720           0.13796524
                         0.44453796           0.47831935
    S   1 1.00
                         0.12194962           1.00000000
    P   1 1.00
                         0.80000000           1.00000000
    ****
    H   6
    S   3 1.00
                        13.01070100           0.01968216
                         1.96225720           0.13796524
                         0.44453796           0.47831935
    S   1 1.00
                         0.12194962           1.00000000
    P   1 1.00
                         0.80000000           1.00000000
    ****
    C   7
    S   5 1.00
                      1238.40169380           0.00545688
                       186.29004992           0.04063841
                        42.25117635           0.18025594
                        11.67655793           0.46315122
                         3.59305065           0.44087173
    S   1 1.00
                         0.40245147           1.00000000
    S   1 1.00
                         0.13090183           1.00000000
    P   3 1.00
                         9.46809706           0.03838787
                         2.01035451           0.21117025
                         0.54771005           0.51328172
    P   1 1.00
                         0.15268614           1.00000000
    D   1 1.00
                         0.80000000           1.00000000
    ****
    C   8
    S   5 1.00
                      1238.40169380           0.00545688
                       186.29004992           0.04063841
                        42.25117635           0.18025594
                        11.67655793           0.46315122
                         3.59305065           0.44087173
    S   1 1.00
                         0.40245147           1.00000000
    S   1 1.00
                         0.13090183           1.00000000
    P   3 1.00
                         9.46809706           0.03838787
                         2.01035451           0.21117025
                         0.54771005           0.51328172
    P   1 1.00
                         0.15268614           1.00000000
    D   1 1.00
                         0.80000000           1.00000000
    ****
    C   9
    S   5 1.00
                      1238.40169380           0.00545688
                       186.29004992           0.04063841
                        42.25117635           0.18025594
                        11.67655793           0.46315122
                         3.59305065           0.44087173
    S   1 1.00
                         0.40245147           1.00000000
    S   1 1.00
                         0.13090183           1.00000000
    P   3 1.00
                         9.46809706           0.03838787
                         2.01035451           0.21117025
                         0.54771005           0.51328172
    P   1 1.00
                         0.15268614           1.00000000
    D   1 1.00
                         0.80000000           1.00000000
    ****
    C  10
    S   5 1.00
                      1238.40169380           0.00545688
                       186.29004992           0.04063841
                        42.25117635           0.18025594
                        11.67655793           0.46315122
                         3.59305065           0.44087173
    S   1 1.00
                         0.40245147           1.00000000
    S   1 1.00
                         0.13090183           1.00000000
    P   3 1.00
                         9.46809706           0.03838787
                         2.01035451           0.21117025
                         0.54771005           0.51328172
    P   1 1.00
                         0.15268614           1.00000000
    D   1 1.00
                         0.80000000           1.00000000
    ****


 Integrals are about to be computed.	Presorting SO-basis two-electron integrals.
	Sorting File: SO Ints (nn|nn) nbuckets = 1
	Transforming the one-electron integrals and constructing Fock matrices
	Starting first half-transformation.
	Sorting half-transformed integrals.
	First half integral transformation complete.
	Starting second half-transformation.
	Two-electron integral transformation complete.

  Integral transformation done. 6.09953400 s
  Reading the two-electron integrals from disk
  Size of two-electron integrals:   1.222659 GB
 Integrals are about to be updated.  Using in-core PK algorithm.
   Calculation information:
      Number of atoms:                  10
      Number of AO shells:              42
      Number of primitives:             78
      Number of atomic orbitals:        90
      Number of basis functions:        86

      Integral cutoff                 1.00e-12
      Number of threads:                 1

  Performing in-core PK
  Using 13998822 doubles for integral storage.
  We computed 385288 shell quartets total.
  Whereas there are 408156 unique shell quartets.

  Frozen-core energy           -176.777110788204 a.u.

  FrozenOneBody Operator takes  2.64729100 s
  Resorting integrals after freezing core.
  Frozen Orbitals takes     5.482 s.

  ==> Reference Transformation to Semicanonical Basis <==

    Transformed 1 cumulants.
    Transformed 2 cumulants and RDMs.
    Transformed 3 cumulants.
  SemiCanonicalize takes 22.585991 s.

  ==> Multireference Driven Similarity Renormalization Group <==

    Reading DSRG options ............................ Done
    Setting ambit MO space .......................... Done
    Preparing tensors for density cumulants ......... Done
    Building Fock matrix ............................ Done
    Preparing ambit tensors for dipole moments ...... Done
    Checking reference energy ....................... Done

              ----------------------------------------------------
                    MR-DSRG Second-Order Perturbation Theory
                Chenyang Li, Kevin Hannon, Francesco Evangelista
              ----------------------------------------------------

    References:
      u-DSRG-MRPT2:    J. Chem. Theory Comput. 2015, 11, 2097.
      (pr-)DSRG-MRPT2: J. Chem. Phys. 2017, 146, 124132.

  ==> Calculation Information <==

    ntamp                                                 15
    flow parameter                                 5.000e-01
    taylor expansion threshold                     1.000e-03
    intruder_tamp                                  1.000e-01
    int_type                                    CONVENTIONAL
    source operator                                 STANDARD
    reference relaxation                                NONE
    state_type                                   MULTI-STATE
    multi-state type                                 SA_FULL
    form Hbar3                                         FALSE

  ==> Checking Semicanonical Orbitals <==

    Abs. max of Fock core, active, virtual blocks (Fij, i != j)
                  core          active         virtual
    --------------------------------------------------
    F    0.0000000000    0.0000000000    0.0000000000
    F    0.0000000000    0.0000000000    0.0000000000
    --------------------------------------------------

    1-Norm of Fock core, active, virtual blocks (Fij, i != j)
                  core          active         virtual
    --------------------------------------------------
    F    0.0000000000    0.0000000000    0.0000000000
    F    0.0000000000    0.0000000000    0.0000000000
    --------------------------------------------------

    Orbitals are semi-canonicalized.

  ==> Computing DSRG-MRPT2 ... <==

    Computing T2 amplitudes                  ...  Done. Timing        0.615074 s
    Computing T1 amplitudes                  ...  Done. Timing        0.005357 s
    Renormalizing two-electron integrals     ...  Done. Timing        0.559077 s
    Renormalizing Fock matrix elements       ...  Done. Timing        0.005526 s
    Computing <[F, T1]>                      ...  Done. Timing        0.001752 s
    Computing <[F, T2]>                      ...  Done. Timing        0.009166 s
    Computing <[V, T1]>                      ...  Done. Timing        0.004849 s
    Computing <[V, T2]> (C_2)^4              ...  Done. Timing        0.092181 s
    Computing <[V, T2]> C_4 (C_2)^2 HH       ...  Done. Timing        0.005479 s
    Computing <[V, T2]> C_4 (C_2)^2 PP       ...  Done. Timing        0.007806 s
    Computing <[V, T2]> C_4 (C_2)^2 PH       ...  Done. Timing        0.033281 s
    Computing <[V, T2]> C_6 C_2              ...  Done. Timing        0.014727 s

  ==> Excitation Amplitudes Summary <==

    Active Indices:    9   10   11   12 
    Largest T1 amplitudes for spin case A:
       i       a                  i       a                  i       a               
    --------------------------------------------------------------------------------
    [ 11      31    ]-0.005339 [  1      23    ]-0.004441 [ 12      30    ]-0.004134 
    [  0      22    ]-0.003883 [  6      22    ]-0.003324 [  7      37    ] 0.003301 
    [  5      34    ]-0.003098 [  4      19    ] 0.002861 [ 12      28    ]-0.002771 
    [  1      25    ] 0.002762 [  9      48    ]-0.002745 [  6      24    ] 0.002678 
    [  8      34    ]-0.002633 [ 10      46    ]-0.002630 [ 11      71    ] 0.002542 
    --------------------------------------------------------------------------------
    Norm of T1A vector: (nonzero elements: 710)                   0.019098673506089.
    --------------------------------------------------------------------------------
    Largest T1 amplitudes for spin case B:
       _       _                  _       _                  _       _               
       i       a                  i       a                  i       a               
    --------------------------------------------------------------------------------
    [ 11      31    ]-0.005339 [  1      23    ]-0.004441 [ 12      30    ]-0.004134 
    [  0      22    ]-0.003883 [  6      22    ]-0.003324 [  7      37    ] 0.003301 
    [  5      34    ]-0.003098 [  4      19    ] 0.002861 [ 12      28    ]-0.002771 
    [  1      25    ] 0.002762 [  9      48    ]-0.002745 [  6      24    ] 0.002678 
    [  8      34    ]-0.002633 [ 10      46    ]-0.002630 [ 11      71    ] 0.002542 
    --------------------------------------------------------------------------------
    Norm of T1B vector: (nonzero elements: 710)                   0.019098673506089.
    --------------------------------------------------------------------------------
    Largest T2 amplitudes for spin case AA:
       i   j   a   b              i   j   a   b              i   j   a   b           
    --------------------------------------------------------------------------------
    [  0   9   9  22]-0.019158 [ 11  12  12  48]-0.017872 [  6   9  10  23]-0.016437 
    [ 10  12  11  48] 0.014073 [  6  10   9  23]-0.013993 [  7  10  10  37] 0.013677 
    [  1   9  10  22]-0.013641 [  6   9  11  39]-0.013303 [  3   9   9  32]-0.012494 
    [  7   9   9  18] 0.012420 [  6  11   9  39]-0.012290 [ 10  11  12  48] 0.012219 
    [  9  12  10  48]-0.012212 [  7   9   9  37] 0.011937 [  0  10  10  22]-0.011917 
    --------------------------------------------------------------------------------
    Norm of T2AA vector: (nonzero elements: 561644)               0.468612826918108.
    --------------------------------------------------------------------------------
    Largest T2 amplitudes for spin case AB:
           _       _                  _       _                  _       _           
       i   j   a   b              i   j   a   b              i   j   a   b           
    --------------------------------------------------------------------------------
    [  0   0   9   9]-0.020662 [ 12  12  30  30]-0.020191 [ 10  10  10  28]-0.019080 
    [  9   9   9  26]-0.018988 [  9  11   9  31] 0.018625 [  9  12   9  30] 0.018477 
    [ 10  10  28  28]-0.018449 [ 10  11  10  31] 0.018305 [  1   1  10  10]-0.018051 
    [ 11  11  31  31]-0.016524 [  0   1   9  10]-0.016254 [ 11  11  28  28]-0.015956 
    [ 11  11  11  31] 0.015500 [  9  12  26  30] 0.015382 [  9  10  10  26]-0.014667 
    --------------------------------------------------------------------------------
    Norm of T2AB vector: (nonzero elements: 632073)               0.502912637315685.
    --------------------------------------------------------------------------------
    Largest T2 amplitudes for spin case BB:
       _   _   _   _              _   _   _   _              _   _   _   _           
       i   j   a   b              i   j   a   b              i   j   a   b           
    --------------------------------------------------------------------------------
    [  0   9   9  22]-0.019158 [ 11  12  12  48]-0.017872 [  6   9  10  23]-0.016437 
    [ 10  12  11  48] 0.014073 [  6  10   9  23]-0.013993 [  7  10  10  37] 0.013677 
    [  1   9  10  22]-0.013641 [  6   9  11  39]-0.013303 [  3   9   9  32]-0.012494 
    [  7   9   9  18] 0.012420 [  6  11   9  39]-0.012290 [ 10  11  12  48] 0.012219 
    [  9  12  10  48]-0.012212 [  7   9   9  37] 0.011937 [  0  10  10  22]-0.011917 
    --------------------------------------------------------------------------------
    Norm of T2BB vector: (nonzero elements: 561644)               0.468612826918107.
    --------------------------------------------------------------------------------

  ==> Possible Intruders <==

    T1 amplitudes larger than 0.1000 for spin case A: NULL
    T1 amplitudes larger than 0.1000 for spin case B: NULL
    T2 amplitudes larger than 0.1000 for spin case AA: NULL
    T2 amplitudes larger than 0.1000 for spin case AB: NULL
    T2 amplitudes larger than 0.1000 for spin case BB: NULL

  ==> DSRG-MRPT2 Energy Summary <==

    E0 (reference)                 =   -154.530903808062760
    <[F, T1]>                      =     -0.001998487769245
    <[F, T2]>                      =     -0.000222244042906
    <[V, T1]>                      =     -0.000123854602820
    <[V, T2]> (C_2)^4              =     -0.557532912698537
    <[V, T2]> C_4 (C_2)^2 HH       =      0.000554725712039
    <[V, T2]> C_4 (C_2)^2 PP       =      0.004245862021500
    <[V, T2]> C_4 (C_2)^2 PH       =      0.019961714753282
    <[V, T2]> C_6 C_2              =     -0.000012524303882
    <[V, T2]>                      =     -0.532783134515597
    DSRG-MRPT2 correlation energy  =     -0.535127720930569
    DSRG-MRPT2 total energy        =   -155.066031528993335
    max(T1)                        =      0.005338597307484
    max(T2)                        =      0.020661983335761
    ||T1||                         =      0.027009603095647
    ||T2||                         =      1.204524987782168

  Energy took      3.145 s


  ==> Transforming Dipole Integrals ...  <==

    Computing direction X          ...  Done. Timing        1.714729 s
    Computing direction Y          ...  Done. Timing        1.742664 s
    Computing direction Z          ...  Done. Timing        1.725778 s

  ==> DSRG-MRPT2 (unrelaxed) Dipole Moments (a.u.) <==

    Nuclear dipole moment:
      X:   0.000000  Y:   0.000000  Z:   0.000000

    Reference electronic dipole moment:
      X:   0.000000  Y:  -0.000000  Z:  -0.000000

    DSRG-MRPT2 electronic dipole moment:
      X:   0.000000  Y:  -0.000000  Z:  -0.000000

    Reference dipole moment:
      X:   0.000000  Y:  -0.000000  Z:  -0.000000  Total:   0.000000

    DSRG-MRPT2 dipole moment:
      X:   0.000000  Y:  -0.000000  Z:  -0.000000  Total:   0.000000


  ==> De-Normal-Order DSRG Transformed Hamiltonian <==

    Computing the scalar term                ... Done. Timing    0.002 s
    Computing the 1-body term                ... Done. Timing    0.001 s

  ==> Rotate DSRG Transformed Hamiltonian back to Original Basis <==

    Rotating 1-body term to original basis   ... Done. Timing    0.001 s
    Rotating 2-body term to original basis   ... Done. Timing    0.018 s

              ---------------------------------------------------
                Complete Active Space Configuration Interaction
                                  Chenyang Li
              ---------------------------------------------------


  ==> Input Summary <==

    No. a electrons in active      =     2
    No. b electrons in active      =     2
    multiplicity                   =     1
    spin ms (2 * Sz)               =     0

  ==> Orbital Spaces <==

    TOTAL MO                      [   86 ]
    FROZEN CORE                   [    4 ]
    FROZEN VIRTUAL                [    0 ]
    CORRELATED MO                 [   82 ]
    CORE                          [    9 ]
    ACTIVE                        [    4 ]
    VIRTUAL                       [   69 ]

  ==> State Averaging Summary <==

    Irrep.  Multi.  Nstates                              Weights
    ------------------------------------------------------------
       A       1        6    0.167 0.167 0.167 0.167 0.167 0.167
    ------------------------------------------------------------
    Total number of states: 6
    ------------------------------------------------------------

  Forming alpha and beta strings      ...  Done. Timing        0.000048 s
  Forming determinants                ...  Done. Timing        0.000025 s

  ==> Determinants Summary <==

    number of alpha active electrons    =     2
    number of beta active electrons     =     2
    root symmetry (zero based)          =     0
    number of determinants              =    36

  Diagonalizing Hamiltonian           ...
  Found 20 roots with 2S+1 = 1 *
  Found 15 roots with 2S+1 = 3
  Found 1 roots with 2S+1 = 5  Done. Timing        0.016484 s

  * * * * * * * * * * * * * * * * *
  *  CI Vectors & Configurations  *
  * * * * * * * * * * * * * * * * *

  ==> Root No. 0 <==

    baba         -0.3322937595
    abab         -0.3322937595
    baab         -0.2762988306
    abba         -0.2762988306
    ab02          0.2260292446
    ba02          0.2260292446
    20ab          0.2260292423
    20ba          0.2260292423
    02ab          0.2239541099
    02ba          0.2239541099
    ba20          0.2239541075
    ab20          0.2239541075
    0202         -0.1814399569
    2020         -0.1814399532
    2002         -0.1556787203
    0220         -0.1509630402
    2ba0         -0.1062060040
    2ab0         -0.1062060040
    0ba2         -0.1062060029
    0ab2         -0.1062060029
    a2b0          0.0761925458
    b2a0          0.0761925458
    0a2b          0.0761925444
    0b2a          0.0761925444
    2a0b          0.0702871746
    2b0a          0.0702871746
    b0a2          0.0702871732
    a0b2          0.0702871732
    b20a         -0.0592201365
    a20b         -0.0592201365
    b02a         -0.0592201347
    a02b         -0.0592201347
    aabb         -0.0559949289
    bbaa         -0.0559949289

    Total Energy:   -155.350467801039827


  ==> Root No. 1 <==

    0202         -0.3198421018
    2020          0.3198421003
    ba20         -0.2018056771
    ab20         -0.2018056771
    02ba          0.2018056747
    02ab          0.2018056747
    a20b         -0.1985617714
    b20a         -0.1985617714
    a02b          0.1985617690
    b02a          0.1985617690
    20ab         -0.1886593888
    20ba         -0.1886593888
    ab02          0.1886593866
    ba02          0.1886593866
    a2b0          0.1795347853
    b2a0          0.1795347853
    0a2b         -0.1795347852
    0b2a         -0.1795347852
    2a0b          0.1670843113
    2b0a          0.1670843113
    a0b2         -0.1670843112
    b0a2         -0.1670843112
    0ab2          0.1466975657
    0ba2          0.1466975657
    2ab0         -0.1466975636
    2ba0         -0.1466975636
    2200         -0.0535865965
    0022          0.0535865946

    Total Energy:   -155.096341308208878


  ==> Root No. 2 <==

    aabb         -0.4213474383
    bbaa         -0.4213474383
    2ab0         -0.2754520645
    2ba0         -0.2754520645
    0ab2         -0.2754520634
    0ba2         -0.2754520634
    baab          0.2706615680
    abba          0.2706615680
    abab         -0.1506858703
    baba         -0.1506858703
    2b0a          0.1141042021
    2a0b          0.1141042021
    b0a2          0.1141042015
    a0b2          0.1141042015
    0220          0.1019576686
    02ba         -0.0922410644
    02ab         -0.0922410644
    ab20         -0.0922410636
    ba20         -0.0922410636
    b2a0          0.0704318270
    a2b0          0.0704318270
    0b2a          0.0704318264
    0a2b          0.0704318264
    2002          0.0605223008
    0202          0.0574968756
    2020          0.0574968749
    ab02         -0.0572644792
    ba02         -0.0572644792
    20ab         -0.0572644784
    20ba         -0.0572644784

    Total Energy:   -155.094274390221642


  ==> Root No. 3 <==

    2002         -0.3849765248
    0220          0.3534367770
    ba02          0.2839541458
    ab02          0.2839541458
    20ab          0.2839541441
    20ba          0.2839541441
    02ab         -0.2754131489
    02ba         -0.2754131489
    ab20         -0.2754131479
    ba20         -0.2754131479
    b2a0         -0.1270930933
    a2b0         -0.1270930933
    0a2b         -0.1270930919
    0b2a         -0.1270930919
    2a0b          0.0832504807
    2b0a          0.0832504807
    b0a2          0.0832504792
    a0b2          0.0832504792

    Total Energy:   -155.004913442699944


  ==> Root No. 4 <==

    a20b         -0.3081757889
    b20a         -0.3081757889
    b02a         -0.3081757877
    a02b         -0.3081757877
    abab          0.2684061194
    baba          0.2684061194
    2020         -0.2285674159
    0202         -0.2285674137
    0a2b          0.1850269560
    0b2a          0.1850269560
    a2b0          0.1850269545
    b2a0          0.1850269545
    b0a2          0.1746538477
    a0b2          0.1746538477
    2b0a          0.1746538465
    2a0b          0.1746538465
    aabb          0.1737092889
    bbaa          0.1737092889
    2200         -0.1100932763
    0022         -0.1100932742
    abba          0.0946968305
    baab          0.0946968305
    0220          0.0702925429

    Total Energy:   -154.938783421140670


  ==> Root No. 5 <==

    0ba2         -0.3234226061
    0ab2         -0.3234226061
    2ab0          0.3234226052
    2ba0          0.3234226052
    0202         -0.2870728067
    2020          0.2870728026
    2a0b         -0.1843330803
    2b0a         -0.1843330803
    b0a2          0.1843330793
    a0b2          0.1843330793
    ba20         -0.1729608446
    ab20         -0.1729608446
    02ab          0.1729608440
    02ba          0.1729608440
    20ab         -0.1515348050
    20ba         -0.1515348050
    ab02          0.1515348047
    ba02          0.1515348047
    b2a0         -0.1240157922
    a2b0         -0.1240157922
    0a2b          0.1240157914
    0b2a          0.1240157914

    Total Energy:   -154.918541240150432



  ==> Permanent Dipole Moments (A) <==

  Only print nonzero (> 1.0e-5) elements.
  Permanent dipole moments (a.u.) 0 -> 0:  X: -3.9776  Y:  8.1607  Z:  0.0000  Total:  9.0785
  Permanent dipole moments (a.u.) 1 -> 1:  X:  0.2796  Y:  2.7036  Z:  0.0000  Total:  2.7180
  Permanent dipole moments (a.u.) 2 -> 2:  X:  0.1409  Y:  1.7863  Z:  0.0000  Total:  1.7918
  Permanent dipole moments (a.u.) 3 -> 3:  X: -2.0012  Y:  4.1213  Z:  0.0000  Total:  4.5815
  Permanent dipole moments (a.u.) 4 -> 4:  X:  1.4739  Y:  0.1758  Z:  0.0000  Total:  1.4843
  Permanent dipole moments (a.u.) 5 -> 5:  X: -3.8782  Y:  5.0375  Z:  0.0000  Total:  6.3574


  ==> Transition Dipole Moments (A -> A) <==

  Only print nonzero (> 1.0e-5) elements.
  Transition dipole moments (a.u.) 0 -> 1:  X:  0.0001  Y: -0.0002  Z: -0.0000  Total:  0.0003
  Transition dipole moments (a.u.) 0 -> 2:  X:  0.6402  Y: -0.4578  Z: -0.0000  Total:  0.7871
  Transition dipole moments (a.u.) 0 -> 3:  X:  0.0454  Y: -0.1131  Z:  0.0000  Total:  0.1219
  Transition dipole moments (a.u.) 0 -> 4:  X: -0.9898  Y:  1.6037  Z:  0.0000  Total:  1.8845
  Transition dipole moments (a.u.) 0 -> 5:  X:  0.0002  Y: -0.0003  Z: -0.0000  Total:  0.0004
  Transition dipole moments (a.u.) 1 -> 2:  X:  0.0006  Y: -0.0009  Z: -0.0000  Total:  0.0011
  Transition dipole moments (a.u.) 1 -> 3:  X:  0.0087  Y: -0.0128  Z: -0.0000  Total:  0.0155
  Transition dipole moments (a.u.) 1 -> 4:  X:  0.0006  Y: -0.0008  Z: -0.0000  Total:  0.0010
  Transition dipole moments (a.u.) 1 -> 5:  X: -0.0821  Y:  0.1665  Z: -0.0000  Total:  0.1856
  Transition dipole moments (a.u.) 2 -> 3:  X:  0.0791  Y: -0.0630  Z: -0.0000  Total:  0.1011
  Transition dipole moments (a.u.) 2 -> 4:  X: -2.6586  Y:  2.8849  Z:  0.0000  Total:  3.9231
  Transition dipole moments (a.u.) 2 -> 5:  X:  0.0011  Y: -0.0016  Z: -0.0000  Total:  0.0020
  Transition dipole moments (a.u.) 3 -> 4:  X: -0.1369  Y:  0.1490  Z:  0.0000  Total:  0.2024
  Transition dipole moments (a.u.) 3 -> 5:  X:  0.0089  Y: -0.0130  Z: -0.0000  Total:  0.0158
  Transition dipole moments (a.u.) 4 -> 5:  X: -0.0001  Y:  0.0002  Z:  0.0000  Total:  0.0002


  ==> Oscillator Strength (A -> A) <==

  Only print nonzero (> 1.0e-5) elements.
  Oscillator strength (a.u.) 0 -> 2:  X:  0.0700  Y:  0.0358  Z:  0.0000  Total:  0.1058
  Oscillator strength (a.u.) 0 -> 3:  X:  0.0005  Y:  0.0029  Z:  0.0000  Total:  0.0034
  Oscillator strength (a.u.) 0 -> 4:  X:  0.2689  Y:  0.7058  Z:  0.0000  Total:  0.9747
  Oscillator strength (a.u.) 1 -> 3:  X:  0.0000  Y:  0.0000  Z:  0.0000  Total:  0.0000
  Oscillator strength (a.u.) 1 -> 5:  X:  0.0008  Y:  0.0033  Z:  0.0000  Total:  0.0041
  Oscillator strength (a.u.) 2 -> 3:  X:  0.0004  Y:  0.0002  Z:  0.0000  Total:  0.0006
  Oscillator strength (a.u.) 2 -> 4:  X:  0.7327  Y:  0.8627  Z:  0.0000  Total:  1.5954
  Oscillator strength (a.u.) 3 -> 4:  X:  0.0008  Y:  0.0010  Z:  0.0000  Total:  0.0018
  Oscillator strength (a.u.) 3 -> 5:  X:  0.0000  Y:  0.0000  Z:  0.0000  Total:  0.0000

  Total Energy (averaged over 6 states): -155.067220267243556


  ==> De-Normal-Order DSRG Transformed Dipole X Integrals <==

    Computing the scalar term                ... Done. Timing    0.002 s
    Computing the 1-body term                ... Done. Timing    0.001 s

  ==> Rotate DSRG Transformed Dipole X Integrals back to Original Basis <==

    Rotating 1-body term to original basis   ... Done. Timing    0.001 s
    Rotating 2-body term to original basis   ... Done. Timing    0.017 s

  ==> De-Normal-Order DSRG Transformed Dipole Y Integrals <==

    Computing the scalar term                ... Done. Timing    0.002 s
    Computing the 1-body term                ... Done. Timing    0.001 s

  ==> Rotate DSRG Transformed Dipole Y Integrals back to Original Basis <==

    Rotating 1-body term to original basis   ... Done. Timing    0.001 s
    Rotating 2-body term to original basis   ... Done. Timing    0.017 s

  ==> De-Normal-Order DSRG Transformed Dipole Z Integrals <==

    Computing the scalar term                ... Done. Timing    0.002 s
    Computing the 1-body term                ... Done. Timing    0.001 s

  ==> Rotate DSRG Transformed Dipole Z Integrals back to Original Basis <==

    Rotating 1-body term to original basis   ... Done. Timing    0.001 s
    Rotating 2-body term to original basis   ... Done. Timing    0.017 s

  ==> SA-DSRG-PT2 Dipole Moment (in a.u.) Summary <==

             State           X           Y           Z
    --------------------------------------------------
       0 Singlet A    0.000000    0.000000    0.000000
       1 Singlet A    0.000000    0.000000    0.000000
       2 Singlet A    0.000000    0.000000    0.000000
       3 Singlet A    0.000000    0.000000    0.000000
       4 Singlet A    0.000000    0.000000    0.000000
       5 Singlet A    0.000000    0.000000    0.000000
    --------------------------------------------------

  ==> SA-DSRG-PT2 Oscillator Strength (in a.u.) Summary <==

                               State           X           Y           Z       Total
    --------------------------------------------------------------------------------
         0 Singlet A ->  1 Singlet A    0.429873    0.497589    0.000000    0.927462
         0 Singlet A ->  2 Singlet A    0.000000    0.000000    0.000000    0.000000
         0 Singlet A ->  3 Singlet A    0.000000    0.000000    0.000000    0.000000
         0 Singlet A ->  4 Singlet A    0.000000    0.000000    0.000000    0.000000
         0 Singlet A ->  5 Singlet A    0.275613    0.006176    0.000000    0.281789
         1 Singlet A ->  2 Singlet A    0.000022    0.000970    0.000000    0.000991
         1 Singlet A ->  3 Singlet A    0.004418    0.007707    0.000000    0.012125
         1 Singlet A ->  4 Singlet A    0.476192    0.846542    0.000000    1.322734
         1 Singlet A ->  5 Singlet A    0.000000    0.000000    0.000000    0.000000
         2 Singlet A ->  3 Singlet A    0.000000    0.000000    0.000000    0.000000
         2 Singlet A ->  4 Singlet A    0.000000    0.000000    0.000000    0.000000
         2 Singlet A ->  5 Singlet A    0.053036    0.331367    0.000000    0.384403
         3 Singlet A ->  4 Singlet A    0.000000    0.000000    0.000000    0.000000
         3 Singlet A ->  5 Singlet A    0.000273    0.000001    0.000000    0.000274
         4 Singlet A ->  5 Singlet A    0.000353    0.009128    0.000000    0.009481
    --------------------------------------------------------------------------------

  ==> Multi-State DSRG-MRPT2 Energy Summary <==

    Multi.  Irrep.  No.    DSRG-MRPT2 Energy
    -----------------------------------------
       1       A     0      -155.350467801040
       1       A     1      -155.096341308209
       1       A     2      -155.094274390222
       1       A     3      -155.004913442700
       1       A     4      -154.938783421141
       1       A     5      -154.918541240150
    -----------------------------------------

  ==> Total Timings (s) for Computing Commutators <==

             [H1, T1]    [H1, T2]    [H2, T1]    [H2, T2]
    -----------------------------------------------------
    -> C0       0.013       0.034       0.016       0.642
    -> C1       0.026       0.491       0.033       0.710
    -> C2                   3.045       0.024       0.225
    -----------------------------------------------------
	abs. energy of singlet 0Ag........................................PASSED

Note the second CASCI does not print meaningful dipoles.
This is because the FCIIntegrals are in LOCALIZED basis but ForteIntegrals are in SEMI-CANONICAL basis.
*** Psi4 exiting successfully. Buy a developer a beer!
