
    -----------------------------------------------------------------------
          Psi4: An Open-Source Ab Initio Electronic Structure Package
                               Psi4 1.4a2.dev208 

                         Git: Rev {master} ba68f75 


    R. M. Parrish, L. A. Burns, D. G. A. Smith, A. C. Simmonett,
    A. E. DePrince III, E. G. Hohenstein, U. Bozkaya, A. Yu. Sokolov,
    R. Di Remigio, R. M. Richard, J. F. Gonthier, A. M. James,
    H. R. McAlexander, A. Kumar, M. Saitow, X. Wang, B. P. Pritchard,
    P. Verma, H. F. Schaefer III, K. Patkowski, R. A. King, E. F. Valeev,
    F. A. Evangelista, J. M. Turney, T. D. Crawford, and C. D. Sherrill,
    J. Chem. Theory Comput. 13(7) pp 3185--3197 (2017).
    (doi: 10.1021/acs.jctc.7b00174)


                         Additional Contributions by
    P. Kraus, H. Kruse, M. H. Lechner, M. C. Schieber, R. A. Shaw,
    A. Alenaizan, R. Galvelis, Z. L. Glick, S. Lehtola, and J. P. Misiewicz

    -----------------------------------------------------------------------


    Psi4 started on: Sunday, 02 February 2020 10:30PM

    Process ID: 5602
    Host:       DESKTOP-S9SKLLR
    PSIDATADIR: /home/henan/miniconda3/envs/forte_dev/share/psi4
    Memory:     500.0 MiB
    Threads:    1
    
  ==> Input File <==

--------------------------------------------------------------------------
import forte

refscf =   -115.6554016101969893
#refdsrgpt2 = -114.704305626419853
refdsrgpt2 = -115.7618648965 # New value, should be lower than SCF energy

molecule {
-1 1
C       -2.2314881720      2.3523969887      0.1565319638
C       -1.1287322054      1.6651786288     -0.1651010551
H       -3.2159664855      1.9109197306      0.0351701750
H       -2.1807424354      3.3645292222      0.5457999612
H       -1.2085033449      0.7043108616     -0.5330598833
--
1 1
C        0.2601218384      2.1970946692     -0.0290628762
H        0.7545456004      2.2023392001     -1.0052240245
H        0.8387453665      1.5599644558      0.6466877402
H        0.2749376338      3.2174213526      0.3670138598

     units angstrom
     no_reorient
     symmetry c1
}

set {
  basis                  sto-3g
  reference              rhf
  scf_type               pk
  maxiter                200
  e_convergence          10
  d_convergence          8
  docc                   [12]
  freeze_core            true
  frozen_docc            [3]
  frozen_uocc            [0]
}

E, wfn_cas = energy('scf', return_wfn = True)
compare_values(refscf,variable("CURRENT ENERGY"),8,"SCF energy")

set forte {
  embedding true
  embedding_reference hf # Only with CAS reference can we mix or fix ref! In HF reference, there is no active!
  embedding_cutoff_method threshold
  embedding_threshold 0.5
  restricted_docc        [8]
  active                 [2]
  active_space_solver  fci
  correlation_solver   dsrg-mrpt2
  root_sym           0
  nroot              1
  root               0
  d_convergence      10
  dsrg_s             0.5
}

energy('forte', ref_wfn = wfn_cas, return_wfn=True)
compare_values(refdsrgpt2,variable("CURRENT ENERGY"),8,"CASCI-PT2-in-RHF energy")
--------------------------------------------------------------------------

Scratch directory: /tmp/

*** tstart() called on DESKTOP-S9SKLLR
*** at Sun Feb  2 22:30:43 2020

   => Loading Basis Set <=

    Name: STO-3G
    Role: ORBITAL
    Keyword: BASIS
    atoms 1-2, 6   entry C          line    61 file /home/henan/miniconda3/envs/forte_dev/share/psi4/basis/sto-3g.gbs 
    atoms 3-5, 7-9 entry H          line    19 file /home/henan/miniconda3/envs/forte_dev/share/psi4/basis/sto-3g.gbs 


         ---------------------------------------------------------
                                   SCF
               by Justin Turney, Rob Parrish, Andy Simmonett
                          and Daniel G. A. Smith
                              RHF Reference
                        1 Threads,    500 MiB Core
         ---------------------------------------------------------

  ==> Geometry <==

    Molecular point group: c1
    Full point group: C1

    Geometry (in Angstrom), charge = 0, multiplicity = 1:

       Center              X                  Y                   Z               Mass       
    ------------   -----------------  -----------------  -----------------  -----------------
         C           -1.233193813196     0.268133177730     0.165920386580    12.000000000000
         C           -0.130437846596    -0.419085182170    -0.155712632320    12.000000000000
         H           -2.217672126696    -0.173344080370     0.044558597780     1.007825032230
         H           -1.182448076596     1.280265411230     0.555188383980     1.007825032230
         H           -0.210208986096    -1.379952949370    -0.523671460520     1.007825032230
         C            1.258416197204     0.112830858230    -0.019674453420    12.000000000000
         H            1.752839959204     0.118075389130    -0.995835601720     1.007825032230
         H            1.837039725304    -0.524299355170     0.656076162980     1.007825032230
         H            1.273231992604     1.133157541630     0.376402282580     1.007825032230

  Running in c1 symmetry.

  Rotational constants: A =      1.56009  B =      0.31287  C =      0.27405 [cm^-1]
  Rotational constants: A =  46770.33298  B =   9379.70512  C =   8215.88642 [MHz]
  Nuclear repulsion =   71.008600180797060

  Charge       = 0
  Multiplicity = 1
  Electrons    = 24
  Nalpha       = 12
  Nbeta        = 12

  ==> Algorithm <==

  SCF Algorithm Type is PK.
  DIIS enabled.
  MOM disabled.
  Fractional occupation disabled.
  Guess Type is SAD.
  Energy threshold   = 1.00e-10
  Density threshold  = 1.00e-08
  Integral threshold = 0.00e+00

  ==> Primary Basis <==

  Basis Set: STO-3G
    Blend: STO-3G
    Number of shells: 15
    Number of basis function: 21
    Number of Cartesian functions: 21
    Spherical Harmonics?: true
    Max angular momentum: 1

  ==> Pre-Iterations <==

   -------------------------------------------------------
    Irrep   Nso     Nmo     Nalpha   Nbeta   Ndocc  Nsocc
   -------------------------------------------------------
     A         21      21      12      12      12       0
   -------------------------------------------------------
    Total      21      21      12      12      12       0
   -------------------------------------------------------

  ==> Integral Setup <==

  Using in-core PK algorithm.
   Calculation information:
      Number of atoms:                   9
      Number of AO shells:              15
      Number of primitives:             45
      Number of atomic orbitals:        21
      Number of basis functions:        21

      Integral cutoff                 1.00e-12
      Number of threads:                 1

  Performing in-core PK
  Using 53592 doubles for integral storage.
  We computed 7138 shell quartets total.
  Whereas there are 7260 unique shell quartets.

  ==> DiskJK: Disk-Based J/K Matrices <==

    J tasked:                  Yes
    K tasked:                  Yes
    wK tasked:                  No
    Memory [MiB]:              375
    Schwarz Cutoff:          1E-12

    OpenMP threads:              1

  Minimum eigenvalue in the overlap matrix is 1.8692358914E-01.
  Using Symmetric Orthogonalization.

  SCF Guess: Superposition of Atomic Densities via on-the-fly atomic UHF.

  ==> Iterations <==

                        Total Energy        Delta E     RMS |[F,P]|

   @RHF iter SAD:  -113.01139725317702   -1.13011e+02   0.00000e+00 
   @RHF iter   1:  -115.64966521141420   -2.63827e+00   3.99282e-03 DIIS
   @RHF iter   2:  -115.65493387516406   -5.26866e-03   1.17375e-03 DIIS
   @RHF iter   3:  -115.65533750000218   -4.03625e-04   4.44958e-04 DIIS
   @RHF iter   4:  -115.65540021875624   -6.27188e-05   6.73684e-05 DIIS
   @RHF iter   5:  -115.65540151590308   -1.29715e-06   1.27858e-05 DIIS
   @RHF iter   6:  -115.65540159921353   -8.33105e-08   4.57726e-06 DIIS
   @RHF iter   7:  -115.65540160956560   -1.03521e-08   1.05250e-06 DIIS
   @RHF iter   8:  -115.65540161018525   -6.19650e-10   1.41832e-07 DIIS
   @RHF iter   9:  -115.65540161019689   -1.16387e-11   1.61174e-08 DIIS
   @RHF iter  10:  -115.65540161019689    0.00000e+00   1.32696e-09 DIIS
  Energy and wave function converged.


  ==> Post-Iterations <==

    Orbital Energies [Eh]
    ---------------------

    Doubly Occupied:                                                      

       1A    -11.043116     2A    -11.024001     3A    -11.007989  
       4A     -1.015095     5A     -0.885291     6A     -0.723153  
       7A     -0.598611     8A     -0.539541     9A     -0.538350  
      10A     -0.477729    11A     -0.450061    12A     -0.305267  

    Virtual:                                                              

      13A      0.319000    14A      0.628336    15A      0.678258  
      16A      0.696518    17A      0.722415    18A      0.735739  
      19A      0.765280    20A      0.962468    21A      1.021477  

    Final Occupation by Irrep:
              A 
    DOCC [    12 ]

  @RHF Final Energy:  -115.65540161019689

   => Energetics <=

    Nuclear Repulsion Energy =             71.0086001807970604
    One-Electron Energy =                -296.1115980454635519
    Two-Electron Energy =                 109.4475962544696017
    Total Energy =                       -115.6554016101968898

Computation Completed


Properties will be evaluated at   0.000000,   0.000000,   0.000000 [a0]

Properties computed using the SCF density matrix

  Nuclear Dipole Moment: [e a0]
     X:     1.1744      Y:     0.4255      Z:     0.1057

  Electronic Dipole Moment: [e a0]
     X:    -1.0872      Y:    -0.4474      Z:    -0.1186

  Dipole Moment: [e a0]
     X:     0.0872      Y:    -0.0219      Z:    -0.0129     Total:     0.0909

  Dipole Moment: [D]
     X:     0.2217      Y:    -0.0557      Z:    -0.0328     Total:     0.2309


*** tstop() called on DESKTOP-S9SKLLR at Sun Feb  2 22:30:44 2020
Module time:
	user time   =       0.89 seconds =       0.01 minutes
	system time =       0.09 seconds =       0.00 minutes
	total time  =          1 seconds =       0.02 minutes
Total time:
	user time   =       0.89 seconds =       0.01 minutes
	system time =       0.09 seconds =       0.00 minutes
	total time  =          1 seconds =       0.02 minutes
    SCF energy........................................................PASSED

Scratch directory: /tmp/
   => Loading Basis Set <=

    Name: STO-3G
    Role: ORBITAL
    Keyword: MINAO_BASIS
    atoms 1-2, 6   entry C          line    61 file /home/henan/miniconda3/envs/forte_dev/share/psi4/basis/sto-3g.gbs 
    atoms 3-5, 7-9 entry H          line    19 file /home/henan/miniconda3/envs/forte_dev/share/psi4/basis/sto-3g.gbs 


  Forte
  ----------------------------------------------------------------------------
  A suite of quantum chemistry methods for strongly correlated electrons

    git branch: PAO_projection - git commit: 6f1c833

  Developed by:
    Francesco A. Evangelista, Chenyang Li, Kevin P. Hannon,
    Jeffrey B. Schriber, Tianyuan Zhang, Chenxi Cai,
    Nan He, Nicholas Stair, Shuhe Wang, Renke Huang
  ----------------------------------------------------------------------------

  Size of Determinant class: 128 bits
  Read options for space FROZEN_DOCC
  Read options for space RESTRICTED_DOCC
  Read options for space ACTIVE
  Read options for space FROZEN_UOCC

  ==> MO Space Information <==

  -------------------------------
                        A   Sum
  -------------------------------
    FROZEN_DOCC         3     3
    RESTRICTED_DOCC     8     8
    ACTIVE              2     2
    RESTRICTED_UOCC     8     8
    FROZEN_UOCC         0     0
    Total              21    21
  -------------------------------

                          ----------------------------
                            Frozen-orbital Embedding
                                     Nan He
                          ----------------------------

  The input molecule has 2 fragments, treating the first fragment as the system.

  System Fragment 
    Molecular point group: c1
    Full point group: C1

    Geometry (in Angstrom), charge = -1, multiplicity = 1:

       Center              X                  Y                   Z               Mass       
    ------------   -----------------  -----------------  -----------------  -----------------
         C           -0.493016616237     0.345347234972     0.158550354967    12.000000000000
         C            0.609739350363    -0.341871124928    -0.163082663933    12.000000000000
         H           -1.477494929737    -0.096130023128     0.037188566167     1.007825032230
         H           -0.442270879637     1.357479468472     0.547818352367     1.007825032230
         H            0.529968210863    -1.302738892128    -0.531041492133     1.007825032230


  Number of basis on all atoms: 21
  Number of basis in the system fragment: 13

  ==> Orbital partition done according to simple threshold <==

  Simple threshold t = 0.50000000
    Frozen-orbital Embedding MOs (System A)
    ============================
      MO     Type    <phi|P|phi>
    ----------------------------
       4   Occupied   1.000000
       5   Occupied   0.999993
       6   Occupied   0.999888
       7   Occupied   0.999396
       8   Occupied   0.998200
       9   Occupied   0.817304
      13    Virtual   1.000000
      14    Virtual   0.999993
      15    Virtual   0.998528
      16    Virtual   0.983923
      17    Virtual   0.972427
    ============================

    Frozen-orbital Embedding MOs (Environment B)
    ============================
      MO     Type    <phi|P|phi>
    ----------------------------
      10   Occupied   0.027573
      11   Occupied   0.016077
      12   Occupied   0.001394
      18    Virtual   0.178466
      19    Virtual   0.001800
      20    Virtual   0.000585
      21    Virtual   0.000016
    ============================

  Summary: 
    System (A): 6 Occupied MOs, 0 Active MOs, 5 Virtual MOs
    Environment (B): 3 Occupied MOs, 4 Virtual MOs
    Frozen Orbitals: 3 Core MOs, 0 Virtual MOs

  Semi-canonicalizing frozen orbitals
  Updating MOSpaceInfo

  ==> MO Space Information <==

  -------------------------------
                        A   Sum
  -------------------------------
    FROZEN_DOCC         6     6
    RESTRICTED_DOCC     5     5
    ACTIVE              2     2
    RESTRICTED_UOCC     4     4
    FROZEN_UOCC         4     4
    Total              21    21
  -------------------------------

  --------------- End of Frozen-orbital Embedding --------------- 

  ==> Integral Transformation <==

  Number of molecular orbitals:                    21
  Number of correlated molecular orbitals:         11
  Number of frozen occupied orbitals:               6
  Number of frozen unoccupied orbitals:             4
  Two-electron integral type:              Conventional


  Overall Conventional Integrals timings

	Presorting SO-basis two-electron integrals.
	Sorting File: SO Ints (nn|nn) nbuckets = 1
	Transforming the one-electron integrals and constructing Fock matrices
	Starting first half-transformation.
	Sorting half-transformed integrals.
	First half integral transformation complete.
	Starting second half-transformation.
	Two-electron integral transformation complete.

  Integral transformation done. 0.06388550 s
  Reading the two-electron integrals from disk
  Size of two-electron integrals:   0.004347 GB  Using in-core PK algorithm.
   Calculation information:
      Number of atoms:                   9
      Number of AO shells:              15
      Number of primitives:             45
      Number of atomic orbitals:        21
      Number of basis functions:        21

      Integral cutoff                 1.00e-12
      Number of threads:                 1

  Performing in-core PK
  Using 53592 doubles for integral storage.
  We computed 7138 shell quartets total.
  Whereas there are 7260 unique shell quartets.


  Frozen-core energy           -153.849764288735 a.u.
  Timing for frozen one-body operator:                        0.108 s.
  Resorting integrals after freezing core.
  Timing for freezing core and virtual orbitals:              0.120 s.
  Conventional integrals take 0.33595950 s

  ==> Summary of Active Space Solver Input <==

    Irrep.  Multi.  Nstates
    -------------------------
       A       1        1
    -------------------------
    Total number of states: 1
    -------------------------


  ==> String Lists <==

  Number of alpha electrons     = 1
  Number of beta electrons      = 1
  Number of alpha strings       = 2
  Number of beta strings        = 2
  Timing for strings        =      0.000 s
  Timing for NN strings     =      0.000 s
  Timing for VO strings     =      0.000 s
  Timing for OO strings     =      0.000 s
  Timing for VVOO strings   =      0.000 s
  Timing for VOVO strings   =      0.000 s
  Timing for 1-hole strings =      0.000 s
  Timing for 2-hole strings =      0.000 s
  Timing for 3-hole strings =      0.000 s
  Total timing              =      0.000 s

  ==> FCI Solver <==

    Number of determinants                           4
    Symmetry                                         0
    Multiplicity                                     1
    Number of roots                                  1
    Target root                                      0
    Trial vectors per root                          10

  Allocating memory for the Hamiltonian algorithm. Size: 2 x 2 x 2.   Memory: 0.000000 GB

  ==> FCI Initial Guess <==

  ---------------------------------------------
    Root            Energy     <S^2>   Spin
  ---------------------------------------------
      0     -115.696652803896  0.000  singlet
      1     -115.504333461857  2.000  triplet
      2     -115.165782462095  0.000  singlet
      3     -114.959852450896  0.000  singlet
  ---------------------------------------------
  Timing for initial guess  =      0.001 s

  Projecting out root 1

  ==> Diagonalizing Hamiltonian <==

  -----------------------------------------------------
    Iter.      Avg. Energy       Delta_E     Res. Norm
  -----------------------------------------------------
      1     -115.696652803896  -1.157e+02  +2.723e-14
      2     -115.696652803896  +0.000e+00  +1.227e-13
  -----------------------------------------------------
  The Davidson-Liu algorithm converged in 3 iterations.

  ==> Root No. 0 <==

    20     -0.97159048
    02      0.23665278

    Total Energy:      -115.696652803895617

  ==> Energy Summary <==

    Multi.  Irrep.  No.               Energy
    -----------------------------------------
       1       A     0      -115.696652803896
    -----------------------------------------

  ==> Computing RDMs for Root No. 0 <==

    Timing for 1-RDM: 0.000 s
    Timing for 2-RDM: 0.000 s
    Timing for 3-RDM: 0.000 s

  ==> NATURAL ORBITALS <==

        1A      1.887988      2A      0.112012  


       -----------------------------------------------------------------
                            Semi-Canonical Orbitals
         Chenyang Li, Jeffrey B. Schriber and Francesco A. Evangelista
       -----------------------------------------------------------------

  Took 0.000101 s to build Fock matrix

  ==> Checking Fock Matrix Diagonal Blocks <==

    Off-Diag. Elements       Max           2-Norm
    ------------------------------------------------
    Fa actv              0.0002446491   0.0003459861
    Fb actv              0.0002446491   0.0003459861
    ------------------------------------------------
    Fa core              0.0008570485   0.0020887405
    Fb core              0.0008570485   0.0020887405
    ------------------------------------------------
    Fa virt              0.0009709803   0.0021989846
    Fb virt              0.0009709803   0.0021989846
    ------------------------------------------------
 Integrals are about to be computed.	Presorting SO-basis two-electron integrals.
	Sorting File: SO Ints (nn|nn) nbuckets = 1
	Transforming the one-electron integrals and constructing Fock matrices
	Starting first half-transformation.
	Sorting half-transformed integrals.
	First half integral transformation complete.
	Starting second half-transformation.
	Two-electron integral transformation complete.

  Integral transformation done. 0.05639030 s
  Reading the two-electron integrals from disk
  Size of two-electron integrals:   0.004347 GB
 Integrals are about to be updated.  Using in-core PK algorithm.
   Calculation information:
      Number of atoms:                   9
      Number of AO shells:              15
      Number of primitives:             45
      Number of atomic orbitals:        21
      Number of basis functions:        21

      Integral cutoff                 1.00e-12
      Number of threads:                 1

  Performing in-core PK
  Using 53592 doubles for integral storage.
  We computed 7138 shell quartets total.
  Whereas there are 7260 unique shell quartets.


  Frozen-core energy           -153.849764288735 a.u.
  Timing for frozen one-body operator:                        0.116 s.
  Resorting integrals after freezing core.
  Timing for freezing core and virtual orbitals:              0.119 s.

  ==> RDMs Transformation to Semicanonical Basis <==

    Transformed 2 RDMs.
    Transformed 3 cumulants.
  SemiCanonicalize takes 0.641196 s.

  ==> Multireference Driven Similarity Renormalization Group <==

    Reading DSRG options ............................ Done
    Setting ambit MO space .......................... Done
    Preparing tensors for density cumulants ......... Done
    Building Fock matrix ............................ Done

              ----------------------------------------------------
                    MR-DSRG Second-Order Perturbation Theory
                Chenyang Li, Kevin Hannon, Francesco Evangelista
              ----------------------------------------------------

    References:
      u-DSRG-MRPT2:    J. Chem. Theory Comput. 2015, 11, 2097.
      (pr-)DSRG-MRPT2: J. Chem. Phys. 2017, 146, 124132.

  ==> Calculation Information <==

    ntamp                                                 15
    flow parameter                                 5.000e-01
    taylor expansion threshold                     1.000e-03
    intruder_tamp                                  1.000e-01
    int_type                                    CONVENTIONAL
    source operator                                 STANDARD
    reference relaxation                                NONE
    state_type                                STATE-SPECIFIC
    form Hbar3                                         FALSE

  ==> Checking Semicanonical Orbitals <==

    Abs. max of Fock core, active, virtual blocks (Fij, i != j)
                  core          active         virtual
    --------------------------------------------------
    Fα    0.0000000000    0.0000000000    0.0000000000
    Fβ    0.0000000000    0.0000000000    0.0000000000
    --------------------------------------------------

    1-Norm of Fock core, active, virtual blocks (Fij, i != j)
                  core          active         virtual
    --------------------------------------------------
    Fα    0.0000000000    0.0000000000    0.0000000000
    Fβ    0.0000000000    0.0000000000    0.0000000000
    --------------------------------------------------

    Orbitals are semi-canonicalized.

  ==> Computing DSRG-MRPT2 ... <==

    Computing T2 amplitudes                  ...  Done. Timing        0.001441 s
    Computing T1 amplitudes                  ...  Done. Timing        0.000962 s
    Renormalizing two-electron integrals     ...  Done. Timing        0.000741 s
    Renormalizing Fock matrix elements       ...  Done. Timing        0.001081 s
    Computing <[F, T1]>                      ...  Done. Timing        0.000503 s
    Computing <[F, T2]>                      ...  Done. Timing        0.001185 s
    Computing <[V, T1]>                      ...  Done. Timing        0.001846 s
    Computing <[V, T2]> (C_2)^4              ...  Done. Timing        0.016466 s
    Computing <[V, T2]> C_4 (C_2)^2 HH       ...  Done. Timing        0.006397 s
    Computing <[V, T2]> C_4 (C_2)^2 PP       ...  Done. Timing        0.006117 s
    Computing <[V, T2]> C_4 (C_2)^2 PH       ...  Done. Timing        0.021081 s
    Computing <[V, T2]> C_6 C_2              ...  Done. Timing        0.015178 s

  ==> Excitation Amplitudes Summary <==

    Active Indices:    5    6 
    Largest T1 amplitudes for spin case A:
       i       a                  i       a                  i       a               
    --------------------------------------------------------------------------------
    [  1      10    ] 0.000620 [  3      10    ]-0.000273 [  0       9    ] 0.000226 
    [  0       7    ]-0.000216 [  0       8    ]-0.000210 [  2       9    ] 0.000156 
    [  0      10    ] 0.000109 [  2       7    ] 0.000091 [  3       8    ]-0.000084 
    [  1       8    ] 0.000080 [  4      10    ] 0.000070 [  1       9    ] 0.000066 
    [  2      10    ]-0.000062 [  1       7    ] 0.000047 [  4       7    ] 0.000044 
    --------------------------------------------------------------------------------
    Norm of T1A vector: (nonzero elements: 38)                    0.000822837022245.
    --------------------------------------------------------------------------------
    Largest T1 amplitudes for spin case B:
       _       _                  _       _                  _       _               
       i       a                  i       a                  i       a               
    --------------------------------------------------------------------------------
    [  1      10    ] 0.000620 [  3      10    ]-0.000273 [  0       9    ] 0.000226 
    [  0       7    ]-0.000216 [  0       8    ]-0.000210 [  2       9    ] 0.000156 
    [  0      10    ] 0.000109 [  2       7    ] 0.000091 [  3       8    ]-0.000084 
    [  1       8    ] 0.000080 [  4      10    ] 0.000070 [  1       9    ] 0.000066 
    [  2      10    ]-0.000062 [  1       7    ] 0.000047 [  4       7    ] 0.000044 
    --------------------------------------------------------------------------------
    Norm of T1B vector: (nonzero elements: 38)                    0.000822837022245.
    --------------------------------------------------------------------------------
    Largest T2 amplitudes for spin case AA:
       i   j   a   b              i   j   a   b              i   j   a   b           
    --------------------------------------------------------------------------------
    [  3   5   6  10]-0.036782 [  4   5   5   9] 0.032827 [  4   6   6   9] 0.032519 
    [  2   5   5   7] 0.029214 [  3   6   5  10]-0.028799 [  2   6   6   7] 0.028777 
    [  3   5   5   8] 0.019230 [  3   6   6   8] 0.018669 [  1   5   5   8] 0.015779 
    [  2   5   6   9] 0.015232 [  1   6   6   8] 0.013823 [  2   6   5   9] 0.012996 
    [  0   5   6  10] 0.012671 [  3   5   5   7] 0.012228 [  3   6   6   7] 0.012101 
    --------------------------------------------------------------------------------
    Norm of T2AA vector: (nonzero elements: 1256)                 0.196301336991163.
    --------------------------------------------------------------------------------
    Largest T2 amplitudes for spin case AB:
           _       _                  _       _                  _       _           
       i   j   a   b              i   j   a   b              i   j   a   b           
    --------------------------------------------------------------------------------
    [  0   0   5   5]-0.033807 [  3   3  10  10]-0.030551 [  4   4   7   7]-0.023084 
    [  4   4   9   9]-0.023031 [  4   4   8   8]-0.022616 [  0   1   5   6]-0.021637 
    [  2   2   7   7]-0.021411 [  2   4   7   9]-0.020742 [  1   1   8   8]-0.017731 
    [  1   1   6   6]-0.017689 [  0   6   5  10]-0.017351 [  3   3   8   8]-0.017291 
    [  2   2   9   9]-0.016354 [  0   0   6   6]-0.015634 [  3   3   7   7]-0.015595 
    --------------------------------------------------------------------------------
    Norm of T2AB vector: (nonzero elements: 1748)                 0.234733394318358.
    --------------------------------------------------------------------------------
    Largest T2 amplitudes for spin case BB:
       _   _   _   _              _   _   _   _              _   _   _   _           
       i   j   a   b              i   j   a   b              i   j   a   b           
    --------------------------------------------------------------------------------
    [  3   5   6  10]-0.036782 [  4   5   5   9] 0.032827 [  4   6   6   9] 0.032519 
    [  2   5   5   7] 0.029214 [  3   6   5  10]-0.028799 [  2   6   6   7] 0.028777 
    [  3   5   5   8] 0.019230 [  3   6   6   8] 0.018669 [  1   5   5   8] 0.015779 
    [  2   5   6   9] 0.015232 [  1   6   6   8] 0.013823 [  2   6   5   9] 0.012996 
    [  0   5   6  10] 0.012671 [  3   5   5   7] 0.012228 [  3   6   6   7] 0.012101 
    --------------------------------------------------------------------------------
    Norm of T2BB vector: (nonzero elements: 1256)                 0.196301336991163.
    --------------------------------------------------------------------------------

  ==> Possible Intruders <==

    T1 amplitudes larger than 0.1000 for spin case A: NULL
    T1 amplitudes larger than 0.1000 for spin case B: NULL
    T2 amplitudes larger than 0.1000 for spin case AA: NULL
    T2 amplitudes larger than 0.1000 for spin case AB: NULL
    T2 amplitudes larger than 0.1000 for spin case BB: NULL

  ==> DSRG-MRPT2 Energy Summary <==

    E0 (reference)                 =   -115.696652803895645
    <[F, T1]>                      =     -0.000003755926157
    <[F, T2]>                      =     -0.000000000000007
    <[V, T1]>                      =     -0.000000000000578
    <[V, T2]> (C_2)^4              =     -0.080412731720542
    <[V, T2]> C_4 (C_2)^2 HH       =      0.001045780344782
    <[V, T2]> C_4 (C_2)^2 PP       =      0.000658542315858
    <[V, T2]> C_4 (C_2)^2 PH       =      0.013500072403468
    <[V, T2]> C_6 C_2              =     -0.000000000002581
    <[V, T2]>                      =     -0.065208336659016
    DSRG-MRPT2 correlation energy  =     -0.065212092585758
    DSRG-MRPT2 total energy        =   -115.761864896481399
    max(T1)                        =      0.000619630866742
    max(T2)                        =      0.041263769566630
    ||T1||                         =      0.001163667276482
    ||T2||                         =      0.545405808038297

  Energy took      0.096 s


  ==> Total Timings (s) for Computing Commutators <==

             [H1, T1]    [H1, T2]    [H2, T1]    [H2, T2]
    -----------------------------------------------------
    -> C0       0.001       0.001       0.002       0.065
    -> C1       0.000       0.000       0.000       0.000
    -> C2                   0.000       0.000       0.000
    -----------------------------------------------------


  Time to prepare integrals: 0.38894200325012207 seconds
  Time to run job          : 0.7467846870422363 seconds
  Total                    : 0.7467846870422363 seconds    CASCI-PT2-in-RHF energy...........................................PASSED

    Psi4 stopped on: Sunday, 02 February 2020 10:30PM
    Psi4 wall time for execution: 0:00:02.30

*** Psi4 exiting successfully. Buy a developer a beer!
