
    -----------------------------------------------------------------------
          Psi4: An Open-Source Ab Initio Electronic Structure Package
                               Psi4 1.8a1.dev5 

                         Git: Rev {master} 4d94910 


    D. G. A. Smith, L. A. Burns, A. C. Simmonett, R. M. Parrish,
    M. C. Schieber, R. Galvelis, P. Kraus, H. Kruse, R. Di Remigio,
    A. Alenaizan, A. M. James, S. Lehtola, J. P. Misiewicz, M. Scheurer,
    R. A. Shaw, J. B. Schriber, Y. Xie, Z. L. Glick, D. A. Sirianni,
    J. S. O'Brien, J. M. Waldrop, A. Kumar, E. G. Hohenstein,
    B. P. Pritchard, B. R. Brooks, H. F. Schaefer III, A. Yu. Sokolov,
    K. Patkowski, A. E. DePrince III, U. Bozkaya, R. A. King,
    F. A. Evangelista, J. M. Turney, T. D. Crawford, C. D. Sherrill,
    J. Chem. Phys. 152(18) 184108 (2020). https://doi.org/10.1063/5.0006002

                            Additional Code Authors
    E. T. Seidl, C. L. Janssen, E. F. Valeev, M. L. Leininger,
    J. F. Gonthier, R. M. Richard, H. R. McAlexander, M. Saitow, X. Wang,
    P. Verma, M. H. Lechner, A. Jiang, S. Behnle, A. G. Heide,
    M. F. Herbst, and D. L. Poole

             Previous Authors, Complete List of Code Contributors,
                       and Citations for Specific Modules
    https://github.com/psi4/psi4/blob/master/codemeta.json
    https://github.com/psi4/psi4/graphs/contributors
    http://psicode.org/psi4manual/master/introduction.html#citing-psifour

    -----------------------------------------------------------------------


    Psi4 started on: Sunday, 15 January 2023 11:34PM

    Process ID: 412
    Host:       CHE-FEVANGE-01i
    PSIDATADIR: /Users/fevange/Source/psi4/objdir-Release/stage/share/psi4
    Memory:     500.0 MiB
    Threads:    1
    
  ==> Input File <==

--------------------------------------------------------------------------
# GAS CI calculation with multi-gas algorithm

import forte

refscf = -76.0172965561
refgas = -65.93594498028247131
ref0   = -76.029945793736
ref1   = -55.841944166803

molecule h2o{
O
H 1 1.00
H 1 1.00 2 103.1
}

set global {
  basis 6-31g**
  e_convergence 10
  d_convergence 10
  r_convergence 10
  scf_type pk
}

Escf, wfn = energy('scf', return_wfn=True)
compare_values(refscf, variable("CURRENT ENERGY"), 9, "SCF energy")

set forte {
  active_space_solver detci
  e_convergence 10
  charge 0
  active_ref_type gas
  GAS1 [1,0,0,0]
  GAS2 [3,0,1,2]
  GAS1MAX [2,1]
  GAS1MIN [0,0]
  avg_state [[0,1,1],[0,1,1]] #For same symmetry and different GAS
}

egas = energy('forte', ref_wfn=wfn)

compare_values(refgas, egas, 8, "Averaged GASCI energy")
compare_values(ref0, variable("ENERGY ROOT 0 1A1 ENTRY 0"), 8, "GASCI energy for state entry 0")
compare_values(ref1, variable("ENERGY ROOT 0 1A1 ENTRY 1"), 8, "GASCI energy for state entry 1")
--------------------------------------------------------------------------

Scratch directory: /tmp/

*** tstart() called on CHE-FEVANGE-01i
*** at Sun Jan 15 23:34:06 2023

   => Loading Basis Set <=

    Name: 6-31G**
    Role: ORBITAL
    Keyword: BASIS
    atoms 1   entry O          line   149 file /Users/fevange/Source/psi4/objdir-Release/stage/share/psi4/basis/6-31gss.gbs 
    atoms 2-3 entry H          line    44 file /Users/fevange/Source/psi4/objdir-Release/stage/share/psi4/basis/6-31gss.gbs 


         ---------------------------------------------------------
                                   SCF
               by Justin Turney, Rob Parrish, Andy Simmonett
                          and Daniel G. A. Smith
                              RHF Reference
                        1 Threads,    500 MiB Core
         ---------------------------------------------------------

  ==> Geometry <==

    Molecular point group: c2v
    Full point group: C2v

    Geometry (in Angstrom), charge = 0, multiplicity = 1:

       Center              X                  Y                   Z               Mass       
    ------------   -----------------  -----------------  -----------------  -----------------
         O            0.000000000000     0.000000000000    -0.069592187400    15.994914619570
         H            0.000000000000    -0.783151105291     0.552239257834     1.007825032230
         H            0.000000000000     0.783151105291     0.552239257834     1.007825032230

  Running in c2v symmetry.

  Rotational constants: A =     24.35462  B =     13.63610  C =      8.74166 [cm^-1]
  Rotational constants: A = 730133.21529  B = 408800.04239  C = 262068.46393 [MHz]
  Nuclear repulsion =    8.804686653247025

  Charge       = 0
  Multiplicity = 1
  Electrons    = 10
  Nalpha       = 5
  Nbeta        = 5

  ==> Algorithm <==

  SCF Algorithm Type is PK.
  DIIS enabled.
  MOM disabled.
  Fractional occupation disabled.
  Guess Type is SAD.
  Energy threshold   = 1.00e-10
  Density threshold  = 1.00e-10
  Integral threshold = 1.00e-12

  ==> Primary Basis <==

  Basis Set: 6-31G**
    Blend: 6-31G**
    Number of shells: 12
    Number of basis functions: 25
    Number of Cartesian functions: 25
    Spherical Harmonics?: false
    Max angular momentum: 2

  ==> Integral Setup <==

  Using in-core PK algorithm.
   Calculation information:
      Number of atoms:                   3
      Number of AO shells:              12
      Number of primitives:             25
      Number of atomic orbitals:        25
      Number of basis functions:        25

      Integral cutoff                 1.00e-12
      Number of threads:                 1

  Performing in-core PK
  Using 105950 doubles for integral storage.
  We computed 3081 shell quartets total.
  Whereas there are 3081 unique shell quartets.

  ==> DiskJK: Disk-Based J/K Matrices <==

    J tasked:                  Yes
    K tasked:                  Yes
    wK tasked:                  No
    Memory [MiB]:              375
    Schwarz Cutoff:          1E-12

    OpenMP threads:              1

  Minimum eigenvalue in the overlap matrix is 2.2571686435E-02.
  Reciprocal condition number of the overlap matrix is 5.1514795888E-03.
    Using symmetric orthogonalization.

  ==> Pre-Iterations <==

  SCF Guess: Superposition of Atomic Densities via on-the-fly atomic UHF (no occupation information).

   -------------------------
    Irrep   Nso     Nmo    
   -------------------------
     A1        12      12 
     A2         2       2 
     B1         4       4 
     B2         7       7 
   -------------------------
    Total      25      25
   -------------------------

  ==> Iterations <==

                        Total Energy        Delta E     RMS |[F,P]|

   @RHF iter SAD:   -75.46103618312688   -7.54610e+01   0.00000e+00 
   @RHF iter   1:   -75.94545654792115   -4.84420e-01   2.80524e-02 DIIS/ADIIS
   @RHF iter   2:   -75.99657242565149   -5.11159e-02   1.70123e-02 DIIS/ADIIS
   @RHF iter   3:   -76.01665929611613   -2.00869e-02   2.21343e-03 DIIS/ADIIS
   @RHF iter   4:   -76.01726706687938   -6.07771e-04   4.12775e-04 DIIS/ADIIS
   @RHF iter   5:   -76.01729540938912   -2.83425e-05   6.94922e-05 DIIS
   @RHF iter   6:   -76.01729652657382   -1.11718e-06   1.06077e-05 DIIS
   @RHF iter   7:   -76.01729655515035   -2.85765e-08   1.75196e-06 DIIS
   @RHF iter   8:   -76.01729655603906   -8.88704e-10   3.96808e-07 DIIS
   @RHF iter   9:   -76.01729655609029   -5.12301e-11   6.87876e-08 DIIS
   @RHF iter  10:   -76.01729655609151   -1.22213e-12   6.50789e-09 DIIS
   @RHF iter  11:   -76.01729655609142    8.52651e-14   7.93281e-10 DIIS
   @RHF iter  12:   -76.01729655609152   -9.94760e-14   5.13306e-11 DIIS
  Energy and wave function converged.


  ==> Post-Iterations <==

    Orbital Energies [Eh]
    ---------------------

    Doubly Occupied:                                                      

       1A1   -20.569000     2A1    -1.320609     1B2    -0.678724  
       3A1    -0.563930     1B1    -0.495004  

    Virtual:                                                              

       4A1     0.202466     2B2     0.292719     3B2     0.981164  
       5A1     1.056318     6A1     1.129179     2B1     1.168639  
       4B2     1.294985     7A1     1.413596     1A2     1.802875  
       8A1     1.806916     3B1     1.918871     9A1     2.513249  
       5B2     2.537822     6B2     2.713577     2A2     2.921065  
       4B1     2.947486    10A1     3.291755    11A1     3.620730  
       7B2     3.874917    12A1     4.077740  

    Final Occupation by Irrep:
             A1    A2    B1    B2 
    DOCC [     3,    0,    1,    1 ]
    NA   [     3,    0,    1,    1 ]
    NB   [     3,    0,    1,    1 ]

  @RHF Final Energy:   -76.01729655609152

   => Energetics <=

    Nuclear Repulsion Energy =              8.8046866532470247
    One-Electron Energy =                -122.3894315643723019
    Two-Electron Energy =                  37.5674483550337754
    Total Energy =                        -76.0172965560915088

Computation Completed


Properties will be evaluated at   0.000000,   0.000000,   0.000000 [a0]

Properties computed using the SCF density matrix


 Multipole Moments:

 ------------------------------------------------------------------------------------
     Multipole            Electronic (a.u.)      Nuclear  (a.u.)        Total (a.u.)
 ------------------------------------------------------------------------------------

 L = 1.  Multiply by 2.5417464519 to convert [e a0] to [Debye]
 Dipole X            :          0.0000000            0.0000000            0.0000000
 Dipole Y            :          0.0000000            0.0000000            0.0000000
 Dipole Z            :         -0.1532271            1.0350805            0.8818534
 Magnitude           :                                                    0.8818534

 ------------------------------------------------------------------------------------

*** tstop() called on CHE-FEVANGE-01i at Sun Jan 15 23:34:06 2023
Module time:
	user time   =       0.15 seconds =       0.00 minutes
	system time =       0.04 seconds =       0.00 minutes
	total time  =          0 seconds =       0.00 minutes
Total time:
	user time   =       0.15 seconds =       0.00 minutes
	system time =       0.04 seconds =       0.00 minutes
	total time  =          0 seconds =       0.00 minutes
    SCF energy............................................................................PASSED

Scratch directory: /tmp/

  Forte
  ----------------------------------------------------------------------------
  A suite of quantum chemistry methods for strongly correlated electrons

    git branch: master - git commit: 4225e1f0

  Developed by:
    Francesco A. Evangelista, Chenyang Li, Kevin P. Hannon,
    Jeffrey B. Schriber, Tianyuan Zhang, Chenxi Cai,
    Nan He, Nicholas Stair, Shuhe Wang, Renke Huang
  ----------------------------------------------------------------------------

  Size of Determinant class: 128 bits

  Preparing forte objects from a Psi4 Wavefunction object
  Read options for space GAS1
  Read options for space GAS2
  Read options for space GAS1
  Read options for space GAS2

  ==> MO Space Information <==

  -------------------------------------------------
                       A1    A2    B1    B2   Sum
  -------------------------------------------------
    FROZEN_DOCC         0     0     0     0     0
    RESTRICTED_DOCC     0     0     0     0     0
    GAS1                1     0     0     0     1
    GAS2                3     0     1     2     6
    GAS3                0     0     0     0     0
    GAS4                0     0     0     0     0
    GAS5                0     0     0     0     0
    GAS6                0     0     0     0     0
    RESTRICTED_UOCC     8     2     3     5    18
    FROZEN_UOCC         0     0     0     0     0
    Total              12     2     4     7    25
  -------------------------------------------------   => Loading Basis Set <=

    Name: 6-31G**
    Role: ORBITAL
    Keyword: BASIS
    atoms 1   entry O          line   149 file /Users/fevange/Source/psi4/objdir-Release/stage/share/psi4/basis/6-31gss.gbs 
    atoms 2-3 entry H          line    44 file /Users/fevange/Source/psi4/objdir-Release/stage/share/psi4/basis/6-31gss.gbs 


  Checking orbital orthonormality against current geometry ... Done (OK)

   => Loading Basis Set <=

    Name: STO-3G
    Role: ORBITAL
    Keyword: MINAO_BASIS
    atoms 1   entry O          line    81 file /Users/fevange/Source/psi4/objdir-Release/stage/share/psi4/basis/sto-3g.gbs 
    atoms 2-3 entry H          line    19 file /Users/fevange/Source/psi4/objdir-Release/stage/share/psi4/basis/sto-3g.gbs 


  Forte will use psi4 integrals

  ==> Primary Basis Set Summary <==

  Basis Set: 6-31G**
    Blend: 6-31G**
    Number of shells: 12
    Number of basis functions: 25
    Number of Cartesian functions: 25
    Spherical Harmonics?: false
    Max angular momentum: 2


  JK created using conventional PK integrals
  Using in-core PK algorithm.
   Calculation information:
      Number of atoms:                   3
      Number of AO shells:              12
      Number of primitives:             25
      Number of atomic orbitals:        25
      Number of basis functions:        25

      Integral cutoff                 1.00e-12
      Number of threads:                 1

  Performing in-core PK
  Using 105950 doubles for integral storage.
  We computed 3081 shell quartets total.
  Whereas there are 3081 unique shell quartets.

  ==> DiskJK: Disk-Based J/K Matrices <==

    J tasked:                  Yes
    K tasked:                  Yes
    wK tasked:                  No
    Memory [MiB]:              400
    Schwarz Cutoff:          1E-12

    OpenMP threads:              1



  ==> Integral Transformation <==

  Number of molecular orbitals:                         25
  Number of correlated molecular orbitals:              25
  Number of frozen occupied orbitals:                    0
  Number of frozen unoccupied orbitals:                  0
  Two-electron integral type:                 Conventional


  Computing Conventional Integrals	Presorting SO-basis two-electron integrals.
	Sorting File: SO Ints (nn|nn) nbuckets = 1
	Constructing frozen core operators
	Starting first half-transformation.
	Sorting half-transformed integrals.
	First half integral transformation complete.
	Starting second half-transformation.
	Two-electron integral transformation complete.

  Integral transformation done. 0.00951042 s
  Reading the two-electron integrals from disk
  Size of two-electron integrals:   0.008731 GB
  Timing for conventional integral transformation:            0.018 s.
  Timing for freezing core and virtual orbitals:              0.000 s.
  Timing for computing conventional integrals:                0.018 s.

  ==> Summary of Active Space Solver Input <==

    Irrep.  Multi.(2ms)      N
    --------------------------
       A1      1  (  0)      1
       A1      1  (  0)      1
    --------------------------
    N: number of roots
    ms: spin z component
    Total number of roots:   2
    --------------------------


  ==> General Determinant-Based CI Solver <==

  Number of active orbitals: 7
  Number of active alpha electrons: 5
  Number of active beta electrons: 5

  ==> GAS Orbital Energies from SCF <==

    GAS        Energy  Index
    ------------------------
     1   -20.56899957      0
     2    -1.32060927      1
     2    -0.56393045      2
     2     0.20246590      3
     2    -0.49500394      4
     2    -0.67872419      5
     2     0.29271934      6
    ------------------------

  ==> Number of Electrons in GAS <==

    GAS  MAX  MIN
    -------------
      1    2    0
      2   10    0
    -------------

  ==> Possible Electron Occupations in GAS <==

    Config.  1_A  1_B  2_A  2_B
    ---------------------------
         1     1    1    4    4
         2     1    0    4    5
         3     0    1    5    4
         4     0    0    5    5
    ---------------------------
    n_A/B: # of alpha/beta electrons in GASn

  ==> Building GAS Determinants <==

    Config.  #Determinants     Time/s
    ---------------------------------
         1              65  2.837e-05
         2              27  1.688e-05
         3              27  1.513e-05
         4              14  1.246e-05
    ---------------------------------
    Total:             133  8.958e-05
    ---------------------------------
  Number of determinants (GAS): 133

  ==> Diagonalizing Hamiltonian Singlet (Ms = 0) A1 <==


  Davidson-Liu solver algorithm using SigmaVectorFull sigma algorithm

  Performing diagonalization of the H matrix
  Found 70 roots with 2S+1 = 1 *
  Found 56 roots with 2S+1 = 3
  Found 7 roots with 2S+1 = 5

  Done diagonalizing Hamiltonian, 2.569e-03 seconds.

  ==> Computing 1 Coupling Lists <==

        α          7.933e-05 seconds
        β          6.992e-05 seconds
  Time spent building 1-rdm: 2.850e-05 seconds

  ==> CI Vectors & Occupation Number for Singlet (Ms = 0) A1 <==

  Important determinants with coefficients |C| >= 5.000e-02

  ---- Root No. 0 ----

       A1 B1 B2    Coefficients
    ---------------------------
     2220  2 20   -0.9955499201
    ---------------------------

    Occupation Numbers:
        1A1   1.99999946    1B1   1.99976302    2A1   1.99773422    3A1   1.99445525
        1B2   1.99078329    2B2   0.00922180    4A1   0.00804297

    Total Energy:  -76.029945793735862

  ==> General Determinant-Based CI Solver <==

  Number of active orbitals: 7
  Number of active alpha electrons: 5
  Number of active beta electrons: 5

  ==> GAS Orbital Energies from SCF <==

    GAS        Energy  Index
    ------------------------
     1   -20.56899957      0
     2    -1.32060927      1
     2    -0.56393045      2
     2     0.20246590      3
     2    -0.49500394      4
     2    -0.67872419      5
     2     0.29271934      6
    ------------------------

  ==> Number of Electrons in GAS <==

    GAS  MAX  MIN
    -------------
      1    1    0
      2   10    0
    -------------

  ==> Possible Electron Occupations in GAS <==

    Config.  1_A  1_B  2_A  2_B
    ---------------------------
         1     1    0    4    5
         2     0    1    5    4
         3     0    0    5    5
    ---------------------------
    n_A/B: # of alpha/beta electrons in GASn

  ==> Building GAS Determinants <==

    Config.  #Determinants     Time/s
    ---------------------------------
         1              27  2.121e-05
         2              27  1.704e-05
         3              14  1.321e-05
    ---------------------------------
    Total:              68  6.346e-05
    ---------------------------------
  Number of determinants (GAS): 68

  ==> Diagonalizing Hamiltonian Singlet (Ms = 0) A1 <==


  Davidson-Liu solver algorithm using SigmaVectorFull sigma algorithm

  Performing diagonalization of the H matrix
  Found 33 roots with 2S+1 = 1 *
  Found 31 roots with 2S+1 = 3
  Found 4 roots with 2S+1 = 5

  Done diagonalizing Hamiltonian, 8.288e-04 seconds.

  ==> Computing 1 Coupling Lists <==

        α          3.700e-05 seconds
        β          3.696e-05 seconds
  Time spent building 1-rdm: 1.412e-05 seconds

  ==> CI Vectors & Occupation Number for Singlet (Ms = 0) A1 <==

  Important determinants with coefficients |C| >= 5.000e-02

  ---- Root No. 0 ----

       A1 B1 B2    Coefficients
    ---------------------------
     b22a  2 20   -0.6580403739
     a22b  2 20   -0.6580403739
     a22b  2 ba   -0.1614177704
     b22a  2 ab   -0.1614177704
     a22b  2 ab   -0.1366517340
     b22a  2 ba   -0.1366517340
     a2b2  2 20    0.1074224713
     b2a2  2 20    0.1074224713
     ab22  2 20    0.0879376122
     ba22  2 20    0.0879376122
    ---------------------------

    Occupation Numbers:
        1B1   1.99999597    2A1   1.98327666    3A1   1.97442492    1B2   1.90417155
        4A1   1.04115993    1A1   0.99995265    2B2   0.09701833

    Total Energy:  -55.841944166808439

  ==> Energy Summary <==

    Multi.(2ms)  Irrep.  No.               Energy      <S^2>
    --------------------------------------------------------
       1  (  0)    A1     0      -76.029945793736   0.000000
    --------------------------------------------------------
       1  (  0)    A1     0      -55.841944166808   0.000000
    --------------------------------------------------------

  ==> Computing 1 Coupling Lists <==

        α          6.975e-05 seconds
        β          7.317e-05 seconds
  Time spent building 1-rdm: 3.087e-05 seconds

  ==> Permanent Dipole Moments [e a0] for Singlet (Ms = 0) A1 <==

       State           DM_X           DM_Y           DM_Z           |DM|
    --------------------------------------------------------------------
         0A1     0.00000000     0.00000000     0.82078282     0.82078282
    --------------------------------------------------------------------

  ==> Computing 1 Coupling Lists <==

        α          3.629e-05 seconds
        β          3.558e-05 seconds
  Time spent building 1-rdm: 1.479e-05 seconds

  ==> Permanent Dipole Moments [e a0] for Singlet (Ms = 0) A1 <==

       State           DM_X           DM_Y           DM_Z           |DM|
    --------------------------------------------------------------------
         0A1     0.00000000    -0.00000000    -0.09659764     0.09659764
    --------------------------------------------------------------------

  Time to prepare integrals:        0.027 seconds
  Time to run job          :        0.006 seconds
  Total                    :        0.033 seconds
    Averaged GASCI energy.................................................................PASSED
    GASCI energy for state entry 0........................................................PASSED
    GASCI energy for state entry 1........................................................PASSED

    Psi4 stopped on: Sunday, 15 January 2023 11:34PM
    Psi4 wall time for execution: 0:00:00.29

*** Psi4 exiting successfully. Buy a developer a beer!
