    -----------------------------------------------------------------------
          Psi4: An Open-Source Ab Initio Electronic Structure Package
                              Psi4 (no tag) Driver

                          Git: Rev {detached?} 7a17eb9 dirty

    J. M. Turney, A. C. Simmonett, R. M. Parrish, E. G. Hohenstein,
    F. A. Evangelista, J. T. Fermann, B. J. Mintz, L. A. Burns, J. J. Wilke,
    M. L. Abrams, N. J. Russ, M. L. Leininger, C. L. Janssen, E. T. Seidl,
    W. D. Allen, H. F. Schaefer, R. A. King, E. F. Valeev, C. D. Sherrill,
    and T. D. Crawford, WIREs Comput. Mol. Sci. 2, 556-565 (2012)
    (doi: 10.1002/wcms.93)

                         Additional Contributions by
    A. E. DePrince, M. Saitow, U. Bozkaya, A. Yu. Sokolov
    -----------------------------------------------------------------------


    Psi4 started on: Fri Jan 22 16:49:33 2016

    Process ID:  20731
    PSI4DATADIR: /Users/jeffschriber/src/psi4/lib
    Memory level set to 256.000 MB

  ==> Input File <==

--------------------------------------------------------------------------
#! Generated using commit GITCOMMIT
# Tests mp2_nos with spin projected system for multiple roots


import forte

refscf = -75.37487863589541 
refaci = -75.522945247792
refacipt2 =-75.750318411025 

molecule N2{
C 
C 1 1.3
units angstrom
}

set {
  basis 6-31g* 
  scf_type pk
  freeze_core true
  reference rhf 
  e_convergence 10
  d_convergence 10
  r_convergence 10
  docc [2,0,0,0,0,2,1,1]
}



set forte {
  job_type = aci
  multiplicity 1
  perturb_select false
  aci_add_aimed_degenerate false
  project_out_spin_contaminants false
  enforce_spin_complete false
  frozen_docc [1,0,0,0,0,1,0,0]
  TAUP 0.05
  TAUQ 0.05
  nroot 3
  mp2_nos true
  charge 0
  enforce_spin_complete true
  aci_add_aimed_degenerate true
  project_out_spin_contaminants true
}

energy('scf')

compare_values(refscf, get_variable("CURRENT ENERGY"),9, "SCF energy") #TEST

energy('forte')
compare_values(refaci, get_variable("ACI ENERGY"),9, "ACI energy") #TEST
compare_values(refacipt2, get_variable("ACI+PT2 ENERGY"),8, "ACI+PT2 energy") #TEST
--------------------------------------------------------------------------
/Users/jeffschriber/src/forte/forte.so loaded.

*** tstart() called on Jeffs-MBP.attlocal.net
*** at Fri Jan 22 16:49:33 2016

    There are an even number of electrons - assuming singlet.
    Specify the multiplicity with the MULTP option in the
    input if this is incorrect


         ---------------------------------------------------------
                                   SCF
            by Justin Turney, Rob Parrish, and Andy Simmonett
                              RHF Reference
                        1 Threads,    256 MiB Core
         ---------------------------------------------------------

  ==> Geometry <==

    Molecular point group: d2h
    Full point group: D_inf_h

    Geometry (in Angstrom), charge = 0, multiplicity = 1:

       Center              X                  Y                   Z               Mass       
    ------------   -----------------  -----------------  -----------------  -----------------
           C          0.000000000000     0.000000000000    -0.650000000000    12.000000000000
           C          0.000000000000     0.000000000000     0.650000000000    12.000000000000

  Running in d2h symmetry.

  Rotational constants: A = ************  B =      1.66249  C =      1.66249 [cm^-1]
  Rotational constants: A = ************  B =  49840.13856  C =  49840.13856 [MHz]
  Nuclear repulsion =   14.654138084030766

  Charge       = 0
  Multiplicity = 1
  Electrons    = 12
  Nalpha       = 6
  Nbeta        = 6

  ==> Algorithm <==

  SCF Algorithm Type is PK.
  DIIS enabled.
  MOM disabled.
  Fractional occupation disabled.
  Guess Type is CORE.
  Energy threshold   = 1.00e-10
  Density threshold  = 1.00e-10
  Integral threshold = 0.00e+00

  ==> Primary Basis <==

  Basis Set: 6-31G*
    Number of shells: 12
    Number of basis function: 30
    Number of Cartesian functions: 30
    Spherical Harmonics?: false
    Max angular momentum: 2

  ==> Pre-Iterations <==

   -------------------------------------------------------
    Irrep   Nso     Nmo     Nalpha   Nbeta   Ndocc  Nsocc
   -------------------------------------------------------
     Ag         8       8       2       2       2       0
     B1g        1       1       0       0       0       0
     B2g        3       3       0       0       0       0
     B3g        3       3       0       0       0       0
     Au         1       1       0       0       0       0
     B1u        8       8       2       2       2       0
     B2u        3       3       1       1       1       0
     B3u        3       3       1       1       1       0
   -------------------------------------------------------
    Total      30      30       6       6       6       0
   -------------------------------------------------------

  Starting with a DF guess...

 OEINTS: Overlap, kinetic, potential, dipole, and quadrupole integrals
         stored in file 35.

  ==> Integral Setup <==

  ==> DFJK: Density-Fitted J/K Matrices <==

    J tasked:                  Yes
    K tasked:                  Yes
    wK tasked:                  No
    OpenMP threads:              1
    Integrals threads:           1
    Memory (MB):               183
    Algorithm:                Core
    Integral Cache:           NONE
    Schwarz Cutoff:          1E-12
    Fitting Condition:       1E-12

   => Auxiliary Basis Set <=

  Basis Set: 
    Number of shells: 48
    Number of basis function: 162
    Number of Cartesian functions: 162
    Spherical Harmonics?: false
    Max angular momentum: 3

  Minimum eigenvalue in the overlap matrix is 7.3141486613E-03.
  Using Symmetric Orthogonalization.
  SCF Guess: Core (One-Electron) Hamiltonian.

  ==> Iterations <==

                           Total Energy        Delta E     RMS |[F,P]|

   @DF-RHF iter   1:   -69.47808871163789   -6.94781e+01   2.27892e-01 
   @DF-RHF iter   2:   -74.10722013727613   -4.62913e+00   1.09761e-01 DIIS
   @DF-RHF iter   3:   -75.36388610130736   -1.25667e+00   9.25791e-03 DIIS
   @DF-RHF iter   4:   -75.37427273498132   -1.03866e-02   1.73546e-03 DIIS
   @DF-RHF iter   5:   -75.37473561843881   -4.62883e-04   2.06350e-04 DIIS
   @DF-RHF iter   6:   -75.37474031268295   -4.69424e-06   2.34371e-05 DIIS
   @DF-RHF iter   7:   -75.37474037447433   -6.17914e-08   1.87113e-06 DIIS
   @DF-RHF iter   8:   -75.37474037506439   -5.90063e-10   3.60700e-07 DIIS
   @DF-RHF iter   9:   -75.37474037509085   -2.64606e-11   7.03370e-08 DIIS
   @DF-RHF iter  10:   -75.37474037509169   -8.38440e-13   8.87469e-09 DIIS
   @DF-RHF iter  11:   -75.37474037509173   -4.26326e-14   8.59373e-10 DIIS
   @DF-RHF iter  12:   -75.37474037509170    2.84217e-14   7.52435e-11 DIIS

  DF guess converged.

  ==> Integral Setup <==

 MINTS: Wrapper to libmints.
   by Justin Turney

   Calculation information:
      Number of atoms:                   2
      Number of AO shells:              12
      Number of SO shells:               6
      Number of primitives:             30
      Number of atomic orbitals:        30
      Number of basis functions:        30

      Number of irreps:                  8
      Integral cutoff                 0.00e+00
      Number of functions per irrep: [   8    1    3    3    1    8    3    3 ]

 OEINTS: Overlap, kinetic, potential, dipole, and quadrupole integrals
         stored in file 35.

      Computing two-electron integrals...done
      Computed 15467 non-zero two-electron integrals.
        Stored in file 33.

	Batch   1 pq = [       0,      98] index = [             0,4851]
  ==> DiskJK: Disk-Based J/K Matrices <==

    J tasked:                  Yes
    K tasked:                  Yes
    wK tasked:                  No
    Memory (MB):               183
    Schwarz Cutoff:          1E-12

   @RHF iter  13:   -75.37487856633579   -1.38191e-04   3.04224e-05 DIIS
   @RHF iter  14:   -75.37487863260868   -6.62729e-08   5.55059e-06 DIIS
   @RHF iter  15:   -75.37487863567391   -3.06522e-09   1.33939e-06 DIIS
   @RHF iter  16:   -75.37487863588480   -2.10889e-10   2.44211e-07 DIIS
   @RHF iter  17:   -75.37487863589510   -1.03029e-11   3.87886e-08 DIIS
   @RHF iter  18:   -75.37487863589536   -2.55795e-13   7.36306e-09 DIIS
   @RHF iter  19:   -75.37487863589533    2.84217e-14   8.45338e-10 DIIS
   @RHF iter  20:   -75.37487863589537   -4.26326e-14   5.36217e-11 DIIS

  ==> Post-Iterations <==

    Orbital Energies (a.u.)
    -----------------------

    Doubly Occupied:                                                      

       1Ag   -11.368628     1B1u  -11.367077     2Ag    -1.034489  
       2B1u   -0.524847     1B2u   -0.436705     1B3u   -0.436705  

    Virtual:                                                              

       3Ag    -0.097513     1B2g    0.157507     1B3g    0.157507  
       3B1u    0.464357     4Ag     0.675380     2B2u    0.721071  
       2B3u    0.721071     5Ag     0.751415     2B3g    0.840159  
       2B2g    0.840159     4B1u    0.913558     5B1u    1.274347  
       3B2u    1.711471     3B3u    1.711471     1B1g    1.793487  
       6Ag     1.793487     1Au     2.149832     6B1u    2.149832  
       7Ag     2.377092     3B2g    2.697346     3B3g    2.697346  
       7B1u    3.044324     8Ag     4.262621     8B1u    4.430804  

    Final Occupation by Irrep:
             Ag   B1g   B2g   B3g    Au   B1u   B2u   B3u 
    DOCC [     2,    0,    0,    0,    0,    2,    1,    1 ]

  Energy converged.

  @RHF Final Energy:   -75.37487863589537

   => Energetics <=

    Nuclear Repulsion Energy =             14.6541380840307660
    One-Electron Energy =                -129.7211286635026113
    Two-Electron Energy =                  39.6921119435764780
    DFT Exchange-Correlation Energy =       0.0000000000000000
    Empirical Dispersion Energy =           0.0000000000000000
    PCM Polarization Energy =               0.0000000000000000
    EFP Energy =                            0.0000000000000000
    Total Energy =                        -75.3748786358953708

    Alert: EFP and PCM quantities not currently incorporated into SCF psivars.

Properties will be evaluated at   0.000000,   0.000000,   0.000000 Bohr
  ==> Properties <==


Properties computed using the SCF density matrix

  Nuclear Dipole Moment: (a.u.)
     X:     0.0000      Y:     0.0000      Z:     0.0000

  Electronic Dipole Moment: (a.u.)
     X:     0.0000      Y:     0.0000      Z:     0.0000

  Dipole Moment: (a.u.)
     X:     0.0000      Y:     0.0000      Z:     0.0000     Total:     0.0000

  Dipole Moment: (Debye)
     X:     0.0000      Y:     0.0000      Z:     0.0000     Total:     0.0000


  Saving occupied orbitals to File 180.

*** tstop() called on Jeffs-MBP.attlocal.net at Fri Jan 22 16:49:34 2016
Module time:
	user time   =       0.39 seconds =       0.01 minutes
	system time =       0.02 seconds =       0.00 minutes
	total time  =          1 seconds =       0.02 minutes
Total time:
	user time   =       0.39 seconds =       0.01 minutes
	system time =       0.02 seconds =       0.00 minutes
	total time  =          1 seconds =       0.02 minutes
Reading options from the FORTE block
Calling plugin /Users/jeffschriber/src/forte/forte.so.


  ==> MO Space Information <==

  Read options for space FROZEN_DOCC
 Removing orbital 0
 Removing orbital 16
  -------------------------------------------------------------------------
                       Ag   B1g   B2g   B3g    Au   B1u   B2u   B3u   Sum
  -------------------------------------------------------------------------
    FROZEN_DOCC         1     0     0     0     0     1     0     0     2
    RESTRICTED_DOCC     0     0     0     0     0     0     0     0     0
    ACTIVE              7     1     3     3     1     7     3     3    28
    RESTRICTED_UOCC     0     0     0     0     0     0     0     0     0
    FROZEN_UOCC         0     0     0     0     0     0     0     0     0
    Total               8     1     3     3     1     8     3     3    30
  -------------------------------------------------------------------------

  ==> Integral Transformation <==

  Number of molecular orbitals:               30
  Number of correlated molecular orbitals:    28
  Number of frozen occupied orbitals:          2
  Number of frozen unoccupied orbitals:        0


  Overall Conventional Integrals timings

	Presorting SO-basis two-electron integrals.
	Sorting File: SO Ints (nn|nn) nbuckets = 1
	Transforming the one-electron integrals and constructing Fock matrices
	Starting first half-transformation.
	Sorting half-transformed integrals.
	First half integral transformation complete.
	Starting second half-transformation.
	Two-electron integral transformation complete.

  Integral transformation done. 0.02399100 s
  Reading the two-electron integrals from disk
  Size of two-electron integrals:   0.018105 GB MINTS: Wrapper to libmints.
   by Justin Turney

   Calculation information:
      Number of atoms:                   2
      Number of AO shells:              12
      Number of SO shells:               6
      Number of primitives:             30
      Number of atomic orbitals:        30
      Number of basis functions:        30

      Number of irreps:                  8
      Integral cutoff                 1.00e-12
      Number of functions per irrep: [   8    1    3    3    1    8    3    3 ]

 OEINTS: Overlap, kinetic, potential, dipole, and quadrupole integrals
         stored in file 35.

      Computing two-electron integrals...done
      Computed 15467 non-zero two-electron integrals.
        Stored in file 33.

	Batch   1 pq = [       0,      98] index = [             0,4851]

  Frozen-core energy            -72.854832514490 a.u.

 FrozenOneBody Operator takes  0.12372100 s
  Resorting integrals after freezing core.
  Conventional integrals take 0.22133000 s

                ------------------------------------------------
                  Second-Order Moller-Plesset Natural Orbitals
                      written by Francesco A. Evangelista
                ------------------------------------------------


    SCF energy                            =  -75.374878635895371
    MP2 correlation energy                =   -0.319645384811730
  * MP2 total energy                      =  -75.694524020707107

	Presorting SO-basis two-electron integrals.
	Sorting File: SO Ints (nn|nn) nbuckets = 1
	Transforming the one-electron integrals and constructing Fock matrices
	Starting first half-transformation.
	Sorting half-transformed integrals.
	First half integral transformation complete.
	Starting second half-transformation.
	Two-electron integral transformation complete.

  Integral transformation done. 0.02126400 s
  Reading the two-electron integrals from disk
  Size of two-electron integrals:   0.018105 GB MINTS: Wrapper to libmints.
   by Justin Turney

   Calculation information:
      Number of atoms:                   2
      Number of AO shells:              12
      Number of SO shells:               6
      Number of primitives:             30
      Number of atomic orbitals:        30
      Number of basis functions:        30

      Number of irreps:                  8
      Integral cutoff                 1.00e-12
      Number of functions per irrep: [   8    1    3    3    1    8    3    3 ]

 OEINTS: Overlap, kinetic, potential, dipole, and quadrupole integrals
         stored in file 35.

      Computing two-electron integrals...done
      Computed 15467 non-zero two-electron integrals.
        Stored in file 33.

	Batch   1 pq = [       0,      98] index = [             0,4851]

  Frozen-core energy            -72.854832514490 a.u.

 FrozenOneBody Operator takes  0.13239500 s
  Resorting integrals after freezing core.
  Frozen Orbitals takes     0.161 s.

                    ---------------------------------------
                      Adaptive Configuration Interaction
                      written by Francesco A. Evangelista
                    ---------------------------------------

  ==> Reference Information <==

  There are 2 frozen orbitals.
  There are 28 active orbitals.

  |2000000000000002000000200200>
  REFERENCE ENERGY:         -75.374878635895
  ==> Calculation Information <==

  -----------------------------------------------------------------
    Multiplicity                             1    
    Symmetry                                 0    
    Number of roots                          3    
    Root used for properties                 0    
    P-threshold                              5.00e-02
    Q-threshold                              5.00e-02
    Convergence threshold                    1.00e-10
    Determinant selection criterion          First-order Coefficients
    Selection criterion                      Threshold
    PQ Function                              AVERAGE
    Q Type                                   Absolute Energy
    PT2 Parameters                           False
    Project out spin contaminants            True
    Enforce spin completeness of basis       True
    Enforce complete aimed selection         True
  -----------------------------------------------------------------

  ==> Cycle 0 <==

  Initial P space dimension: 1
  Spin-complete dimension of the P space: 1 determinants
  Time spent diagonalizing H:   0.000059 s
  Not performing spin projection.

    P-space  CI Energy Root   1        = -75.374878635895 Eh =   0.0000 eV

  Dimension of the SD space: 1564 determinants
  Time spent building the model space: 0.005001 s

  Using non-perturbative energy estimates
  Dimension of the P + Q space: 25 determinants
  Time spent screening the model space: 0.016200 s
  Spin-complete dimension of the PQ space: 27
  Time spent diagonalizing H:   0.001668 s
  Not performing spin projection.

    PQ-space CI Energy Root   1        = -75.541798294184 Eh =   0.0000 eV
    PQ-space CI Energy + EPT2 Root   1 = -75.733659930633 Eh =   0.0000 eV


  Most important contributions to root   0:
    0   0.927483 0.860224768           0 |2000000000000002000000200200>
    1  -0.216801 0.047002814          13 |2000002000000000000000200200>
    2  -0.113275 0.012831305           7 |2000000000000202000000000200>
    3  -0.113275 0.012831305           3 |2000000000200002000000200000>
    4  -0.079850 0.006376078          21 |200000-000000+0+000000-00200>
    5  -0.079850 0.006376078          18 |200000+000000-0-000000+00200>
    6   0.079850 0.006376078          20 |200000+000-0000-000000200+00>
    7   0.079850 0.006376078           6 |200000-000+0000+000000200-00>
    8   0.067072 0.004498622           5 |2000000000+00-02000000+00-00>
    9   0.067072 0.004498622          22 |2000000000-00+02000000-00+00>

  Spin state for root 0: S^2 = 0.000, S = 0.000, singlet (from 26 determinants, 95.30)

  ==> Cycle 1 <==

  Initial P space dimension: 16
  Spin-complete dimension of the P space: 24 determinants
  Time spent diagonalizing H:   0.001414 s
  Not performing spin projection.

    P-space  CI Energy Root   1        = -75.539693427468 Eh =   0.0000 eV
    P-space  CI Energy Root   2        = -75.281300366237 Eh =   7.0312 eV
    P-space  CI Energy Root   3        = -75.239683574690 Eh =   8.1637 eV

  Dimension of the SD space: 27020 determinants
  Time spent building the model space: 0.173539 s

  Using non-perturbative energy estimates
  Dimension of the P + Q space: 26 determinants
  Time spent screening the model space: 0.249898 s
  Spin-complete dimension of the PQ space: 26
  Time spent diagonalizing H:   0.001566 s
  Not performing spin projection.

    PQ-space CI Energy Root   1        = -75.540814557676 Eh =   0.0000 eV
    PQ-space CI Energy + EPT2 Root   1 = -75.747691536886 Eh =   0.0000 eV
    PQ-space CI Energy Root   2        = -75.353006972632 Eh =   5.1105 eV
    PQ-space CI Energy + EPT2 Root   2 = -75.608983383381 Eh =   3.7744 eV
    PQ-space CI Energy Root   3        = -75.333637529574 Eh =   5.6376 eV
    PQ-space CI Energy + EPT2 Root   3 = -75.588017124717 Eh =   4.3450 eV


  Most important contributions to root   0:
    0  -0.926364 0.858150314           0 |2000000000000002000000200200>
    1   0.219117 0.048012249           9 |2000002000000000000000200200>
    2   0.112905 0.012747639           4 |2000000000000202000000000200>
    3   0.112905 0.012747639           1 |2000000000200002000000200000>
    4  -0.079971 0.006395333          12 |200000+000-0000-000000200+00>
    5  -0.079971 0.006395333           3 |200000-000+0000+000000200-00>
    6   0.079971 0.006395333          13 |200000-000000+0+000000-00200>
    7   0.079971 0.006395333          11 |200000+000000-0-000000+00200>
    8  -0.067108 0.004503434          14 |2000000000-00+02000000-00+00>
    9  -0.067108 0.004503434           2 |2000000000+00-02000000+00-00>

  Spin state for root 0: S^2 = 0.000, S = 0.000, singlet (from 26 determinants, 100.00)

  Most important contributions to root   1:
    0   0.699801 0.489721781          24 |2000002000000002000000200000>
    1  -0.699801 0.489721781          25 |2000002000000002000000000200>
    2  -0.057730 0.003332706           1 |2000000000200002000000200000>
    3   0.057730 0.003332706           4 |2000000000000202000000000200>
    4  -0.045909 0.002107632           3 |200000-000+0000+000000200-00>
    5  -0.045909 0.002107632          11 |200000+000000-0-000000+00200>
    6  -0.045909 0.002107632          12 |200000+000-0000-000000200+00>
    7  -0.045909 0.002107632          13 |200000-000000+0+000000-00200>
    8   0.034717 0.001205265          21 |200000+000+0000-000000200-00>
    9   0.034717 0.001205265          20 |200000-000-0000+000000200+00>

  Spin state for root 1: S^2 = 0.000, S = 0.000, singlet (from 26 determinants, 100.00)

  Most important contributions to root   2:
    0  -0.659981 0.435574302          25 |2000002000000002000000000200>
    1  -0.659981 0.435574302          24 |2000002000000002000000200000>
    2   0.300920 0.090553121           9 |2000002000000000000000200200>
    3   0.066805 0.004462972           4 |2000000000000202000000000200>
    4   0.066805 0.004462972           1 |2000000000200002000000200000>
    5   0.065445 0.004283045          23 |200000+000000+0-000000-00200>
    6   0.065445 0.004283045          22 |200000-000000-0+000000+00200>
    7  -0.065445 0.004283045          21 |200000+000+0000-000000200-00>
    8  -0.065445 0.004283045          20 |200000-000-0000+000000200+00>
    9  -0.048917 0.002392870          13 |200000-000000+0+000000-00200>

  Spin state for root 2: S^2 = 0.000, S = 0.000, singlet (from 26 determinants, 100.00)

  ==> Cycle 2 <==

  Initial P space dimension: 10
  Spin-complete dimension of the P space: 18 determinants
  Time spent diagonalizing H:   0.000933 s
  Not performing spin projection.

    P-space  CI Energy Root   1        = -75.521580636329 Eh =   0.0000 eV
    P-space  CI Energy Root   2        = -75.352903038231 Eh =   4.5900 eV
    P-space  CI Energy Root   3        = -75.332521134654 Eh =   5.1446 eV

  Dimension of the SD space: 21206 determinants
  Time spent building the model space: 0.123034 s

  Using non-perturbative energy estimates
  Dimension of the P + Q space: 24 determinants
  Time spent screening the model space: 0.190113 s
  Spin-complete dimension of the PQ space: 24
  Time spent diagonalizing H:   0.001332 s
  Not performing spin projection.

    PQ-space CI Energy Root   1        = -75.522945247792 Eh =   0.0000 eV
    PQ-space CI Energy + EPT2 Root   1 = -75.751259615676 Eh =   0.0000 eV
    PQ-space CI Energy Root   2        = -75.438711690006 Eh =   2.2921 eV
    PQ-space CI Energy + EPT2 Root   2 = -75.695935932310 Eh =   1.5054 eV
    PQ-space CI Energy Root   3        = -75.417935289928 Eh =   2.8575 eV
    PQ-space CI Energy + EPT2 Root   3 = -75.693740733351 Eh =   1.5652 eV


  Most important contributions to root   0:
    0   0.919728 0.845899734           0 |2000000000000002000000200200>
    1  -0.212401 0.045114133           4 |2000002000000000000000200200>
    2  -0.135900 0.018468782           1 |2000000000200002000000200000>
    3  -0.135900 0.018468782           3 |2000000000000202000000000200>
    4  -0.100947 0.010190241           9 |2000002000000002000000000200>
    5  -0.100947 0.010190241           8 |2000002000000002000000200000>
    6  -0.087946 0.007734568           7 |200000-000000+0+000000-00200>
    7  -0.087946 0.007734568           5 |200000+000000-0-000000+00200>
    8   0.087946 0.007734568           6 |200000+000-0000-000000200+00>
    9   0.087946 0.007734568           2 |200000-000+0000+000000200-00>

  Spin state for root 0: S^2 = 0.000, S = 0.000, singlet (from 23 determinants, 95.49)

  Most important contributions to root   1:
    0  -0.672739 0.452577172           8 |2000002000000002000000200000>
    1   0.672739 0.452577172           9 |2000002000000002000000000200>
    2   0.120877 0.014611341          18 |20000-+000000002000000200000>
    3   0.120877 0.014611341          22 |20000+-000000002000000200000>
    4  -0.120877 0.014611341          21 |20000-+000000002000000000200>
    5  -0.120877 0.014611341          23 |20000+-000000002000000000200>
    6   0.104229 0.010863647          19 |2000002000000202000000000000>
    7  -0.104229 0.010863647          20 |2000002000200002000000000000>
    8   0.050007 0.002500700           1 |2000000000200002000000200000>
    9  -0.050007 0.002500700           3 |2000000000000202000000000200>

  Spin state for root 1: S^2 = 0.000, S = 0.000, singlet (from 24 determinants, 100.00)

  Most important contributions to root   2:
    0  -0.647703 0.419518821           9 |2000002000000002000000000200>
    1  -0.647703 0.419518821           8 |2000002000000002000000200000>
    2   0.228383 0.052158757           4 |2000002000000000000000200200>
    3   0.116349 0.013537065          20 |2000002000200002000000000000>
    4   0.116349 0.013537065          19 |2000002000000202000000000000>
    5   0.114609 0.013135146          21 |20000-+000000002000000000200>
    6   0.114609 0.013135146          23 |20000+-000000002000000000200>
    7   0.114609 0.013135146          22 |20000+-000000002000000200000>
    8   0.114609 0.013135146          18 |20000-+000000002000000200000>
    9  -0.093307 0.008706162           0 |2000000000000002000000200200>

  Spin state for root 2: S^2 = 0.000, S = 0.000, singlet (from 24 determinants, 100.00)

  ==> Cycle 3 <==

  Initial P space dimension: 16
  Spin-complete dimension of the P space: 24 determinants
  Time spent diagonalizing H:   0.001291 s
  Not performing spin projection.

    P-space  CI Energy Root   1        = -75.522945247792 Eh =   0.0000 eV
    P-space  CI Energy Root   2        = -75.438711690006 Eh =   2.2921 eV
    P-space  CI Energy Root   3        = -75.417935289928 Eh =   2.8575 eV

  Dimension of the SD space: 27588 determinants
  Time spent building the model space: 0.167899 s

  Using non-perturbative energy estimates
  Dimension of the P + Q space: 24 determinants
  Time spent screening the model space: 0.255508 s
  Spin-complete dimension of the PQ space: 24
  Time spent diagonalizing H:   0.001329 s
  Not performing spin projection.

    PQ-space CI Energy Root   1        = -75.522945247792 Eh =   0.0000 eV
    PQ-space CI Energy + EPT2 Root   1 = -75.750318411023 Eh =   0.0000 eV
    PQ-space CI Energy Root   2        = -75.438711690006 Eh =   2.2921 eV
    PQ-space CI Energy + EPT2 Root   2 = -75.668871302111 Eh =   2.2163 eV
    PQ-space CI Energy Root   3        = -75.417935289928 Eh =   2.8575 eV
    PQ-space CI Energy + EPT2 Root   3 = -75.661532778589 Eh =   2.4160 eV

  ***** Calculation Converged *****
  Not performing spin projection.
  1-RDM  took 0.000344 s

  ==> ACI Summary <==

  Iterations required:                         3
  Dimension of optimized determinant space:    24

  * Adaptive-CI Energy Root   1        = -75.522945247792 Eh =   0.0000 eV
  * Adaptive-CI Energy Root   1 + EPT2 = -75.750318411023 Eh =   0.0000 eV
  * Adaptive-CI Energy Root   2        = -75.438711690006 Eh =   2.2921 eV
  * Adaptive-CI Energy Root   2 + EPT2 = -75.668871302111 Eh =   2.2163 eV
  * Adaptive-CI Energy Root   3        = -75.417935289928 Eh =   2.8575 eV
  * Adaptive-CI Energy Root   3 + EPT2 = -75.661532778589 Eh =   2.4160 eV

  ==> Wavefunction Information <==

  Most important contributions to root   0:
    0  -0.919728 0.845899734           0 |2000000000000002000000200200>
    1   0.212401 0.045114133           4 |2000002000000000000000200200>
    2   0.135900 0.018468782           3 |2000000000000202000000000200>
    3   0.135900 0.018468782           1 |2000000000200002000000200000>
    4   0.100947 0.010190241           8 |2000002000000002000000200000>
    5   0.100947 0.010190241           9 |2000002000000002000000000200>
    6  -0.087946 0.007734568           2 |200000-000+0000+000000200-00>
    7  -0.087946 0.007734568           6 |200000+000-0000-000000200+00>
    8   0.087946 0.007734568           5 |200000+000000-0-000000+00200>
    9   0.087946 0.007734568           7 |200000-000000+0+000000-00200>

  Spin state for root 0: S^2 = 0.000, S = 0.000, singlet (from 24 determinants, 100.00)

  Most important contributions to root   1:
    0  -0.672739 0.452577172           9 |2000002000000002000000000200>
    1   0.672739 0.452577172           8 |2000002000000002000000200000>
    2   0.120877 0.014611341          13 |20000-+000000002000000000200>
    3   0.120877 0.014611341          15 |20000+-000000002000000000200>
    4  -0.120877 0.014611341          14 |20000+-000000002000000200000>
    5  -0.120877 0.014611341          10 |20000-+000000002000000200000>
    6   0.104229 0.010863647          12 |2000002000200002000000000000>
    7  -0.104229 0.010863647          11 |2000002000000202000000000000>
    8   0.050007 0.002500700           3 |2000000000000202000000000200>
    9  -0.050007 0.002500700           1 |2000000000200002000000200000>

  Spin state for root 1: S^2 = 0.000, S = 0.000, singlet (from 24 determinants, 100.00)

  Most important contributions to root   2:
    0  -0.647703 0.419518821           8 |2000002000000002000000200000>
    1  -0.647703 0.419518821           9 |2000002000000002000000000200>
    2   0.228383 0.052158757           4 |2000002000000000000000200200>
    3   0.116349 0.013537065          11 |2000002000000202000000000000>
    4   0.116349 0.013537065          12 |2000002000200002000000000000>
    5   0.114609 0.013135146          14 |20000+-000000002000000200000>
    6   0.114609 0.013135146          10 |20000-+000000002000000200000>
    7   0.114609 0.013135146          15 |20000+-000000002000000000200>
    8   0.114609 0.013135146          13 |20000-+000000002000000000200>
    9  -0.093307 0.008706162           0 |2000000000000002000000200200>

  Spin state for root 2: S^2 = 0.000, S = 0.000, singlet (from 24 determinants, 100.00)

     Order		 # of Dets        Total |c^2|   
  __________ 	____________   ________________ 
       0                  1           0.84589973440
       1                  0           0.00000000000
       2                 21           0.15337852100
       3                  0           0.00000000000
       4                  2           0.00072174460

  Highest-order excitation searched:     8  

       0                  1           0.00000000000
       1                  0           0.00000000000
       2                 21           0.97827270650
       3                  0           0.00000000000
       4                  2           0.02172729350

  Highest-order excitation searched:     8  

       0                  1           0.00870616165
       1                  0           0.00000000000
       2                 21           0.96421970766
       3                  0           0.00000000000
       4                  2           0.02707413069

  Highest-order excitation searched:     8  


  Adaptive-CI (bitset) ran in : 1.247575 s

  Saving information for root: 1

  Your calculation took 2.12997100 seconds

*** PSI4 exiting successfully. Buy a developer a beer!
