
    -----------------------------------------------------------------------
          Psi4: An Open-Source Ab Initio Electronic Structure Package
                               Psi4 1.2a1.dev263 

                         Git: Rev {master} ae466b2 


    R. M. Parrish, L. A. Burns, D. G. A. Smith, A. C. Simmonett,
    A. E. DePrince III, E. G. Hohenstein, U. Bozkaya, A. Yu. Sokolov,
    R. Di Remigio, R. M. Richard, J. F. Gonthier, A. M. James,
    H. R. McAlexander, A. Kumar, M. Saitow, X. Wang, B. P. Pritchard,
    P. Verma, H. F. Schaefer III, K. Patkowski, R. A. King, E. F. Valeev,
    F. A. Evangelista, J. M. Turney, T. D. Crawford, and C. D. Sherrill,
    J. Chem. Theory Comput. in press (2017).
    (doi: 10.1021/acs.jctc.7b00174)

    -----------------------------------------------------------------------


    Psi4 started on: Tuesday, 06 June 2017 11:12PM

    Process ID:  89091
    PSIDATADIR: /Users/jeffschriber/src/psi4_debug_install/share/psi4
    Memory:     500.0 MiB
    Threads:    1
    
  ==> Input File <==

--------------------------------------------------------------------------
#! Generated using commit GITCOMMIT
# Tests mp2_nos with spin projected system for multiple roots


import forte

refscf = -75.37487863589541 
refaci = -75.647649941730
refacipt2 = -75.727514007633 

molecule N2{
C 
C 1 1.3
units angstrom
}

set {
  basis 6-31g* 
  scf_type pk
  freeze_core true
  reference rhf 
  e_convergence 10
  d_convergence 10
  r_convergence 10
  docc [2,0,0,0,0,2,1,1]
  guess gwh
}



set forte {
  job_type = aci
  multiplicity 1
  aci_select_type aimed_energy
  frozen_docc [1,0,0,0,0,1,0,0]
  sigma 0.08
  aci_excited_algorithm average
  aci_pq_function average
  aci_nroot 3
  mp2_nos true
  aci_average_offset 0
  charge 0
}

energy('scf')

compare_values(refscf, get_variable("CURRENT ENERGY"),9, "SCF energy") #TEST

energy('forte')
compare_values(refaci, get_variable("ACI ENERGY"),9, "ACI energy") #TEST
compare_values(refacipt2, get_variable("ACI+PT2 ENERGY"),8, "ACI+PT2 energy") #TEST
--------------------------------------------------------------------------
/Users/jeffschriber/src/forte/forte.so loaded.

*** tstart() called on Jeffs-MBP-2.attlocal.net
*** at Tue Jun  6 23:12:26 2017

   => Loading Basis Set <=

    Name: 6-31G*
    Role: ORBITAL
    Keyword: BASIS
    atoms 1-2 entry C          line   103 file /Users/jeffschriber/src/psi4_debug_install/share/psi4/basis/6-31gs.gbs 

    There are an even number of electrons - assuming singlet.
    Specify the multiplicity in the molecule input block.


         ---------------------------------------------------------
                                   SCF
            by Justin Turney, Rob Parrish, Andy Simmonett
                             and Daniel Smith
                              RHF Reference
                        1 Threads,    500 MiB Core
         ---------------------------------------------------------

  ==> Geometry <==

    Molecular point group: d2h
    Full point group: D_inf_h

    Geometry (in Angstrom), charge = 0, multiplicity = 1:

       Center              X                  Y                   Z               Mass       
    ------------   -----------------  -----------------  -----------------  -----------------
           C          0.000000000000     0.000000000000    -0.650000000000    12.000000000000
           C          0.000000000000     0.000000000000     0.650000000000    12.000000000000

  Running in d2h symmetry.

  Rotational constants: A = ************  B =      1.66249  C =      1.66249 [cm^-1]
  Rotational constants: A = ************  B =  49840.13856  C =  49840.13856 [MHz]
  Nuclear repulsion =   14.654138084030766

  Charge       = 0
  Multiplicity = 1
  Electrons    = 12
  Nalpha       = 6
  Nbeta        = 6

  ==> Algorithm <==

  SCF Algorithm Type is PK.
  DIIS enabled.
  MOM disabled.
  Fractional occupation disabled.
  Guess Type is GWH.
  Energy threshold   = 1.00e-10
  Density threshold  = 1.00e-10
  Integral threshold = 0.00e+00

  ==> Primary Basis <==

  Basis Set: 6-31G*
    Blend: 6-31G*
    Number of shells: 12
    Number of basis function: 30
    Number of Cartesian functions: 30
    Spherical Harmonics?: false
    Max angular momentum: 2

  ==> Pre-Iterations <==

   -------------------------------------------------------
    Irrep   Nso     Nmo     Nalpha   Nbeta   Ndocc  Nsocc
   -------------------------------------------------------
     Ag         8       8       2       2       2       0
     B1g        1       1       0       0       0       0
     B2g        3       3       0       0       0       0
     B3g        3       3       0       0       0       0
     Au         1       1       0       0       0       0
     B1u        8       8       2       2       2       0
     B2u        3       3       1       1       1       0
     B3u        3       3       1       1       1       0
   -------------------------------------------------------
    Total      30      30       6       6       6       0
   -------------------------------------------------------

  ==> Integral Setup <==

  Using in-core PK algorithm.
   Calculation information:
      Number of atoms:                   2
      Number of AO shells:              12
      Number of primitives:             30
      Number of atomic orbitals:        30
      Number of basis functions:        30

      Integral cutoff                 1.00e-12
      Number of threads:                 1

  Performing in-core PK
  Using 216690 doubles for integral storage.
  We computed 3081 shell quartets total.
  Whereas there are 3081 unique shell quartets.
  ==> DiskJK: Disk-Based J/K Matrices <==

    J tasked:                  Yes
    K tasked:                  Yes
    wK tasked:                  No
    Memory (MB):               375
    Schwarz Cutoff:          1E-12

    OpenMP threads:              1
  Minimum eigenvalue in the overlap matrix is 7.3141486613E-03.
  Using Symmetric Orthogonalization.

  SCF Guess: Generalized Wolfsberg-Helmholtz.

  ==> Iterations <==

                        Total Energy        Delta E     RMS |[F,P]|

   @RHF iter   1:   -72.79474628989087   -7.27947e+01   1.47325e-01 
   @RHF iter   2:   -75.33343709874566   -2.53869e+00   1.94490e-02 DIIS
   @RHF iter   3:   -75.37331932865823   -3.98822e-02   3.61275e-03 DIIS
   @RHF iter   4:   -75.37478841325861   -1.46908e-03   9.06752e-04 DIIS
   @RHF iter   5:   -75.37487453118443   -8.61179e-05   1.60111e-04 DIIS
   @RHF iter   6:   -75.37487859341579   -4.06223e-06   1.54812e-05 DIIS
   @RHF iter   7:   -75.37487863504765   -4.16319e-08   2.09863e-06 DIIS
   @RHF iter   8:   -75.37487863587710   -8.29445e-10   2.97344e-07 DIIS
   @RHF iter   9:   -75.37487863589479   -1.76925e-11   5.43223e-08 DIIS
   @RHF iter  10:   -75.37487863589541   -6.25278e-13   6.10893e-09 DIIS
   @RHF iter  11:   -75.37487863589543   -1.42109e-14   1.86525e-10 DIIS
   @RHF iter  12:   -75.37487863589541    1.42109e-14   1.63813e-11 DIIS

  ==> Post-Iterations <==

    Orbital Energies (a.u.)
    -----------------------

    Doubly Occupied:                                                      

       1Ag   -11.368628     1B1u  -11.367077     2Ag    -1.034489  
       2B1u   -0.524847     1B2u   -0.436705     1B3u   -0.436705  

    Virtual:                                                              

       3Ag    -0.097513     1B3g    0.157507     1B2g    0.157507  
       3B1u    0.464357     4Ag     0.675380     2B2u    0.721071  
       2B3u    0.721071     5Ag     0.751415     2B3g    0.840159  
       2B2g    0.840159     4B1u    0.913558     5B1u    1.274347  
       3B3u    1.711471     3B2u    1.711471     1B1g    1.793487  
       6Ag     1.793487     1Au     2.149832     6B1u    2.149832  
       7Ag     2.377092     3B2g    2.697346     3B3g    2.697346  
       7B1u    3.044324     8Ag     4.262621     8B1u    4.430804  

    Final Occupation by Irrep:
             Ag   B1g   B2g   B3g    Au   B1u   B2u   B3u 
    DOCC [     2,    0,    0,    0,    0,    2,    1,    1 ]

  Energy converged.

  @RHF Final Energy:   -75.37487863589541

   => Energetics <=

    Nuclear Repulsion Energy =             14.6541380840307660
    One-Electron Energy =                -129.7211286640988419
    Two-Electron Energy =                  39.6921119441726589
    Total Energy =                        -75.3748786358954135



Properties will be evaluated at   0.000000,   0.000000,   0.000000 Bohr

Properties computed using the SCF density matrix

  Nuclear Dipole Moment: (a.u.)
     X:     0.0000      Y:     0.0000      Z:     0.0000

  Electronic Dipole Moment: (a.u.)
     X:     0.0000      Y:     0.0000      Z:     0.0000

  Dipole Moment: (a.u.)
     X:     0.0000      Y:     0.0000      Z:     0.0000     Total:     0.0000

  Dipole Moment: (Debye)
     X:     0.0000      Y:     0.0000      Z:     0.0000     Total:     0.0000


*** tstop() called on Jeffs-MBP-2.attlocal.net at Tue Jun  6 23:12:26 2017
Module time:
	user time   =       0.19 seconds =       0.00 minutes
	system time =       0.02 seconds =       0.00 minutes
	total time  =          0 seconds =       0.00 minutes
Total time:
	user time   =       0.19 seconds =       0.00 minutes
	system time =       0.02 seconds =       0.00 minutes
	total time  =          0 seconds =       0.00 minutes
	SCF energy........................................................PASSED

*** tstart() called on Jeffs-MBP-2.attlocal.net
*** at Tue Jun  6 23:12:26 2017

   => Loading Basis Set <=

    Name: 6-31G*
    Role: ORBITAL
    Keyword: BASIS
    atoms 1-2 entry C          line   103 file /Users/jeffschriber/src/psi4_debug_install/share/psi4/basis/6-31gs.gbs 


         ---------------------------------------------------------
                                   SCF
            by Justin Turney, Rob Parrish, Andy Simmonett
                             and Daniel Smith
                              RHF Reference
                        1 Threads,    500 MiB Core
         ---------------------------------------------------------

  ==> Geometry <==

    Molecular point group: d2h
    Full point group: D_inf_h

    Geometry (in Angstrom), charge = 0, multiplicity = 1:

       Center              X                  Y                   Z               Mass       
    ------------   -----------------  -----------------  -----------------  -----------------
           C          0.000000000000     0.000000000000    -0.650000000000    12.000000000000
           C          0.000000000000     0.000000000000     0.650000000000    12.000000000000

  Running in d2h symmetry.

  Rotational constants: A = ************  B =      1.66249  C =      1.66249 [cm^-1]
  Rotational constants: A = ************  B =  49840.13856  C =  49840.13856 [MHz]
  Nuclear repulsion =   14.654138084030766

  Charge       = 0
  Multiplicity = 1
  Electrons    = 12
  Nalpha       = 6
  Nbeta        = 6

  ==> Algorithm <==

  SCF Algorithm Type is PK.
  DIIS enabled.
  MOM disabled.
  Fractional occupation disabled.
  Guess Type is GWH.
  Energy threshold   = 1.00e-10
  Density threshold  = 1.00e-10
  Integral threshold = 0.00e+00

  ==> Primary Basis <==

  Basis Set: 6-31G*
    Blend: 6-31G*
    Number of shells: 12
    Number of basis function: 30
    Number of Cartesian functions: 30
    Spherical Harmonics?: false
    Max angular momentum: 2

  ==> Pre-Iterations <==

   -------------------------------------------------------
    Irrep   Nso     Nmo     Nalpha   Nbeta   Ndocc  Nsocc
   -------------------------------------------------------
     Ag         8       8       2       2       2       0
     B1g        1       1       0       0       0       0
     B2g        3       3       0       0       0       0
     B3g        3       3       0       0       0       0
     Au         1       1       0       0       0       0
     B1u        8       8       2       2       2       0
     B2u        3       3       1       1       1       0
     B3u        3       3       1       1       1       0
   -------------------------------------------------------
    Total      30      30       6       6       6       0
   -------------------------------------------------------

  ==> Integral Setup <==

  Using in-core PK algorithm.
   Calculation information:
      Number of atoms:                   2
      Number of AO shells:              12
      Number of primitives:             30
      Number of atomic orbitals:        30
      Number of basis functions:        30

      Integral cutoff                 1.00e-12
      Number of threads:                 1

  Performing in-core PK
  Using 216690 doubles for integral storage.
  We computed 3081 shell quartets total.
  Whereas there are 3081 unique shell quartets.
  ==> DiskJK: Disk-Based J/K Matrices <==

    J tasked:                  Yes
    K tasked:                  Yes
    wK tasked:                  No
    Memory (MB):               375
    Schwarz Cutoff:          1E-12

    OpenMP threads:              1
  Minimum eigenvalue in the overlap matrix is 7.3141486613E-03.
  Using Symmetric Orthogonalization.

  SCF Guess: Generalized Wolfsberg-Helmholtz.

  ==> Iterations <==

                        Total Energy        Delta E     RMS |[F,P]|

   @RHF iter   1:   -72.79474628989085   -7.27947e+01   1.47325e-01 
   @RHF iter   2:   -75.33343709874566   -2.53869e+00   1.94490e-02 DIIS
   @RHF iter   3:   -75.37331932865820   -3.98822e-02   3.61275e-03 DIIS
   @RHF iter   4:   -75.37478841325861   -1.46908e-03   9.06752e-04 DIIS
   @RHF iter   5:   -75.37487453118443   -8.61179e-05   1.60111e-04 DIIS
   @RHF iter   6:   -75.37487859341579   -4.06223e-06   1.54812e-05 DIIS
   @RHF iter   7:   -75.37487863504765   -4.16319e-08   2.09863e-06 DIIS
   @RHF iter   8:   -75.37487863587710   -8.29445e-10   2.97344e-07 DIIS
   @RHF iter   9:   -75.37487863589479   -1.76925e-11   5.43223e-08 DIIS
   @RHF iter  10:   -75.37487863589541   -6.25278e-13   6.10893e-09 DIIS
   @RHF iter  11:   -75.37487863589543   -1.42109e-14   1.86525e-10 DIIS
   @RHF iter  12:   -75.37487863589541    1.42109e-14   1.63813e-11 DIIS

  ==> Post-Iterations <==

    Orbital Energies (a.u.)
    -----------------------

    Doubly Occupied:                                                      

       1Ag   -11.368628     1B1u  -11.367077     2Ag    -1.034489  
       2B1u   -0.524847     1B2u   -0.436705     1B3u   -0.436705  

    Virtual:                                                              

       3Ag    -0.097513     1B3g    0.157507     1B2g    0.157507  
       3B1u    0.464357     4Ag     0.675380     2B2u    0.721071  
       2B3u    0.721071     5Ag     0.751415     2B3g    0.840159  
       2B2g    0.840159     4B1u    0.913558     5B1u    1.274347  
       3B3u    1.711471     3B2u    1.711471     1B1g    1.793487  
       6Ag     1.793487     1Au     2.149832     6B1u    2.149832  
       7Ag     2.377092     3B2g    2.697346     3B3g    2.697346  
       7B1u    3.044324     8Ag     4.262621     8B1u    4.430804  

    Final Occupation by Irrep:
             Ag   B1g   B2g   B3g    Au   B1u   B2u   B3u 
    DOCC [     2,    0,    0,    0,    0,    2,    1,    1 ]

  Energy converged.

  @RHF Final Energy:   -75.37487863589541

   => Energetics <=

    Nuclear Repulsion Energy =             14.6541380840307660
    One-Electron Energy =                -129.7211286640988419
    Two-Electron Energy =                  39.6921119441726589
    Total Energy =                        -75.3748786358954135



Properties will be evaluated at   0.000000,   0.000000,   0.000000 Bohr

Properties computed using the SCF density matrix

  Nuclear Dipole Moment: (a.u.)
     X:     0.0000      Y:     0.0000      Z:     0.0000

  Electronic Dipole Moment: (a.u.)
     X:     0.0000      Y:     0.0000      Z:     0.0000

  Dipole Moment: (a.u.)
     X:     0.0000      Y:     0.0000      Z:     0.0000     Total:     0.0000

  Dipole Moment: (Debye)
     X:     0.0000      Y:     0.0000      Z:     0.0000     Total:     0.0000


*** tstop() called on Jeffs-MBP-2.attlocal.net at Tue Jun  6 23:12:27 2017
Module time:
	user time   =       0.19 seconds =       0.00 minutes
	system time =       0.02 seconds =       0.00 minutes
	total time  =          1 seconds =       0.02 minutes
Total time:
	user time   =       0.40 seconds =       0.01 minutes
	system time =       0.04 seconds =       0.00 minutes
	total time  =          1 seconds =       0.02 minutes
   => Loading Basis Set <=

    Name: STO-3G
    Role: ORBITAL
    Keyword: MINAO_BASIS
    atoms 1-2 entry C          line    61 file /Users/jeffschriber/src/psi4_debug_install/share/psi4/basis/sto-3g.gbs 


Reading options from the FORTE block
Calling plugin forte.so.




  ==> MO Space Information <==

  Read options for space FROZEN_DOCC
 Removing orbital 0
 Removing orbital 16
  -------------------------------------------------------------------------
                       Ag   B1g   B2g   B3g    Au   B1u   B2u   B3u   Sum
  -------------------------------------------------------------------------
    FROZEN_DOCC         1     0     0     0     0     1     0     0     2
    RESTRICTED_DOCC     0     0     0     0     0     0     0     0     0
    ACTIVE              7     1     3     3     1     7     3     3    28
    RESTRICTED_UOCC     0     0     0     0     0     0     0     0     0
    FROZEN_UOCC         0     0     0     0     0     0     0     0     0
    Total               8     1     3     3     1     8     3     3    30
  -------------------------------------------------------------------------

  ==> Integral Transformation <==

  Number of molecular orbitals:               30
  Number of correlated molecular orbitals:    28
  Number of frozen occupied orbitals:          2
  Number of frozen unoccupied orbitals:        0

    Molecular point group: d2h
    Full point group: D_inf_h

    Geometry (in Angstrom), charge = 0, multiplicity = 1:

       Center              X                  Y                   Z               Mass       
    ------------   -----------------  -----------------  -----------------  -----------------
           C          0.000000000000     0.000000000000    -0.650000000000    12.000000000000
           C          0.000000000000     0.000000000000     0.650000000000    12.000000000000

  -AO BASIS SET INFORMATION:
    Name                   = 6-31G*
    Blend                  = 6-31G*
    Total number of shells = 12
    Number of primitives   = 30
    Number of AO           = 30
    Number of SO           = 30
    Maximum AM             = 2
    Spherical Harmonics    = FALSE

  -Contraction Scheme:
    Atom   Type   All Primitives // Shells:
   ------ ------ --------------------------
       1     C     10s 4p 1d // 3s 2p 1d 
       2     C     10s 4p 1d // 3s 2p 1d 

  ==> AO Basis Functions <==

    [ 6-31G* ]
    cartesian
    ****
    C   1
    S   6 1.00
                      3047.52490000           0.00183470
                       457.36951000           0.01403730
                       103.94869000           0.06884260
                        29.21015500           0.23218440
                         9.28666300           0.46794130
                         3.16392700           0.36231200
    S   3 1.00
                         7.86827240          -0.11933240
                         1.88128850          -0.16085420
                         0.54424930           1.14345640
    P   3 1.00
                         7.86827240           0.06899910
                         1.88128850           0.31642400
                         0.54424930           0.74430830
    S   1 1.00
                         0.16871440           1.00000000
    P   1 1.00
                         0.16871440           1.00000000
    D   1 1.00
                         0.80000000           1.00000000
    ****


  Overall Conventional Integrals timings

   (n = 8): 0  0  0  0  0  0  0  0  
  SOs per irrep (n = 8): 8  1  3  3  1  8  3  3  
  Frozen core orbitals per irrep (n = 8): 0  0  0  0  0  0  0  0  
  Frozen core orbitals per irrep (n = 8): 8  1  3  3  1  8  3  3  
	Presorting SO-basis two-electron integrals.
	Sorting File: SO Ints (nn|nn) nbuckets = 1
	Transforming the one-electron integrals and constructing Fock matrices
	Starting first half-transformation.
	Sorting half-transformed integrals.
	First half integral transformation complete.
	Starting second half-transformation.
	Two-electron integral transformation complete.

  Integral transformation done. 0.02043400 s
  Reading the two-electron integrals from disk
  Size of two-electron integrals:   0.018105 GB  Using in-core PK algorithm.
   Calculation information:
      Number of atoms:                   2
      Number of AO shells:              12
      Number of primitives:             30
      Number of atomic orbitals:        30
      Number of basis functions:        30

      Integral cutoff                 1.00e-12
      Number of threads:                 1

  Performing in-core PK
  Using 216690 doubles for integral storage.
  We computed 3081 shell quartets total.
  Whereas there are 3081 unique shell quartets.

  Frozen-core energy            -72.854832514491 a.u.

  FrozenOneBody Operator takes  0.09180200 s
  Resorting integrals after freezing core.
  Conventional integrals take 0.24971100 s

                ------------------------------------------------
                  Second-Order Moller-Plesset Natural Orbitals
                      written by Francesco A. Evangelista
                ------------------------------------------------


    SCF energy                            =  -75.374878635895413
    MP2 correlation energy                =   -0.319645384812546
  * MP2 total energy                      =  -75.694524020707959

    Molecular point group: d2h
    Full point group: D_inf_h

    Geometry (in Angstrom), charge = 0, multiplicity = 1:

       Center              X                  Y                   Z               Mass       
    ------------   -----------------  -----------------  -----------------  -----------------
           C          0.000000000000     0.000000000000    -0.650000000000    12.000000000000
           C          0.000000000000     0.000000000000     0.650000000000    12.000000000000

  -AO BASIS SET INFORMATION:
    Name                   = 6-31G*
    Blend                  = 6-31G*
    Total number of shells = 12
    Number of primitives   = 30
    Number of AO           = 30
    Number of SO           = 30
    Maximum AM             = 2
    Spherical Harmonics    = FALSE

  -Contraction Scheme:
    Atom   Type   All Primitives // Shells:
   ------ ------ --------------------------
       1     C     10s 4p 1d // 3s 2p 1d 
       2     C     10s 4p 1d // 3s 2p 1d 

  ==> AO Basis Functions <==

    [ 6-31G* ]
    cartesian
    ****
    C   1
    S   6 1.00
                      3047.52490000           0.00183470
                       457.36951000           0.01403730
                       103.94869000           0.06884260
                        29.21015500           0.23218440
                         9.28666300           0.46794130
                         3.16392700           0.36231200
    S   3 1.00
                         7.86827240          -0.11933240
                         1.88128850          -0.16085420
                         0.54424930           1.14345640
    P   3 1.00
                         7.86827240           0.06899910
                         1.88128850           0.31642400
                         0.54424930           0.74430830
    S   1 1.00
                         0.16871440           1.00000000
    P   1 1.00
                         0.16871440           1.00000000
    D   1 1.00
                         0.80000000           1.00000000
    ****


 Integrals are about to be computed.   (n = 8): 0  0  0  0  0  0  0  0  
  SOs per irrep (n = 8): 8  1  3  3  1  8  3  3  
  Frozen core orbitals per irrep (n = 8): 0  0  0  0  0  0  0  0  
  Frozen core orbitals per irrep (n = 8): 8  1  3  3  1  8  3  3  
	Presorting SO-basis two-electron integrals.
	Sorting File: SO Ints (nn|nn) nbuckets = 1
	Transforming the one-electron integrals and constructing Fock matrices
	Starting first half-transformation.
	Sorting half-transformed integrals.
	First half integral transformation complete.
	Starting second half-transformation.
	Two-electron integral transformation complete.

  Integral transformation done. 0.01917400 s
  Reading the two-electron integrals from disk
  Size of two-electron integrals:   0.018105 GB
 Integrals are about to be updated.  Using in-core PK algorithm.
   Calculation information:
      Number of atoms:                   2
      Number of AO shells:              12
      Number of primitives:             30
      Number of atomic orbitals:        30
      Number of basis functions:        30

      Integral cutoff                 1.00e-12
      Number of threads:                 1

  Performing in-core PK
  Using 216690 doubles for integral storage.
  We computed 3081 shell quartets total.
  Whereas there are 3081 unique shell quartets.

  Frozen-core energy            -72.854832514491 a.u.

  FrozenOneBody Operator takes  0.08997900 s
  Resorting integrals after freezing core.
  Frozen Orbitals takes     0.121 s.
  Number of active orbitals: 28
  Number of active alpha electrons: 4
  Number of active beta electrons: 4
  0  0  -1.034489
  15  5  -0.524847
  22  6  -0.436705
  25  7  -0.436705
  1  0  -0.097513
  11  3  0.157507
 start mo: 2
 number alpha sub: 2
 number beta sub: 2
 The reference space contains 33 determinants

        ---------------------------------------------------------------
                      Adaptive Configuration Interaction
          written by Jeffrey B. Schriber and Francesco A. Evangelista
        ---------------------------------------------------------------

  ==> Reference Information <==

  There are 2 frozen orbitals.
  There are 28 active orbitals.

  ==> Calculation Information <==

  -----------------------------------------------------------------
    Multiplicity                             1    
    Ms                                       0    
    Symmetry                                 0    
    Number of roots                          3    
    Root used for properties                 0    
    Sigma                                    8.00e-02
    Gamma                                    1.00e+00
    Convergence threshold                    1.00e-09
    Determinant selection criterion          Second-order Energy
    Selection criterion                      Aimed selection
    Excited Algorithm                        AVERAGE
    Project out spin contaminants            True
    Enforce spin completeness of basis       True
    Enforce complete aimed selection         True
  -----------------------------------------------------------------
 Using 1 threads
  Computing wavefunction for root 0

  ==> Cycle 0 <==

  Initial P space dimension: 33
  Spin-complete dimension of the P space: 33 determinants
  Time spent building a_list   0.000247 s
  Time spent building b_list   0.000213 s
  Time spent building aa_list  0.000399 s
  Time spent building bb_list  0.000327 s
 Memory for AB_ann: 0.001 MB
  Time spent building ab_list  0.000867 s
  Time spent diagonalizing H:   0.002156 s

    P-space  CI Energy Root   0        = -75.375336468290 Eh =   0.0000 eV
    P-space  CI Energy Root   1        = -71.019062994538 Eh = 118.5402 eV
    P-space  CI Energy Root   2        = -70.985364457332 Eh = 119.4572 eV

  Dimension of the SD space: 38014 determinants
  Time spent building the model space: 0.298560 s

  Dimension of the P + Q space: 152 determinants
  Time spent screening the model space: 0.731673 s
  Spin-complete dimension of the PQ space: 224
  Time spent building a_list   0.001562 s
  Time spent building b_list   0.001346 s
  Time spent building aa_list  0.002043 s
  Time spent building bb_list  0.001998 s
 Memory for AB_ann: 0.017 MB
  Time spent building ab_list  0.005320 s

  Davidson-Liu solver algorithm
  Using SPARSE sigma builder
  Initial guess found 104 solutions with 2S+1 = 1 *
  Initial guess found 91 solutions with 2S+1 = 3  
  Initial guess found 29 solutions with 2S+1 = 5  
  Adding guess 0 (multiplicity = 1.000000)
  Adding guess 1 (multiplicity = 1.000000)
  Adding guess 2 (multiplicity = 1.000000)
  Adding guess 3 (multiplicity = 1.000000)
  Adding guess 4 (multiplicity = 1.000000)
  Adding guess 5 (multiplicity = 1.000000)

  ==> Diagonalizing Hamiltonian <==

  ----------------------------------------
    Iter.      Avg. Energy       Delta_E
  ----------------------------------------
      1      -90.094361040193  -9.009e+01
      2      -90.094361040194  -2.842e-14
  ----------------------------------------
  The Davidson-Liu algorithm converged in 3 iterations.
  Davidson-Liu procedure took  0.145487 s
  Total time spent diagonalizing H:   0.148470 s

    PQ-space CI Energy Root   0        = -75.608410529956 Eh =   0.0000 eV
    PQ-space CI Energy + EPT2 Root   0 = -75.687913779821 Eh =   0.0000 eV
    PQ-space CI Energy Root   1        = -75.360826326277 Eh =   6.7371 eV
    PQ-space CI Energy + EPT2 Root   1 = -1877.918013503463 Eh = -49041.1681 eV
    PQ-space CI Energy Root   2        = -75.351432012256 Eh =   6.9927 eV
    PQ-space CI Energy + EPT2 Root   2 = -1937.163826628453 Eh = -50653.3284 eV


  Most important contributions to root   0:
    0   0.929848 0.864616397          32 |2000000000000002000000200200>
    1  -0.190293 0.036211407         151 |2000002000000000000000200200>
    2  -0.100427 0.010085606         150 |2000000000000202000000000200>
    3  -0.100427 0.010085606         149 |2000000000200002000000200000>
    4  -0.071719 0.005143594         146 |200000+000000-0-000000+00200>
    5  -0.071719 0.005143594         147 |200000-000000+0+000000-00200>
    6   0.071719 0.005143594         145 |200000-000+0000+000000200-00>
    7   0.071719 0.005143594         148 |200000+000-0000-000000200+00>
    8   0.062122 0.003859090         144 |2000000000+00-02000000+00-00>
    9   0.062122 0.003859090         143 |2000000000-00+02000000-00+00>

  Spin state for root 0: S^2 = 0.024042, S = 0.025, singlet

  Most important contributions to root   1:
    0   0.697413 0.486384821         135 |2000002000000002000000000200>
    1  -0.697413 0.486384821         136 |2000002000000002000000200000>
    2  -0.059073 0.003489652         150 |2000000000000202000000000200>
    3   0.059073 0.003489652         149 |2000000000200002000000200000>
    4   0.051096 0.002610832         146 |200000+000000-0-000000+00200>
    5   0.051096 0.002610832         147 |200000-000000+0+000000-00200>
    6   0.051096 0.002610832         148 |200000+000-0000-000000200+00>
    7   0.051096 0.002610832         145 |200000-000+0000+000000200-00>
    8  -0.037086 0.001375389         141 |200000+000000+0-000000-00200>
    9  -0.037086 0.001375389         140 |200000-000000-0+000000+00200>

  Spin state for root 1: S^2 = 0.033232, S = 0.034, singlet

  Most important contributions to root   2:
    0  -0.653895 0.427578649         136 |2000002000000002000000200000>
    1  -0.653895 0.427578649         135 |2000002000000002000000000200>
    2   0.307566 0.094596776         151 |2000002000000000000000200200>
    3   0.076706 0.005883744         126 |0000002000000002000000200200>
    4  -0.065820 0.004332321         139 |200000+000+0000-000000200-00>
    5  -0.065820 0.004332321         142 |200000-000-0000+000000200+00>
    6   0.065820 0.004332321         141 |200000+000000+0-000000-00200>
    7   0.065820 0.004332321         140 |200000-000000-0+000000+00200>
    8   0.064896 0.004211555         149 |2000000000200002000000200000>
    9   0.064896 0.004211555         150 |2000000000000202000000000200>

  Spin state for root 2: S^2 = 0.054013, S = 0.057, singlet
  Cycle 0 took: 1.209948 s

  ==> Cycle 1 <==

  Initial P space dimension: 4
  Spin-complete dimension of the P space: 4 determinants
  Time spent building a_list   0.000032 s
  Time spent building b_list   0.000028 s
  Time spent building aa_list  0.000048 s
  Time spent building bb_list  0.000044 s
 Memory for AB_ann: 0.000 MB
  Time spent building ab_list  0.000116 s
  Time spent diagonalizing H:   0.000162 s

    P-space  CI Energy Root   0        = -75.486615683360 Eh =   0.0000 eV
    P-space  CI Energy Root   1        = -74.949156247558 Eh =  14.6250 eV
    P-space  CI Energy Root   2        = -74.693112367085 Eh =  21.5923 eV

  Dimension of the SD space: 5869 determinants
  Time spent building the model space: 0.025930 s

  Added 3 missing determinants in aimed selection.
  Dimension of the P + Q space: 175 determinants
  Time spent screening the model space: 0.117649 s
  Spin-complete dimension of the PQ space: 287
  Time spent building a_list   0.001646 s
  Time spent building b_list   0.001635 s
  Time spent building aa_list  0.002501 s
  Time spent building bb_list  0.002469 s
 Memory for AB_ann: 0.029 MB
  Time spent building ab_list  0.007737 s

  Davidson-Liu solver algorithm
  Using SPARSE sigma builder
  Initial guess found 114 solutions with 2S+1 = 1 *
  Initial guess found 131 solutions with 2S+1 = 3  
  Initial guess found 42 solutions with 2S+1 = 5  
  Adding guess 0 (multiplicity = 1.000000)
  Adding guess 1 (multiplicity = 1.000000)
  Adding guess 2 (multiplicity = 1.000000)
  Adding guess 3 (multiplicity = 1.000000)
  Adding guess 4 (multiplicity = 1.000000)
  Adding guess 5 (multiplicity = 1.000000)

  ==> Diagonalizing Hamiltonian <==

  ----------------------------------------
    Iter.      Avg. Energy       Delta_E
  ----------------------------------------
      1      -89.995488193501  -9.000e+01
      2      -89.995488193501  +2.842e-14
  ----------------------------------------
  The Davidson-Liu algorithm converged in 3 iterations.
  Davidson-Liu procedure took  0.254523 s
  Total time spent diagonalizing H:   0.257154 s

    PQ-space CI Energy Root   0        = -75.642981179200 Eh =   0.0000 eV
    PQ-space CI Energy + EPT2 Root   0 = -75.722866263509 Eh =   0.0000 eV
    PQ-space CI Energy Root   1        = -75.266262215869 Eh =  10.2510 eV
    PQ-space CI Energy + EPT2 Root   1 = -76.327601786402 Eh = -16.4557 eV
    PQ-space CI Energy Root   2        = -75.114806933343 Eh =  14.3724 eV
    PQ-space CI Energy + EPT2 Root   2 = -77.057064484686 Eh = -36.3054 eV


  Most important contributions to root   0:
    0  -0.886970 0.786715767           3 |2000000000000002000000200200>
    1   0.292286 0.085430988           2 |2000002000000000000000200200>
    2   0.112167 0.012581345           0 |2000000000200002000000200000>
    3   0.112167 0.012581345           1 |2000000000000202000000000200>
    4   0.078119 0.006102606         169 |200000-000000+0+000000-00200>
    5   0.078119 0.006102606         168 |200000+000000-0-000000+00200>
    6  -0.078119 0.006102606         166 |200000+000-0000-000000200+00>
    7  -0.078119 0.006102606         167 |200000-000+0000+000000200-00>
    8  -0.062267 0.003877160         170 |2000000000+00-02000000+00-00>
    9  -0.062267 0.003877160         171 |2000000000-00+02000000-00+00>

  Spin state for root 0: S^2 = 0.020292, S = 0.021, singlet

  Most important contributions to root   1:
    0   0.722607 0.522161156           2 |2000002000000000000000200200>
    1   0.314848 0.099129480           3 |2000000000000002000000200200>
    2   0.178355 0.031810385         140 |-00000+000000002000000200200>
    3   0.178355 0.031810385         139 |+00000-000000002000000200200>
    4  -0.165539 0.027403163         143 |200000-000-0000+000000200+00>
    5  -0.165539 0.027403163         144 |200000+000+0000-000000200-00>
    6   0.165539 0.027403163         145 |200000+000000+0-000000-00200>
    7   0.165539 0.027403163         146 |200000-000000-0+000000+00200>
    8  -0.160322 0.025703065         161 |200000-000+0000-000000200+00>
    9  -0.160322 0.025703065         160 |200000+000-0000+000000200-00>

  Spin state for root 1: S^2 = 0.021617, S = 0.022, singlet

  Most important contributions to root   2:
    0  -0.460982 0.212504015           2 |2000002000000000000000200200>
    1   0.291006 0.084684267         158 |200000+000000-0+000000-00200>
    2   0.291006 0.084684267         159 |200000-000000+0-000000+00200>
    3  -0.291006 0.084684267         160 |200000+000-0000+000000200-00>
    4  -0.291006 0.084684267         161 |200000-000+0000-000000200+00>
    5   0.225694 0.050937937         169 |200000-000000+0+000000-00200>
    6   0.225694 0.050937937         168 |200000+000000-0-000000+00200>
    7  -0.225694 0.050937937         166 |200000+000-0000-000000200+00>
    8  -0.225694 0.050937937         167 |200000-000+0000+000000200-00>
    9   0.167461 0.028043242         163 |2000000000+00+02000000-00-00>

  Spin state for root 2: S^2 = 0.029732, S = 0.031, singlet
  Cycle 1 took: 0.424381 s

  ==> Cycle 2 <==

  Initial P space dimension: 8
  Spin-complete dimension of the P space: 16 determinants
  Time spent building a_list   0.000105 s
  Time spent building b_list   0.000101 s
  Time spent building aa_list  0.000159 s
  Time spent building bb_list  0.000152 s
 Memory for AB_ann: 0.001 MB
  Time spent building ab_list  0.000408 s
  Time spent diagonalizing H:   0.000787 s

    P-space  CI Energy Root   0        = -75.520469425682 Eh =   0.0000 eV
    P-space  CI Energy Root   1        = -75.274985387970 Eh =   6.6800 eV
    P-space  CI Energy Root   2        = -75.239683574694 Eh =   7.6406 eV

  Dimension of the SD space: 19171 determinants
  Time spent building the model space: 0.124693 s

  Added 1 missing determinants in aimed selection.
  Dimension of the P + Q space: 178 determinants
  Time spent screening the model space: 0.355237 s
  Spin-complete dimension of the PQ space: 272
  Time spent building a_list   0.001677 s
  Time spent building b_list   0.001551 s
  Time spent building aa_list  0.002380 s
  Time spent building bb_list  0.002335 s
 Memory for AB_ann: 0.028 MB
  Time spent building ab_list  0.006466 s

  Davidson-Liu solver algorithm
  Using SPARSE sigma builder
  Initial guess found 113 solutions with 2S+1 = 1 *
  Initial guess found 121 solutions with 2S+1 = 3  
  Initial guess found 38 solutions with 2S+1 = 5  
  Adding guess 0 (multiplicity = 1.000000)
  Adding guess 1 (multiplicity = 1.000000)
  Adding guess 2 (multiplicity = 1.000000)
  Adding guess 3 (multiplicity = 1.000000)
  Adding guess 4 (multiplicity = 1.000000)
  Adding guess 5 (multiplicity = 1.000000)

  ==> Diagonalizing Hamiltonian <==

  ----------------------------------------
    Iter.      Avg. Energy       Delta_E
  ----------------------------------------
      1      -90.120535701405  -9.012e+01
      2      -90.120535701405  +1.421e-14
  ----------------------------------------
  The Davidson-Liu algorithm converged in 3 iterations.
  Davidson-Liu procedure took  0.221060 s
  Total time spent diagonalizing H:   0.222736 s

    PQ-space CI Energy Root   0        = -75.647649941730 Eh =   0.0000 eV
    PQ-space CI Energy + EPT2 Root   0 = -75.727514007633 Eh =   0.0000 eV
    PQ-space CI Energy Root   1        = -75.377395511983 Eh =   7.3540 eV
    PQ-space CI Energy + EPT2 Root   1 = -75.599393353805 Eh =   3.4863 eV
    PQ-space CI Energy Root   2        = -75.374147398409 Eh =   7.4424 eV
    PQ-space CI Energy + EPT2 Root   2 = -75.600768543953 Eh =   3.4489 eV

  Added 2 missing determinants in aimed selection.

  Most important contributions to root   0:
    0   0.885577 0.784246421           7 |2000000000000002000000200200>
    1  -0.263105 0.069224225           6 |2000002000000000000000200200>
    2  -0.115874 0.013426758           5 |2000000000200002000000200000>
    3  -0.115874 0.013426758           4 |2000000000000202000000000200>
    4  -0.089090 0.007937059           3 |200000-000000+0+000000-00200>
    5  -0.089090 0.007937059           2 |200000+000000-0-000000+00200>
    6   0.089090 0.007937059           1 |200000+000-0000-000000200+00>
    7   0.089090 0.007937059           0 |200000-000+0000+000000200-00>
    8  -0.068117 0.004639882          10 |200000+000000-0+000000-00200>
    9  -0.068117 0.004639882           9 |200000-000000+0-000000+00200>

  Spin state for root 0: S^2 = 0.030575, S = 0.032, singlet

  Most important contributions to root   1:
    0   0.691629 0.478350063          84 |2000002000000002000000000200>
    1  -0.691629 0.478350063          83 |2000002000000002000000200000>
    2  -0.063236 0.003998737         175 |2000002000000200000000000200>
    3   0.063236 0.003998737         176 |2000002000200000000000200000>
    4   0.055554 0.003086285           2 |200000+000000-0-000000+00200>
    5   0.055554 0.003086285           3 |200000-000000+0+000000-00200>
    6   0.055554 0.003086285           1 |200000+000-0000-000000200+00>
    7   0.055554 0.003086285           0 |200000-000+0000+000000200-00>
    8  -0.040978 0.001679166           4 |2000000000000202000000000200>
    9   0.040978 0.001679166           5 |2000000000200002000000200000>

  Spin state for root 1: S^2 = 0.050707, S = 0.053, singlet

  Most important contributions to root   2:
    0  -0.623961 0.389327410          83 |2000002000000002000000200000>
    1  -0.623961 0.389327410          84 |2000002000000002000000000200>
    2   0.383629 0.147171067           6 |2000002000000000000000200200>
    3  -0.075854 0.005753759          15 |200000+000+0000-000000200-00>
    4  -0.075854 0.005753759          13 |200000-000-0000+000000200+00>
    5   0.075854 0.005753759          12 |200000+000000+0-000000-00200>
    6   0.075854 0.005753759           8 |200000-000000-0+000000+00200>
    7   0.069926 0.004889607         152 |0000002000000002000000200200>
    8   0.060734 0.003688591           7 |2000000000000002000000200200>
    9   0.052160 0.002720652           1 |200000+000-0000-000000200+00>

  Spin state for root 2: S^2 = 0.079561, S = 0.086, singlet
  Cycle 2 took: 0.729456 s

  ==> Cycle 3 <==

  Initial P space dimension: 12
  Spin-complete dimension of the P space: 16 determinants
  Time spent building a_list   0.000104 s
  Time spent building b_list   0.000100 s
  Time spent building aa_list  0.000157 s
  Time spent building bb_list  0.000149 s
 Memory for AB_ann: 0.001 MB
  Time spent building ab_list  0.000409 s
  Time spent diagonalizing H:   0.000915 s

    P-space  CI Energy Root   0        = -75.520469425682 Eh =   0.0000 eV
    P-space  CI Energy Root   1        = -75.274985387970 Eh =   6.6800 eV
    P-space  CI Energy Root   2        = -75.239683574694 Eh =   7.6406 eV

  Dimension of the SD space: 19171 determinants
  Time spent building the model space: 0.122204 s

  Added 1 missing determinants in aimed selection.
  Dimension of the P + Q space: 178 determinants
  Time spent screening the model space: 0.360941 s
  Spin-complete dimension of the PQ space: 272
  Time spent building a_list   0.001563 s
  Time spent building b_list   0.001557 s
  Time spent building aa_list  0.002379 s
  Time spent building bb_list  0.004358 s
 Memory for AB_ann: 0.028 MB
  Time spent building ab_list  0.007208 s

  Davidson-Liu solver algorithm
  Using SPARSE sigma builder
  Initial guess found 113 solutions with 2S+1 = 1 *
  Initial guess found 121 solutions with 2S+1 = 3  
  Initial guess found 38 solutions with 2S+1 = 5  
  Adding guess 0 (multiplicity = 1.000000)
  Adding guess 1 (multiplicity = 1.000000)
  Adding guess 2 (multiplicity = 1.000000)
  Adding guess 3 (multiplicity = 1.000000)
  Adding guess 4 (multiplicity = 1.000000)
  Adding guess 5 (multiplicity = 1.000000)

  ==> Diagonalizing Hamiltonian <==

  ----------------------------------------
    Iter.      Avg. Energy       Delta_E
  ----------------------------------------
      1      -90.120535701405  -9.012e+01
      2      -90.120535701405  +4.263e-14
  ----------------------------------------
  The Davidson-Liu algorithm converged in 3 iterations.
  Davidson-Liu procedure took  0.227056 s
  Total time spent diagonalizing H:   0.228784 s

    PQ-space CI Energy Root   0        = -75.647649941729 Eh =   0.0000 eV
    PQ-space CI Energy + EPT2 Root   0 = -75.727514007633 Eh =   0.0000 eV
    PQ-space CI Energy Root   1        = -75.377395511983 Eh =   7.3540 eV
    PQ-space CI Energy + EPT2 Root   1 = -75.599393353804 Eh =   3.4863 eV
    PQ-space CI Energy Root   2        = -75.374147398409 Eh =   7.4424 eV
    PQ-space CI Energy + EPT2 Root   2 = -75.600768543953 Eh =   3.4489 eV

  ***** Calculation Converged *****
  Not performing spin projection.

  ==> ACI Summary <==

  Iterations required:                         3
  Dimension of optimized determinant space:    272

  * Adaptive-CI Energy Root   0        = -75.647649941729 Eh =   0.0000 eV
  * Adaptive-CI Energy Root   0 + EPT2 = -75.727514007633 Eh =   0.0000 eV
  * Adaptive-CI Energy Root   1        = -75.377395511983 Eh =   7.3540 eV
  * Adaptive-CI Energy Root   1 + EPT2 = -75.599393353804 Eh =   3.4863 eV
  * Adaptive-CI Energy Root   2        = -75.374147398409 Eh =   7.4424 eV
  * Adaptive-CI Energy Root   2 + EPT2 = -75.600768543953 Eh =   3.4489 eV

  ==> Wavefunction Information <==

  Most important contributions to root   0:
    0   0.885577 0.784246421           9 |2000000000000002000000200200>
    1  -0.263105 0.069224225           8 |2000002000000000000000200200>
    2  -0.115874 0.013426758           7 |2000000000200002000000200000>
    3  -0.115874 0.013426758           6 |2000000000000202000000000200>
    4  -0.089090 0.007937059           5 |200000-000000+0+000000-00200>
    5  -0.089090 0.007937059           4 |200000+000000-0-000000+00200>
    6   0.089090 0.007937059           3 |200000-000+0000+000000200-00>
    7   0.089090 0.007937059           2 |200000+000-0000-000000200+00>
    8  -0.068117 0.004639882           1 |200000+000000-0+000000-00200>
    9  -0.068117 0.004639882           0 |200000-000000+0-000000+00200>

  Spin state for root 0: S^2 = 0.030575, S = 0.032, singlet

  Most important contributions to root   1:
    0   0.691629 0.478350063          84 |2000002000000002000000000200>
    1  -0.691629 0.478350063          83 |2000002000000002000000200000>
    2  -0.063236 0.003998737         176 |2000002000000200000000000200>
    3   0.063236 0.003998737         175 |2000002000200000000000200000>
    4   0.055554 0.003086285           4 |200000+000000-0-000000+00200>
    5   0.055554 0.003086285           5 |200000-000000+0+000000-00200>
    6   0.055554 0.003086285           2 |200000+000-0000-000000200+00>
    7   0.055554 0.003086285           3 |200000-000+0000+000000200-00>
    8  -0.040978 0.001679166           6 |2000000000000202000000000200>
    9   0.040978 0.001679166           7 |2000000000200002000000200000>

  Spin state for root 1: S^2 = 0.050707, S = 0.053, singlet

  Most important contributions to root   2:
    0  -0.623961 0.389327410          83 |2000002000000002000000200000>
    1  -0.623961 0.389327410          84 |2000002000000002000000000200>
    2   0.383629 0.147171067           8 |2000002000000000000000200200>
    3  -0.075854 0.005753759          13 |200000+000+0000-000000200-00>
    4  -0.075854 0.005753759          12 |200000-000-0000+000000200+00>
    5   0.075854 0.005753759          15 |200000+000000+0-000000-00200>
    6   0.075854 0.005753759          14 |200000-000000-0+000000+00200>
    7   0.069926 0.004889607         152 |0000002000000002000000200200>
    8   0.060734 0.003688591           9 |2000000000000002000000200200>
    9   0.052160 0.002720652           2 |200000+000-0000-000000200+00>

  Spin state for root 2: S^2 = 0.079561, S = 0.086, singlet
  Time spent building a_ann_list   0.001138 s
  Time spent building b_ann_list   0.001180 s
  Time spent building aa_ann_list  0.001738 s
  Time spent building bb_ann_list  0.001768 s
 Memory for AB_ann: 0.105 MB
  Time spent building ab_ann_list  0.004769 s
  1-RDM  took 0.000146 s (determinant)

  ==> NATURAL ORBITALS <==

        1Ag     1.982246      1B2u    1.905529      1B3u    1.905529  
        1B1u    1.768475      2Ag     0.224777      1B2g    0.090474  
        1B3g    0.090474      2B1u    0.008135      3Ag     0.004471  
        2B2u    0.004445      2B3u    0.004445      4Ag     0.002669  
        1B1g    0.002546      3B1u    0.001460      3B2u    0.001269  
        3B3u    0.001269      4B1u    0.000604      5Ag     0.000479  
        2B2g    0.000351      2B3g    0.000351      7B1u    0.000000  
        6B1u    0.000000      5B1u    0.000000      1Au     0.000000  
        3B3g    0.000000      3B2g    0.000000      6Ag     0.000000  
        7Ag    -0.000000  



  Adaptive-CI (bitset) ran in : 3.118537 s

  Saving information for root: 0

  Your calculation took 3.92903500 seconds
	ACI energy........................................................PASSED
	ACI+PT2 energy....................................................PASSED

*** Psi4 exiting successfully. Buy a developer a beer!
