
    -----------------------------------------------------------------------
          Psi4: An Open-Source Ab Initio Electronic Structure Package
                               Psi4 undefined 

                         Git: Rev {master} 335343d dirty


    R. M. Parrish, L. A. Burns, D. G. A. Smith, A. C. Simmonett,
    A. E. DePrince III, E. G. Hohenstein, U. Bozkaya, A. Yu. Sokolov,
    R. Di Remigio, R. M. Richard, J. F. Gonthier, A. M. James,
    H. R. McAlexander, A. Kumar, M. Saitow, X. Wang, B. P. Pritchard,
    P. Verma, H. F. Schaefer III, K. Patkowski, R. A. King, E. F. Valeev,
    F. A. Evangelista, J. M. Turney, T. D. Crawford, and C. D. Sherrill,
    J. Chem. Theory Comput. 13(7) pp 3185--3197 (2017).
    (doi: 10.1021/acs.jctc.7b00174)


                         Additional Contributions by
    P. Kraus, H. Kruse, M. H. Lechner, M. C. Schieber, and R. A. Shaw

    -----------------------------------------------------------------------


    Psi4 started on: Wednesday, 19 December 2018 10:27AM

    Process ID: 70621
    Host:       laptop-btkos4mc.wireless.emory.edu
    PSIDATADIR: /Users/jeffschriber/src/psi4-debug-install/share/psi4
    Memory:     500.0 MiB
    Threads:    1
    
  ==> Input File <==

--------------------------------------------------------------------------
#! Generated using commit GITCOMMIT
# Tests mp2_nos with spin projected system for multiple roots


import forte

refscf = -75.37487863589541 
refaci = -75.647649941730
refacipt2 = -75.727514007633 

molecule N2{
C 
C 1 1.3
units angstrom
}

set {
  basis 6-31g* 
  scf_type pk
  freeze_core true
  reference rhf 
  e_convergence 10
  d_convergence 10
  r_convergence 10
  docc [2,0,0,0,0,2,1,1]
  guess gwh
}



set forte {
  job_type = aci
  multiplicity 1
  aci_select_type aimed_energy
  frozen_docc [1,0,0,0,0,1,0,0]
  sigma 0.08
  aci_excited_algorithm average
  aci_pq_function average
  aci_nroot 3
  mp2_nos true
  aci_average_offset 0
  charge 0
  diag_algorithm dynamic
}

energy('scf')

compare_values(refscf, variable("CURRENT ENERGY"),9, "SCF energy") #TEST

energy('forte')
compare_values(refaci, variable("ACI ENERGY"),9, "ACI energy") #TEST
compare_values(refacipt2, variable("ACI+PT2 ENERGY"),8, "ACI+PT2 energy") #TEST
--------------------------------------------------------------------------

*** tstart() called on laptop-btkos4mc.wireless.emory.edu
*** at Wed Dec 19 10:27:33 2018

   => Loading Basis Set <=

    Name: 6-31G*
    Role: ORBITAL
    Keyword: BASIS
    atoms 1-2 entry C          line   111 file /Users/jeffschriber/src/psi4-debug-install/share/psi4/basis/6-31gs.gbs 


         ---------------------------------------------------------
                                   SCF
            by Justin Turney, Rob Parrish, Andy Simmonett
                             and Daniel Smith
                              RHF Reference
                        1 Threads,    500 MiB Core
         ---------------------------------------------------------

  ==> Geometry <==

    Molecular point group: d2h
    Full point group: D_inf_h

    Geometry (in Angstrom), charge = 0, multiplicity = 1:

       Center              X                  Y                   Z               Mass       
    ------------   -----------------  -----------------  -----------------  -----------------
         C            0.000000000000     0.000000000000    -0.650000000000    12.000000000000
         C            0.000000000000     0.000000000000     0.650000000000    12.000000000000

  Running in d2h symmetry.

  Rotational constants: A = ************  B =      1.66249  C =      1.66249 [cm^-1]
  Rotational constants: A = ************  B =  49840.13894  C =  49840.13894 [MHz]
  Nuclear repulsion =   14.654138141630769

  Charge       = 0
  Multiplicity = 1
  Electrons    = 12
  Nalpha       = 6
  Nbeta        = 6

  ==> Algorithm <==

  SCF Algorithm Type is PK.
  DIIS enabled.
  MOM disabled.
  Fractional occupation disabled.
  Guess Type is GWH.
  Energy threshold   = 1.00e-10
  Density threshold  = 1.00e-10
  Integral threshold = 0.00e+00

  ==> Primary Basis <==

  Basis Set: 6-31G*
    Blend: 6-31G*
    Number of shells: 12
    Number of basis function: 30
    Number of Cartesian functions: 30
    Spherical Harmonics?: false
    Max angular momentum: 2

  ==> Pre-Iterations <==

   -------------------------------------------------------
    Irrep   Nso     Nmo     Nalpha   Nbeta   Ndocc  Nsocc
   -------------------------------------------------------
     Ag         8       8       2       2       2       0
     B1g        1       1       0       0       0       0
     B2g        3       3       0       0       0       0
     B3g        3       3       0       0       0       0
     Au         1       1       0       0       0       0
     B1u        8       8       2       2       2       0
     B2u        3       3       1       1       1       0
     B3u        3       3       1       1       1       0
   -------------------------------------------------------
    Total      30      30       6       6       6       0
   -------------------------------------------------------

  ==> Integral Setup <==

  Using in-core PK algorithm.
   Calculation information:
      Number of atoms:                   2
      Number of AO shells:              12
      Number of primitives:             30
      Number of atomic orbitals:        30
      Number of basis functions:        30

      Integral cutoff                 1.00e-12
      Number of threads:                 1

  Performing in-core PK
  Using 216690 doubles for integral storage.
  We computed 3081 shell quartets total.
  Whereas there are 3081 unique shell quartets.

  ==> DiskJK: Disk-Based J/K Matrices <==

    J tasked:                  Yes
    K tasked:                  Yes
    wK tasked:                  No
    Memory [MiB]:              375
    Schwarz Cutoff:          1E-12

    OpenMP threads:              1

  Minimum eigenvalue in the overlap matrix is 7.3141485236E-03.
  Using Symmetric Orthogonalization.

  SCF Guess: Generalized Wolfsberg-Helmholtz.

  ==> Iterations <==

                        Total Energy        Delta E     RMS |[F,P]|

   @RHF iter   1:   -72.79474628558482   -7.27947e+01   1.47325e-01 
   @RHF iter   2:   -75.33343709917381   -2.53869e+00   1.94490e-02 DIIS
   @RHF iter   3:   -75.37331932934470   -3.98822e-02   3.61275e-03 DIIS
   @RHF iter   4:   -75.37478841398141   -1.46908e-03   9.06752e-04 DIIS
   @RHF iter   5:   -75.37487453190923   -8.61179e-05   1.60111e-04 DIIS
   @RHF iter   6:   -75.37487859414068   -4.06223e-06   1.54812e-05 DIIS
   @RHF iter   7:   -75.37487863577259   -4.16319e-08   2.09863e-06 DIIS
   @RHF iter   8:   -75.37487863660202   -8.29431e-10   2.97344e-07 DIIS
   @RHF iter   9:   -75.37487863661971   -1.76925e-11   5.43223e-08 DIIS
   @RHF iter  10:   -75.37487863662034   -6.25278e-13   6.10893e-09 DIIS
   @RHF iter  11:   -75.37487863662035   -1.42109e-14   1.86524e-10 DIIS
   @RHF iter  12:   -75.37487863662031    4.26326e-14   1.63807e-11 DIIS
  Energy converged.


  ==> Post-Iterations <==

    Orbital Energies [Eh]
    ---------------------

    Doubly Occupied:                                                      

       1Ag   -11.368628     1B1u  -11.367077     2Ag    -1.034489  
       2B1u   -0.524847     1B3u   -0.436705     1B2u   -0.436705  

    Virtual:                                                              

       3Ag    -0.097513     1B2g    0.157507     1B3g    0.157507  
       3B1u    0.464357     4Ag     0.675380     2B2u    0.721071  
       2B3u    0.721071     5Ag     0.751415     2B2g    0.840159  
       2B3g    0.840159     4B1u    0.913558     5B1u    1.274347  
       3B3u    1.711471     3B2u    1.711471     1B1g    1.793487  
       6Ag     1.793487     1Au     2.149832     6B1u    2.149832  
       7Ag     2.377092     3B2g    2.697346     3B3g    2.697346  
       7B1u    3.044324     8Ag     4.262621     8B1u    4.430804  

    Final Occupation by Irrep:
             Ag   B1g   B2g   B3g    Au   B1u   B2u   B3u 
    DOCC [     2,    0,    0,    0,    0,    2,    1,    1 ]

  @RHF Final Energy:   -75.37487863662031

   => Energetics <=

    Nuclear Repulsion Energy =             14.6541381416307690
    One-Electron Energy =                -129.7211287801102628
    Two-Electron Energy =                  39.6921120018591935
    Total Energy =                        -75.3748786366203092

Computation Completed


Properties will be evaluated at   0.000000,   0.000000,   0.000000 [a0]

Properties computed using the SCF density matrix

  Nuclear Dipole Moment: [e a0]
     X:     0.0000      Y:     0.0000      Z:     0.0000

  Electronic Dipole Moment: [e a0]
     X:     0.0000      Y:     0.0000      Z:     0.0000

  Dipole Moment: [e a0]
     X:     0.0000      Y:     0.0000      Z:     0.0000     Total:     0.0000

  Dipole Moment: [D]
     X:     0.0000      Y:     0.0000      Z:     0.0000     Total:     0.0000


*** tstop() called on laptop-btkos4mc.wireless.emory.edu at Wed Dec 19 10:27:34 2018
Module time:
	user time   =       0.27 seconds =       0.00 minutes
	system time =       0.02 seconds =       0.00 minutes
	total time  =          1 seconds =       0.02 minutes
Total time:
	user time   =       0.27 seconds =       0.00 minutes
	system time =       0.02 seconds =       0.00 minutes
	total time  =          1 seconds =       0.02 minutes
	SCF energy........................................................PASSED

*** tstart() called on laptop-btkos4mc.wireless.emory.edu
*** at Wed Dec 19 10:27:34 2018

   => Loading Basis Set <=

    Name: 6-31G*
    Role: ORBITAL
    Keyword: BASIS
    atoms 1-2 entry C          line   111 file /Users/jeffschriber/src/psi4-debug-install/share/psi4/basis/6-31gs.gbs 


         ---------------------------------------------------------
                                   SCF
            by Justin Turney, Rob Parrish, Andy Simmonett
                             and Daniel Smith
                              RHF Reference
                        1 Threads,    500 MiB Core
         ---------------------------------------------------------

  ==> Geometry <==

    Molecular point group: d2h
    Full point group: D_inf_h

    Geometry (in Angstrom), charge = 0, multiplicity = 1:

       Center              X                  Y                   Z               Mass       
    ------------   -----------------  -----------------  -----------------  -----------------
         C            0.000000000000     0.000000000000    -0.650000000000    12.000000000000
         C            0.000000000000     0.000000000000     0.650000000000    12.000000000000

  Running in d2h symmetry.

  Rotational constants: A = ************  B =      1.66249  C =      1.66249 [cm^-1]
  Rotational constants: A = ************  B =  49840.13894  C =  49840.13894 [MHz]
  Nuclear repulsion =   14.654138141630769

  Charge       = 0
  Multiplicity = 1
  Electrons    = 12
  Nalpha       = 6
  Nbeta        = 6

  ==> Algorithm <==

  SCF Algorithm Type is PK.
  DIIS enabled.
  MOM disabled.
  Fractional occupation disabled.
  Guess Type is GWH.
  Energy threshold   = 1.00e-10
  Density threshold  = 1.00e-10
  Integral threshold = 0.00e+00

  ==> Primary Basis <==

  Basis Set: 6-31G*
    Blend: 6-31G*
    Number of shells: 12
    Number of basis function: 30
    Number of Cartesian functions: 30
    Spherical Harmonics?: false
    Max angular momentum: 2

  ==> Pre-Iterations <==

   -------------------------------------------------------
    Irrep   Nso     Nmo     Nalpha   Nbeta   Ndocc  Nsocc
   -------------------------------------------------------
     Ag         8       8       2       2       2       0
     B1g        1       1       0       0       0       0
     B2g        3       3       0       0       0       0
     B3g        3       3       0       0       0       0
     Au         1       1       0       0       0       0
     B1u        8       8       2       2       2       0
     B2u        3       3       1       1       1       0
     B3u        3       3       1       1       1       0
   -------------------------------------------------------
    Total      30      30       6       6       6       0
   -------------------------------------------------------

  ==> Integral Setup <==

  Using in-core PK algorithm.
   Calculation information:
      Number of atoms:                   2
      Number of AO shells:              12
      Number of primitives:             30
      Number of atomic orbitals:        30
      Number of basis functions:        30

      Integral cutoff                 1.00e-12
      Number of threads:                 1

  Performing in-core PK
  Using 216690 doubles for integral storage.
  We computed 3081 shell quartets total.
  Whereas there are 3081 unique shell quartets.

  ==> DiskJK: Disk-Based J/K Matrices <==

    J tasked:                  Yes
    K tasked:                  Yes
    wK tasked:                  No
    Memory [MiB]:              375
    Schwarz Cutoff:          1E-12

    OpenMP threads:              1

  Minimum eigenvalue in the overlap matrix is 7.3141485236E-03.
  Using Symmetric Orthogonalization.

  SCF Guess: Generalized Wolfsberg-Helmholtz.

  ==> Iterations <==

                        Total Energy        Delta E     RMS |[F,P]|

   @RHF iter   1:   -72.79474628558486   -7.27947e+01   1.47325e-01 
   @RHF iter   2:   -75.33343709917384   -2.53869e+00   1.94490e-02 DIIS
   @RHF iter   3:   -75.37331932934467   -3.98822e-02   3.61275e-03 DIIS
   @RHF iter   4:   -75.37478841398141   -1.46908e-03   9.06752e-04 DIIS
   @RHF iter   5:   -75.37487453190923   -8.61179e-05   1.60111e-04 DIIS
   @RHF iter   6:   -75.37487859414070   -4.06223e-06   1.54812e-05 DIIS
   @RHF iter   7:   -75.37487863577259   -4.16319e-08   2.09863e-06 DIIS
   @RHF iter   8:   -75.37487863660199   -8.29402e-10   2.97344e-07 DIIS
   @RHF iter   9:   -75.37487863661973   -1.77351e-11   5.43223e-08 DIIS
   @RHF iter  10:   -75.37487863662031   -5.82645e-13   6.10893e-09 DIIS
   @RHF iter  11:   -75.37487863662035   -4.26326e-14   1.86524e-10 DIIS
   @RHF iter  12:   -75.37487863662031    4.26326e-14   1.63807e-11 DIIS
  Energy converged.


  ==> Post-Iterations <==

    Orbital Energies [Eh]
    ---------------------

    Doubly Occupied:                                                      

       1Ag   -11.368628     1B1u  -11.367077     2Ag    -1.034489  
       2B1u   -0.524847     1B3u   -0.436705     1B2u   -0.436705  

    Virtual:                                                              

       3Ag    -0.097513     1B2g    0.157507     1B3g    0.157507  
       3B1u    0.464357     4Ag     0.675380     2B2u    0.721071  
       2B3u    0.721071     5Ag     0.751415     2B2g    0.840159  
       2B3g    0.840159     4B1u    0.913558     5B1u    1.274347  
       3B3u    1.711471     3B2u    1.711471     1B1g    1.793487  
       6Ag     1.793487     1Au     2.149832     6B1u    2.149832  
       7Ag     2.377092     3B2g    2.697346     3B3g    2.697346  
       7B1u    3.044324     8Ag     4.262621     8B1u    4.430804  

    Final Occupation by Irrep:
             Ag   B1g   B2g   B3g    Au   B1u   B2u   B3u 
    DOCC [     2,    0,    0,    0,    0,    2,    1,    1 ]

  @RHF Final Energy:   -75.37487863662031

   => Energetics <=

    Nuclear Repulsion Energy =             14.6541381416307690
    One-Electron Energy =                -129.7211287801102628
    Two-Electron Energy =                  39.6921120018591935
    Total Energy =                        -75.3748786366203092

Computation Completed


Properties will be evaluated at   0.000000,   0.000000,   0.000000 [a0]

Properties computed using the SCF density matrix

  Nuclear Dipole Moment: [e a0]
     X:     0.0000      Y:     0.0000      Z:     0.0000

  Electronic Dipole Moment: [e a0]
     X:     0.0000      Y:     0.0000      Z:     0.0000

  Dipole Moment: [e a0]
     X:     0.0000      Y:     0.0000      Z:     0.0000     Total:     0.0000

  Dipole Moment: [D]
     X:     0.0000      Y:     0.0000      Z:     0.0000     Total:     0.0000


*** tstop() called on laptop-btkos4mc.wireless.emory.edu at Wed Dec 19 10:27:34 2018
Module time:
	user time   =       0.27 seconds =       0.00 minutes
	system time =       0.02 seconds =       0.00 minutes
	total time  =          0 seconds =       0.00 minutes
Total time:
	user time   =       0.56 seconds =       0.01 minutes
	system time =       0.04 seconds =       0.00 minutes
	total time  =          1 seconds =       0.02 minutes
   => Loading Basis Set <=

    Name: STO-3G
    Role: ORBITAL
    Keyword: MINAO_BASIS
    atoms 1-2 entry C          line    61 file /Users/jeffschriber/src/psi4-debug-install/share/psi4/basis/sto-3g.gbs 


  Forte
  ----------------------------------------------------------------------------
  A suite of quantum chemistry methods for strongly correlated electrons

    git branch: master - git commit: 99983f3a

  Developed by:
    Francesco A. Evangelista, Chenyang Li, Kevin P. Hannon,
    Jeffrey B. Schriber, Tianyuan Zhang, Chenxi Cai,    Nan He, Nicholas Stair, Shuhe Wang, Renke Huang
  ----------------------------------------------------------------------------

  Size of Determinant class: 16

  ==> MO Space Information <==

  Read options for space FROZEN_DOCC
  -------------------------------------------------------------------------
                       Ag   B1g   B2g   B3g    Au   B1u   B2u   B3u   Sum
  -------------------------------------------------------------------------
    FROZEN_DOCC         1     0     0     0     0     1     0     0     2
    RESTRICTED_DOCC     0     0     0     0     0     0     0     0     0
    ACTIVE              7     1     3     3     1     7     3     3    28
    RESTRICTED_UOCC     0     0     0     0     0     0     0     0     0
    FROZEN_UOCC         0     0     0     0     0     0     0     0     0
    Total               8     1     3     3     1     8     3     3    30
  -------------------------------------------------------------------------

  ==> Integral Transformation <==

  Number of molecular orbitals:                    30
  Number of correlated molecular orbitals:         28
  Number of frozen occupied orbitals:               2
  Number of frozen unoccupied orbitals:             0
  Two-electron integral type:              Conventional


  Overall Conventional Integrals timings

  Using in-core PK algorithm.
   Calculation information:
      Number of atoms:                   2
      Number of AO shells:              12
      Number of primitives:             30
      Number of atomic orbitals:        30
      Number of basis functions:        30

      Integral cutoff                 1.00e-12
      Number of threads:                 1

  Performing in-core PK
  Using 216690 doubles for integral storage.
  We computed 3081 shell quartets total.
  Whereas there are 3081 unique shell quartets.


  Conventional integrals take 0.34761421 s

                ------------------------------------------------
                  Second-Order Moller-Plesset Natural Orbitals
                      written by Francesco A. Evangelista
                ------------------------------------------------


    SCF energy                            =  -75.374878636620309
    MP2 correlation energy                =   -0.319645384556097
  * MP2 total energy                      =  -75.694524021176406


 Integrals are about to be computed.
 Integrals are about to be updated.  Using in-core PK algorithm.
   Calculation information:
      Number of atoms:                   2
      Number of AO shells:              12
      Number of primitives:             30
      Number of atomic orbitals:        30
      Number of basis functions:        30

      Integral cutoff                 1.00e-12
      Number of threads:                 1

  Performing in-core PK
  Using 216690 doubles for integral storage.
  We computed 3081 shell quartets total.
  Whereas there are 3081 unique shell quartets.


  Number of active alpha electrons: 4
  Number of active beta electrons: 4
  Maximum reference space size: 1000
  Number of reference determinants: 660
  Reference generated from 10 MOs

        ---------------------------------------------------------------
                      Adaptive Configuration Interaction
          written by Jeffrey B. Schriber and Francesco A. Evangelista
        ---------------------------------------------------------------

  ==> Reference Information <==

  There are 2 frozen orbitals.
  There are 28 active orbitals.

  ==> Calculation Information <==

  -----------------------------------------------------------------
    Multiplicity                             1    
    Symmetry                                 0    
    Number of roots                          3    
    Root used for properties                 0    
    Sigma (Eh)                               8.00e-02
    Gamma (Eh^(-1))                          1.00e+00
    Convergence threshold                    1.00e-09
    Ms                                       0
    Diagonalization algorithm                DYNAMIC
    Determinant selection criterion          Second-order Energy
    Selection criterion                      Aimed selection
    Excited Algorithm                        AVERAGE
    Project out spin contaminants            True
    Enforce spin completeness of basis       True
    Enforce complete aimed selection         True
  -----------------------------------------------------------------
  Using 1 threads
  Computing wavefunction for root 0

  ==> Cycle 0 <==

  Initial P space dimension: 660
  Spin-complete dimension of the P space: 660 determinants

  Davidson-Liu solver algorithm with dynamic sigma builds

 SigmaVectorDynamic:
 Maximum memory   : 10000000 double
 Number of threads: 1

  Initial guess space is incomplete!
  Trying to add 51 determinant(s).  51 determinant(s) added.
  Initial guess found 130 solutions with 2S+1 = 1 *
  Initial guess found 152 solutions with 2S+1 = 3  
  Initial guess found 59 solutions with 2S+1 = 5  
  Initial guess found 9 solutions with 2S+1 = 7  
  Initial guess found 1 solutions with 2S+1 = 9  
  Adding guess 0 (multiplicity = 1.000000)
  Adding guess 1 (multiplicity = 1.000000)
  Adding guess 2 (multiplicity = 1.000000)
  Adding guess 3 (multiplicity = 1.000000)
  Adding guess 4 (multiplicity = 1.000000)
  Adding guess 5 (multiplicity = 1.000000)

  ==> Diagonalizing Hamiltonian <==

  ----------------------------------------
    Iter.      Avg. Energy       Delta_E
  ----------------------------------------
      1      -87.459977270064  -8.746e+01
      2      -87.460049527464  -7.226e-05
      3      -87.460049578102  -5.064e-08
      4      -87.460049578246  -1.441e-10
      5      -87.460049578253  -7.262e-12
  ----------------------------------------
  The Davidson-Liu algorithm converged in 6 iterations.
  Davidson-Liu procedure took  0.623954 s
  Time spent diagonalizing H:   0.851663 s

    P-space  CI Energy Root   0        = -75.375933542890 Eh =   0.0000 eV
    P-space  CI Energy Root   1        = -72.053624669204 Eh =  90.4046 eV
    P-space  CI Energy Root   2        = -70.988176097772 Eh = 119.3970 eV

  Using 1 threads.
  psi::Dimension of the SD space: 254368 determinants
  Time spent building the external space: 8.118061 s

  psi::Dimension of the P + Q space: 777 determinants
  Time spent screening the model space: 6.097486 s
  Time spent building the model space: 14.316176
  Spin-complete dimension of the PQ space: 849

  Davidson-Liu solver algorithm with dynamic sigma builds

 SigmaVectorDynamic:
 Maximum memory   : 10000000 double
 Number of threads: 1

  Initial guess space is incomplete!
  Trying to add 9 determinant(s).  9 determinant(s) added.
  Initial guess found 131 solutions with 2S+1 = 1 *
  Initial guess found 132 solutions with 2S+1 = 3  
  Initial guess found 44 solutions with 2S+1 = 5  
  Initial guess found 2 solutions with 2S+1 = 7  
  Adding guess 0 (multiplicity = 1.000000)
  Adding guess 1 (multiplicity = 1.000000)
  Adding guess 2 (multiplicity = 1.000000)
  Adding guess 3 (multiplicity = 1.000000)
  Adding guess 4 (multiplicity = 1.000000)
  Adding guess 5 (multiplicity = 1.000000)

  ==> Diagonalizing Hamiltonian <==

  ----------------------------------------
    Iter.      Avg. Energy       Delta_E
  ----------------------------------------
      1      -90.094283351175  -9.009e+01
      2      -90.094299478529  -1.613e-05
      3      -90.094299491049  -1.252e-08
      4      -90.094299491164  -1.151e-10
      5      -90.094299491173  -8.797e-12
  ----------------------------------------
  The Davidson-Liu algorithm converged in 6 iterations.
  Davidson-Liu procedure took  0.483155 s
  Total time spent diagonalizing H:   0.743092 s

    PQ-space CI Energy Root   0        = -75.608282635926 Eh =   0.0000 eV
    PQ-space CI Energy + EPT2 Root   0 = -75.687912894205 Eh =   0.0000 eV
    PQ-space CI Energy Root   1        = -75.360774366856 Eh =   6.7350 eV
    PQ-space CI Energy + EPT2 Root   1 = -618.866646840404 Eh = -14780.6462 eV
    PQ-space CI Energy Root   2        = -75.351427045845 Eh =   6.9894 eV
    PQ-space CI Energy + EPT2 Root   2 = -2197.458439498006 Eh = -57736.3168 eV


  Most important contributions to root   0:
    0  -0.929815 0.864556768         659 |2000000000000002000000200200>
    1   0.189907 0.036064842         776 |2000002000000000000000200200>
    2   0.100976 0.010196056         775 |2000000000000202000000000200>
    3   0.100976 0.010196056         774 |2000000000200002000000200000>
    4  -0.071737 0.005146222         771 |200000+000-0000-000000200+00>
    5  -0.071737 0.005146222         770 |200000-000+0000+000000200-00>
    6   0.071737 0.005146222         772 |200000+000000-0-000000+00200>
    7   0.071737 0.005146222         773 |200000-000000+0+000000-00200>
    8  -0.062027 0.003847409         769 |2000000000+00-02000000+00-00>
    9  -0.062027 0.003847409         768 |2000000000-00+02000000-00+00>

  Spin state for root 0: S^2 = 0.000000, S = 0.000, singlet

  Most important contributions to root   1:
    0   0.697384 0.486343910         760 |2000002000000002000000200000>
    1  -0.697384 0.486343910         761 |2000002000000002000000000200>
    2   0.059356 0.003523124         775 |2000000000000202000000000200>
    3  -0.059356 0.003523124         774 |2000000000200002000000200000>
    4  -0.051149 0.002616225         772 |200000+000000-0-000000+00200>
    5  -0.051149 0.002616225         773 |200000-000000+0+000000-00200>
    6  -0.051149 0.002616225         771 |200000+000-0000-000000200+00>
    7  -0.051149 0.002616225         770 |200000-000+0000+000000200-00>
    8   0.037145 0.001379720         765 |200000+000+0000-000000200-00>
    9   0.037145 0.001379720         766 |200000-000-0000+000000200+00>

  Spin state for root 1: S^2 = 0.000000, S = 0.000, singlet

  Most important contributions to root   2:
    0   0.653642 0.427248373         760 |2000002000000002000000200000>
    1   0.653642 0.427248373         761 |2000002000000002000000000200>
    2  -0.308381 0.095098750         776 |2000002000000000000000200200>
    3  -0.076688 0.005881095         751 |0000002000000002000000200200>
    4  -0.065951 0.004349551         767 |200000+000000+0-000000-00200>
    5  -0.065951 0.004349551         764 |200000-000000-0+000000+00200>
    6   0.065951 0.004349551         765 |200000+000+0000-000000200-00>
    7   0.065951 0.004349551         766 |200000-000-0000+000000200+00>
    8  -0.065278 0.004261256         775 |2000000000000202000000000200>
    9  -0.065278 0.004261256         774 |2000000000200002000000200000>

  Spin state for root 2: S^2 = 0.000000, S = 0.000, singlet
  Cycle 0 took: 15.975701 s

  ==> Cycle 1 <==

  Initial P space dimension: 4
  Spin-complete dimension of the P space: 4 determinants
  Time spent diagonalizing H:   0.000273 s

    P-space  CI Energy Root   0        = -75.486615684218 Eh =   0.0000 eV
    P-space  CI Energy Root   1        = -74.949156250081 Eh =  14.6250 eV
    P-space  CI Energy Root   2        = -74.693112362278 Eh =  21.5923 eV

  Using 1 threads.
  psi::Dimension of the SD space: 5869 determinants
  Time spent building the external space: 0.021319 s

  Added 3 missing determinants in aimed selection.
  psi::Dimension of the P + Q space: 175 determinants
  Time spent screening the model space: 0.120755 s
  Time spent building the model space: 0.143338
  Spin-complete dimension of the PQ space: 287

  Davidson-Liu solver algorithm with dynamic sigma builds

 SigmaVectorDynamic:
 Maximum memory   : 10000000 double
 Number of threads: 1

  Initial guess found 114 solutions with 2S+1 = 1 *
  Initial guess found 131 solutions with 2S+1 = 3  
  Initial guess found 42 solutions with 2S+1 = 5  
  Adding guess 0 (multiplicity = 1.000000)
  Adding guess 1 (multiplicity = 1.000000)
  Adding guess 2 (multiplicity = 1.000000)
  Adding guess 3 (multiplicity = 1.000000)
  Adding guess 4 (multiplicity = 1.000000)
  Adding guess 5 (multiplicity = 1.000000)

  ==> Diagonalizing Hamiltonian <==

  ----------------------------------------
    Iter.      Avg. Energy       Delta_E
  ----------------------------------------
      1      -89.995488251642  -9.000e+01
      2      -89.995488251642  +2.842e-14
  ----------------------------------------
  The Davidson-Liu algorithm converged in 3 iterations.
  Davidson-Liu procedure took  0.351028 s
  Total time spent diagonalizing H:   0.572321 s

    PQ-space CI Energy Root   0        = -75.642981179951 Eh =   0.0000 eV
    PQ-space CI Energy + EPT2 Root   0 = -75.722866264235 Eh =   0.0000 eV
    PQ-space CI Energy Root   1        = -75.266262217040 Eh =  10.2510 eV
    PQ-space CI Energy + EPT2 Root   1 = -76.327601779788 Eh = -16.4557 eV
    PQ-space CI Energy Root   2        = -75.114806933042 Eh =  14.3724 eV
    PQ-space CI Energy + EPT2 Root   2 = -77.057064492105 Eh = -36.3054 eV


  Most important contributions to root   0:
    0  -0.886970 0.786715767           3 |2000000000000002000000200200>
    1   0.292286 0.085430989           2 |2000002000000000000000200200>
    2   0.112167 0.012581345           1 |2000000000000202000000000200>
    3   0.112167 0.012581345           0 |2000000000200002000000200000>
    4   0.078119 0.006102606         169 |200000-000000+0+000000-00200>
    5   0.078119 0.006102606         168 |200000+000000-0-000000+00200>
    6  -0.078119 0.006102606         167 |200000-000+0000+000000200-00>
    7  -0.078119 0.006102606         166 |200000+000-0000-000000200+00>
    8  -0.062267 0.003877160         171 |2000000000+00-02000000+00-00>
    9  -0.062267 0.003877160         170 |2000000000-00+02000000-00+00>

  Spin state for root 0: S^2 = 0.000000, S = 0.000, singlet

  Most important contributions to root   1:
    0   0.722607 0.522161161           2 |2000002000000000000000200200>
    1   0.314848 0.099129480           3 |2000000000000002000000200200>
    2   0.178355 0.031810384         139 |-00000+000000002000000200200>
    3   0.178355 0.031810384         140 |+00000-000000002000000200200>
    4  -0.165539 0.027403163         145 |200000-000-0000+000000200+00>
    5  -0.165539 0.027403163         144 |200000+000+0000-000000200-00>
    6   0.165539 0.027403163         143 |200000+000000+0-000000-00200>
    7   0.165539 0.027403163         146 |200000-000000-0+000000+00200>
    8   0.160322 0.025703064         158 |200000-000000+0-000000+00200>
    9   0.160322 0.025703064         159 |200000+000000-0+000000-00200>

  Spin state for root 1: S^2 = 0.000000, S = 0.000, singlet

  Most important contributions to root   2:
    0   0.460982 0.212504010           2 |2000002000000000000000200200>
    1  -0.291006 0.084684268         159 |200000+000000-0+000000-00200>
    2  -0.291006 0.084684268         158 |200000-000000+0-000000+00200>
    3   0.291006 0.084684268         161 |200000-000+0000-000000200+00>
    4   0.291006 0.084684268         160 |200000+000-0000+000000200-00>
    5  -0.225694 0.050937937         169 |200000-000000+0+000000-00200>
    6  -0.225694 0.050937937         168 |200000+000000-0-000000+00200>
    7   0.225694 0.050937937         167 |200000-000+0000+000000200-00>
    8   0.225694 0.050937937         166 |200000+000-0000-000000200+00>
    9  -0.167461 0.028043241         163 |2000000000+00+02000000-00-00>

  Spin state for root 2: S^2 = 0.000000, S = 0.000, singlet
  Cycle 1 took: 0.726316 s

  ==> Cycle 2 <==

  Initial P space dimension: 8
  Spin-complete dimension of the P space: 16 determinants
  Time spent diagonalizing H:   0.001012 s

    P-space  CI Energy Root   0        = -75.520469426499 Eh =   0.0000 eV
    P-space  CI Energy Root   1        = -75.274985387603 Eh =   6.6800 eV
    P-space  CI Energy Root   2        = -75.239683574273 Eh =   7.6406 eV

  Using 1 threads.
  psi::Dimension of the SD space: 19171 determinants
  Time spent building the external space: 0.083183 s

  Added 1 missing determinants in aimed selection.
  psi::Dimension of the P + Q space: 178 determinants
  Time spent screening the model space: 0.403087 s
  Time spent building the model space: 0.494532
  Spin-complete dimension of the PQ space: 272

  Davidson-Liu solver algorithm with dynamic sigma builds

 SigmaVectorDynamic:
 Maximum memory   : 10000000 double
 Number of threads: 1

  Initial guess found 113 solutions with 2S+1 = 1 *
  Initial guess found 121 solutions with 2S+1 = 3  
  Initial guess found 38 solutions with 2S+1 = 5  
  Adding guess 0 (multiplicity = 1.000000)
  Adding guess 1 (multiplicity = 1.000000)
  Adding guess 2 (multiplicity = 1.000000)
  Adding guess 3 (multiplicity = 1.000000)
  Adding guess 4 (multiplicity = 1.000000)
  Adding guess 5 (multiplicity = 1.000000)

  ==> Diagonalizing Hamiltonian <==

  ----------------------------------------
    Iter.      Avg. Energy       Delta_E
  ----------------------------------------
      1      -90.120535758934  -9.012e+01
      2      -90.120535758934  +4.263e-14
  ----------------------------------------
  The Davidson-Liu algorithm converged in 3 iterations.
  Davidson-Liu procedure took  0.357078 s
  Total time spent diagonalizing H:   0.574749 s

    PQ-space CI Energy Root   0        = -75.647649942369 Eh =   0.0000 eV
    PQ-space CI Energy + EPT2 Root   0 = -75.727514008243 Eh =   0.0000 eV
    PQ-space CI Energy Root   1        = -75.377395511359 Eh =   7.3540 eV
    PQ-space CI Energy + EPT2 Root   1 = -75.599393352682 Eh =   3.4863 eV
    PQ-space CI Energy Root   2        = -75.374147398182 Eh =   7.4424 eV
    PQ-space CI Energy + EPT2 Root   2 = -75.600768543270 Eh =   3.4489 eV

  Added 2 missing determinants in aimed selection.

  Most important contributions to root   0:
    0   0.885577 0.784246421           7 |2000000000000002000000200200>
    1  -0.263105 0.069224226           6 |2000002000000000000000200200>
    2  -0.115874 0.013426758           5 |2000000000000202000000000200>
    3  -0.115874 0.013426758           4 |2000000000200002000000200000>
    4   0.089090 0.007937059           0 |200000+000-0000-000000200+00>
    5   0.089090 0.007937059           1 |200000-000+0000+000000200-00>
    6  -0.089090 0.007937059           3 |200000-000000+0+000000-00200>
    7  -0.089090 0.007937059           2 |200000+000000-0-000000+00200>
    8   0.068117 0.004639882          10 |200000+000-0000+000000200-00>
    9   0.068117 0.004639882           9 |200000-000+0000-000000200+00>

  Spin state for root 0: S^2 = 0.000000, S = 0.000, singlet

  Most important contributions to root   1:
    0   0.691629 0.478350063          83 |2000002000000002000000000200>
    1  -0.691629 0.478350063          84 |2000002000000002000000200000>
    2  -0.063236 0.003998737         175 |2000002000000200000000000200>
    3   0.063236 0.003998737         176 |2000002000200000000000200000>
    4   0.055554 0.003086285           2 |200000+000000-0-000000+00200>
    5   0.055554 0.003086285           3 |200000-000000+0+000000-00200>
    6   0.055554 0.003086285           0 |200000+000-0000-000000200+00>
    7   0.055554 0.003086285           1 |200000-000+0000+000000200-00>
    8  -0.040978 0.001679166           5 |2000000000000202000000000200>
    9   0.040978 0.001679166           4 |2000000000200002000000200000>

  Spin state for root 1: S^2 = 0.000000, S = 0.000, singlet

  Most important contributions to root   2:
    0  -0.623961 0.389327408          84 |2000002000000002000000200000>
    1  -0.623961 0.389327408          83 |2000002000000002000000000200>
    2   0.383629 0.147171071           6 |2000002000000000000000200200>
    3  -0.075854 0.005753759           8 |200000-000-0000+000000200+00>
    4  -0.075854 0.005753759          11 |200000+000+0000-000000200-00>
    5   0.075854 0.005753759          15 |200000+000000+0-000000-00200>
    6   0.075854 0.005753759          12 |200000-000000-0+000000+00200>
    7   0.069926 0.004889607         152 |0000002000000002000000200200>
    8   0.060734 0.003688591           7 |2000000000000002000000200200>
    9   0.052160 0.002720652           0 |200000+000-0000-000000200+00>

  Spin state for root 2: S^2 = 0.000000, S = 0.000, singlet
  Cycle 2 took: 1.079885 s

  ==> Cycle 3 <==

  Initial P space dimension: 12
  Spin-complete dimension of the P space: 16 determinants
  Time spent diagonalizing H:   0.001013 s

    P-space  CI Energy Root   0        = -75.520469426499 Eh =   0.0000 eV
    P-space  CI Energy Root   1        = -75.274985387603 Eh =   6.6800 eV
    P-space  CI Energy Root   2        = -75.239683574273 Eh =   7.6406 eV

  Using 1 threads.
  psi::Dimension of the SD space: 19171 determinants
  Time spent building the external space: 0.082209 s

  Added 1 missing determinants in aimed selection.
  psi::Dimension of the P + Q space: 178 determinants
  Time spent screening the model space: 0.444871 s
  Time spent building the model space: 0.535327
  Spin-complete dimension of the PQ space: 272

  Davidson-Liu solver algorithm with dynamic sigma builds

 SigmaVectorDynamic:
 Maximum memory   : 10000000 double
 Number of threads: 1

  Initial guess found 113 solutions with 2S+1 = 1 *
  Initial guess found 121 solutions with 2S+1 = 3  
  Initial guess found 38 solutions with 2S+1 = 5  
  Adding guess 0 (multiplicity = 1.000000)
  Adding guess 1 (multiplicity = 1.000000)
  Adding guess 2 (multiplicity = 1.000000)
  Adding guess 3 (multiplicity = 1.000000)
  Adding guess 4 (multiplicity = 1.000000)
  Adding guess 5 (multiplicity = 1.000000)

  ==> Diagonalizing Hamiltonian <==

  ----------------------------------------
    Iter.      Avg. Energy       Delta_E
  ----------------------------------------
      1      -90.120535758934  -9.012e+01
      2      -90.120535758934  +2.842e-14
  ----------------------------------------
  The Davidson-Liu algorithm converged in 3 iterations.
  Davidson-Liu procedure took  0.406599 s
  Total time spent diagonalizing H:   0.690353 s

    PQ-space CI Energy Root   0        = -75.647649942369 Eh =   0.0000 eV
    PQ-space CI Energy + EPT2 Root   0 = -75.727514008243 Eh =   0.0000 eV
    PQ-space CI Energy Root   1        = -75.377395511359 Eh =   7.3540 eV
    PQ-space CI Energy + EPT2 Root   1 = -75.599393352682 Eh =   3.4863 eV
    PQ-space CI Energy Root   2        = -75.374147398182 Eh =   7.4424 eV
    PQ-space CI Energy + EPT2 Root   2 = -75.600768543269 Eh =   3.4489 eV

  ***** Calculation Converged *****

  ==> ACI Summary <==

  Iterations required:                         3
  psi::Dimension of optimized determinant space:    272

  * Adaptive-CI Energy Root   0        = -75.647649942369 Eh =   0.0000 eV
  * Adaptive-CI Energy Root   0 + EPT2 = -75.727514008243 Eh =   0.0000 eV
  * Adaptive-CI Energy Root   1        = -75.377395511359 Eh =   7.3540 eV
  * Adaptive-CI Energy Root   1 + EPT2 = -75.599393352682 Eh =   3.4863 eV
  * Adaptive-CI Energy Root   2        = -75.374147398182 Eh =   7.4424 eV
  * Adaptive-CI Energy Root   2 + EPT2 = -75.600768543269 Eh =   3.4489 eV

  ==> Wavefunction Information <==

  Most important contributions to root   0:
    0   0.885577 0.784246421           9 |2000000000000002000000200200>
    1  -0.263105 0.069224226           8 |2000002000000000000000200200>
    2  -0.115874 0.013426758           7 |2000000000000202000000000200>
    3  -0.115874 0.013426758           6 |2000000000200002000000200000>
    4   0.089090 0.007937059           5 |200000+000-0000-000000200+00>
    5   0.089090 0.007937059           4 |200000-000+0000+000000200-00>
    6  -0.089090 0.007937059           3 |200000-000000+0+000000-00200>
    7  -0.089090 0.007937059           2 |200000+000000-0-000000+00200>
    8   0.068117 0.004639882           1 |200000+000-0000+000000200-00>
    9   0.068117 0.004639882           0 |200000-000+0000-000000200+00>

  Spin state for root 0: S^2 = 0.000000, S = 0.000, singlet

  Most important contributions to root   1:
    0  -0.691629 0.478350063          83 |2000002000000002000000000200>
    1   0.691629 0.478350063          84 |2000002000000002000000200000>
    2   0.063236 0.003998737         175 |2000002000000200000000000200>
    3  -0.063236 0.003998737         176 |2000002000200000000000200000>
    4  -0.055554 0.003086285           2 |200000+000000-0-000000+00200>
    5  -0.055554 0.003086285           3 |200000-000000+0+000000-00200>
    6  -0.055554 0.003086285           5 |200000+000-0000-000000200+00>
    7  -0.055554 0.003086285           4 |200000-000+0000+000000200-00>
    8   0.040978 0.001679166           7 |2000000000000202000000000200>
    9  -0.040978 0.001679166           6 |2000000000200002000000200000>

  Spin state for root 1: S^2 = 0.000000, S = 0.000, singlet

  Most important contributions to root   2:
    0   0.623961 0.389327408          84 |2000002000000002000000200000>
    1   0.623961 0.389327408          83 |2000002000000002000000000200>
    2  -0.383629 0.147171071           8 |2000002000000000000000200200>
    3   0.075854 0.005753759          12 |200000-000-0000+000000200+00>
    4   0.075854 0.005753759          13 |200000+000+0000-000000200-00>
    5  -0.075854 0.005753759          15 |200000+000000+0-000000-00200>
    6  -0.075854 0.005753759          14 |200000-000000-0+000000+00200>
    7  -0.069926 0.004889607         152 |0000002000000002000000200200>
    8  -0.060734 0.003688591           9 |2000000000000002000000200200>
    9  -0.052160 0.002720652           5 |200000+000-0000-000000200+00>

  Spin state for root 2: S^2 = 0.000000, S = 0.000, singlet

  ==> Computing Coupling Lists <==
  --------------------------------
        α          0.001939 s
        β          0.001666 s
        αα         0.002932 s
        ββ         0.003351 s
        αβ         0.006975 s
  --------------------------------
  1-RDM  took 0.001849 s (determinant)

  ==> NATURAL ORBITALS <==

        1Ag     1.982246      1B2u    1.905529      1B3u    1.905529  
        1B1u    1.768475      2Ag     0.224777      1B2g    0.090474  
        1B3g    0.090474      2B1u    0.008135      3Ag     0.004471  
        2B3u    0.004445      2B2u    0.004445      4Ag     0.002669  
        1B1g    0.002546      3B1u    0.001460      3B3u    0.001269  
        3B2u    0.001269      4B1u    0.000604      5Ag     0.000479  
        2B2g    0.000351      2B3g    0.000351      7B1u    0.000000  
        6B1u    0.000000      5B1u    0.000000      1Au     0.000000  
        3B3g    0.000000      3B2g    0.000000      6Ag     0.000000  
        7Ag    -0.000000  


  RDMS took 0.021227

  Adaptive-CI ran in : 19.042625 s

  Saving information for root: 0	ACI energy........................................................PASSED
	ACI+PT2 energy....................................................PASSED

    Psi4 stopped on: Wednesday, 19 December 2018 10:27AM
    Psi4 wall time for execution: 0:00:20.84

*** Psi4 exiting successfully. Buy a developer a beer!
