
    -----------------------------------------------------------------------
          Psi4: An Open-Source Ab Initio Electronic Structure Package
                               Psi4 1.10a1.dev23 

                         Git: Rev {master} 8a781dc 


    D. G. A. Smith, L. A. Burns, A. C. Simmonett, R. M. Parrish,
    M. C. Schieber, R. Galvelis, P. Kraus, H. Kruse, R. Di Remigio,
    A. Alenaizan, A. M. James, S. Lehtola, J. P. Misiewicz, M. Scheurer,
    R. A. Shaw, J. B. Schriber, Y. Xie, Z. L. Glick, D. A. Sirianni,
    J. S. O'Brien, J. M. Waldrop, A. Kumar, E. G. Hohenstein,
    B. P. Pritchard, B. R. Brooks, H. F. Schaefer III, A. Yu. Sokolov,
    K. Patkowski, A. E. DePrince III, U. Bozkaya, R. A. King,
    F. A. Evangelista, J. M. Turney, T. D. Crawford, C. D. Sherrill,
    J. Chem. Phys. 152(18) 184108 (2020). https://doi.org/10.1063/5.0006002

                            Additional Code Authors
    E. T. Seidl, C. L. Janssen, E. F. Valeev, M. L. Leininger,
    J. F. Gonthier, R. M. Richard, H. R. McAlexander, M. Saitow, X. Wang,
    P. Verma, M. H. Lechner, A. Jiang, S. Behnle, A. G. Heide,
    M. F. Herbst, and D. L. Poole

             Previous Authors, Complete List of Code Contributors,
                       and Citations for Specific Modules
    https://github.com/psi4/psi4/blob/master/codemeta.json
    https://github.com/psi4/psi4/graphs/contributors
    http://psicode.org/psi4manual/master/introduction.html#citing-psifour

    -----------------------------------------------------------------------


    Psi4 started on: Monday, 13 May 2024 12:00PM

    Process ID: 93992
    Host:       macbook-pro-158.wireless.emory.edu
    PSIDATADIR: /Users/fevange/Source/psi4/objdir-Release/stage/share/psi4
    Memory:     500.0 MiB
    Threads:    1
    
  ==> Input File <==

--------------------------------------------------------------------------
# tests/manual/mcscf-5/input.dat

import forte

molecule CO{
0 1
C
O  1 1.128
}

set {
  basis                cc-pcvdz
  reference            rhf
  e_convergence        10
  d_convergence        8
  docc                 [5,0,1,1]
}

set forte {
  active_space_solver  fci
  frozen_docc          [2,0,0,0]
  restricted_docc      [2,0,0,0]
  active               [2,0,2,2]
  e_convergence        8  # energy convergence of the FCI iterations
  r_convergence        8  # residual convergence of the FCI iterations
  mcscf_e_convergence  8  # energy convergence of the MCSCF iterations
  mcscf_g_convergence  6  # gradient convergence of the MCSCF iterations
  mcscf_micro_maxiter  4  # do at least 4 micro iterations per macro iteration
  mcscf_freeze_core    true  # enables freezing the MCSCF core orbitals
}

energy('forte')
compare_values(-112.871834862958, variable("CURRENT ENERGY"), 11, "MCSCF energy")
--------------------------------------------------------------------------

Scratch directory: /tmp/

  Forte
  ----------------------------------------------------------------------------
  A suite of quantum chemistry methods for strongly correlated electrons

    git branch: mcscf_fc - git commit: 84f751ea

  Developed by:
    Francesco A. Evangelista, Chenyang Li, Kevin P. Hannon,
    Jeffrey B. Schriber, Tianyuan Zhang, Chenxi Cai,
    Nan He, Nicholas Stair, Shuhe Wang, Renke Huang
  ----------------------------------------------------------------------------


  Preparing forte objects from a Psi4 Wavefunction object
  No reference wave function provided for Forte. Computing SCF orbitals using Psi4 ...
   => Libint2 <=

    Primary   basis highest AM E, G, H:  6, 6, 3
    Auxiliary basis highest AM E, G, H:  7, 7, 4
    Onebody   basis highest AM E, G, H:  -, -, -
    Solid Harmonics ordering:            Gaussian

*** tstart() called on macbook-pro-158.wireless.emory.edu
*** at Mon May 13 12:00:25 2024

   => Loading Basis Set <=

    Name: CC-PCVDZ
    Role: ORBITAL
    Keyword: BASIS
    atoms 1 entry C          line   178 file /Users/fevange/Source/psi4/objdir-Release/stage/share/psi4/basis/cc-pcvdz.gbs 
    atoms 2 entry O          line   246 file /Users/fevange/Source/psi4/objdir-Release/stage/share/psi4/basis/cc-pcvdz.gbs 


         ---------------------------------------------------------
                                   SCF
               by Justin Turney, Rob Parrish, Andy Simmonett
                          and Daniel G. A. Smith
                              RHF Reference
                        1 Threads,    500 MiB Core
         ---------------------------------------------------------

  ==> Geometry <==

    Molecular point group: c2v
    Full point group: C_inf_v

    Geometry (in Angstrom), charge = 0, multiplicity = 1:

       Center              X                  Y                   Z               Mass       
    ------------   -----------------  -----------------  -----------------  -----------------
         C            0.000000000000     0.000000000000    -0.644483611972    12.000000000000
         O            0.000000000000     0.000000000000     0.483516388028    15.994914619570

  Running in c2v symmetry.

  Rotational constants: A = ************  B =      1.93239  C =      1.93239 [cm^-1]
  Rotational constants: A = ************  B =  57931.52687  C =  57931.52687 [MHz]
  Nuclear repulsion =   22.518179177446818

  Charge       = 0
  Multiplicity = 1
  Electrons    = 14
  Nalpha       = 7
  Nbeta        = 7

  ==> Algorithm <==

  SCF Algorithm Type is PK.
  DIIS enabled.
  MOM disabled.
  Fractional occupation disabled.
  Guess Type is SAD.
  Energy threshold   = 1.00e-10
  Density threshold  = 1.00e-08
  Integral threshold = 1.00e-12

  ==> Primary Basis <==

  Basis Set: CC-PCVDZ
    Blend: CC-PCVDZ
    Number of shells: 16
    Number of basis functions: 36
    Number of Cartesian functions: 38
    Spherical Harmonics?: true
    Max angular momentum: 2

  ==> Integral Setup <==

  Using in-core PK algorithm.
   Calculation information:
      Number of atoms:                   2
      Number of AO shells:              16
      Number of primitives:             48
      Number of atomic orbitals:        38
      Number of basis functions:        36

      Integral cutoff                 1.00e-12
      Number of threads:                 1

  Performing in-core PK
  Using 444222 doubles for integral storage.
  We computed 9170 shell quartets total.
  Whereas there are 9316 unique shell quartets.

  ==> DiskJK: Disk-Based J/K Matrices <==

    J tasked:                  Yes
    K tasked:                  Yes
    wK tasked:                  No
    Memory [MiB]:              375
    Schwarz Cutoff:          1E-12

    OpenMP threads:              1

  Minimum eigenvalue in the overlap matrix is 2.0505153821E-02.
  Reciprocal condition number of the overlap matrix is 6.5686881376E-03.
    Using symmetric orthogonalization.

  ==> Pre-Iterations <==

  SCF Guess: Superposition of Atomic Densities via on-the-fly atomic UHF (no occupation information).

   -------------------------
    Irrep   Nso     Nmo    
   -------------------------
     A1        18      18 
     A2         2       2 
     B1         8       8 
     B2         8       8 
   -------------------------
    Total      36      36
   -------------------------

  ==> Iterations <==

                        Total Energy        Delta E     RMS |[F,P]|

   @RHF iter SAD:  -111.88996774534556   -1.11890e+02   0.00000e+00 
   @RHF iter   1:  -112.72731115785277   -8.37343e-01   1.17690e-02 ADIIS/DIIS
   @RHF iter   2:  -112.73600273753482   -8.69158e-03   9.44286e-03 ADIIS/DIIS
   @RHF iter   3:  -112.74990454053392   -1.39018e-02   8.27905e-04 ADIIS/DIIS
   @RHF iter   4:  -112.75004009699089   -1.35556e-04   1.09960e-04 ADIIS/DIIS
   @RHF iter   5:  -112.75004315352156   -3.05653e-06   2.29236e-05 DIIS
   @RHF iter   6:  -112.75004330910578   -1.55584e-07   3.36788e-06 DIIS
   @RHF iter   7:  -112.75004331337773   -4.27195e-09   8.06215e-07 DIIS
   @RHF iter   8:  -112.75004331359256   -2.14825e-10   1.95003e-07 DIIS
   @RHF iter   9:  -112.75004331360634   -1.37845e-11   2.65759e-08 DIIS
   @RHF iter  10:  -112.75004331360641   -7.10543e-14   1.53427e-09 DIIS
  Energy and wave function converged.


  ==> Post-Iterations <==

    Orbital Energies [Eh]
    ---------------------

    Doubly Occupied:                                                      

       1A1   -20.668890     2A1   -11.365963     3A1    -1.523140  
       4A1    -0.802554     1B1    -0.634873     1B2    -0.634873  
       5A1    -0.549177  

    Virtual:                                                              

       2B2     0.154401     2B1     0.154401     6A1     0.380852  
       3B1     0.670613     3B2     0.670613     7A1     0.701250  
       8A1     0.986742     9A1     1.059106     4B1     1.221623  
       4B2     1.221623    10A1     1.343977     1A2     1.343977  
       5B2     1.557876     5B1     1.557876    11A1     1.851977  
      12A1     2.296636     2A2     2.936755    13A1     2.936755  
       6B2     3.425935     6B1     3.425935    14A1     3.835986  
      15A1    19.382076     7B2    22.459965     7B1    22.459965  
      16A1    23.403736    17A1    34.440172     8B2    39.147618  
       8B1    39.147618    18A1    39.842295  

    Final Occupation by Irrep:
             A1    A2    B1    B2 
    DOCC [     5,    0,    1,    1 ]
    NA   [     5,    0,    1,    1 ]
    NB   [     5,    0,    1,    1 ]

  @RHF Final Energy:  -112.75004331360641

   => Energetics <=

    Nuclear Repulsion Energy =             22.5181791774468181
    One-Electron Energy =                -198.1775054187799299
    Two-Electron Energy =                  62.9092829277266858
    Total Energy =                       -112.7500433136064260

Computation Completed


Properties will be evaluated at   0.000000,   0.000000,   0.000000 [a0]

Properties computed using the SCF density matrix


 Multipole Moments:

 ------------------------------------------------------------------------------------
     Multipole            Electronic (a.u.)      Nuclear  (a.u.)        Total (a.u.)
 ------------------------------------------------------------------------------------

 L = 1.  Multiply by 2.5417464519 to convert [e a0] to [Debye]
 Dipole X            :          0.0000000            0.0000000            0.0000000
 Dipole Y            :          0.0000000            0.0000000            0.0000000
 Dipole Z            :         -0.0935137            0.0023233           -0.0911904
 Magnitude           :                                                    0.0911904

 ------------------------------------------------------------------------------------

*** tstop() called on macbook-pro-158.wireless.emory.edu at Mon May 13 12:00:25 2024
Module time:
	user time   =       0.17 seconds =       0.00 minutes
	system time =       0.03 seconds =       0.00 minutes
	total time  =          0 seconds =       0.00 minutes
Total time:
	user time   =       0.17 seconds =       0.00 minutes
	system time =       0.03 seconds =       0.00 minutes
	total time  =          0 seconds =       0.00 minutes

  Read options for space FROZEN_DOCC
  Read options for space RESTRICTED_DOCC
  Read options for space ACTIVE
  Read options for space FROZEN_DOCC
  Read options for space RESTRICTED_DOCC

  ==> MO Space Information <==

  -------------------------------------------------
                       A1    A2    B1    B2   Sum
  -------------------------------------------------
    FROZEN_DOCC         2     0     0     0     2
    RESTRICTED_DOCC     2     0     0     0     2
    GAS1                2     0     2     2     6
    GAS2                0     0     0     0     0
    GAS3                0     0     0     0     0
    GAS4                0     0     0     0     0
    GAS5                0     0     0     0     0
    GAS6                0     0     0     0     0
    RESTRICTED_UOCC    12     2     6     6    26
    FROZEN_UOCC         0     0     0     0     0
    Total              18     2     8     8    36
  -------------------------------------------------   => Loading Basis Set <=

    Name: STO-3G
    Role: ORBITAL
    Keyword: MINAO_BASIS
    atoms 1 entry C          line    61 file /Users/fevange/Source/psi4/objdir-Release/stage/share/psi4/basis/sto-3g.gbs 
    atoms 2 entry O          line    81 file /Users/fevange/Source/psi4/objdir-Release/stage/share/psi4/basis/sto-3g.gbs 


  State Singlet (Ms = 0) A1 GAS min: 0 0 0 0 0 0 ; GAS max: 12 0 0 0 0 0 ; weights:
      1.000000000000
  Forte will use psi4 integrals

  ==> Primary Basis Set Summary <==

  Basis Set: CC-PCVDZ
    Blend: CC-PCVDZ
    Number of shells: 16
    Number of basis functions: 36
    Number of Cartesian functions: 38
    Spherical Harmonics?: true
    Max angular momentum: 2


  JK created using conventional PK integrals
  Using in-core PK algorithm.
   Calculation information:
      Number of atoms:                   2
      Number of AO shells:              16
      Number of primitives:             48
      Number of atomic orbitals:        38
      Number of basis functions:        36

      Integral cutoff                 1.00e-12
      Number of threads:                 1

  Performing in-core PK
  Using 444222 doubles for integral storage.
  We computed 9170 shell quartets total.
  Whereas there are 9316 unique shell quartets.

  ==> DiskJK: Disk-Based J/K Matrices <==

    J tasked:                  Yes
    K tasked:                  Yes
    wK tasked:                  No
    Memory [MiB]:              400
    Schwarz Cutoff:          1E-12

    OpenMP threads:              1



  ==> Integral Transformation <==

  Number of molecular orbitals:                         36
  Number of correlated molecular orbitals:              34
  Number of frozen occupied orbitals:                    2
  Number of frozen unoccupied orbitals:                  0
  Two-electron integral type:                 Conventional


  Computing Conventional Integrals	Presorting SO-basis two-electron integrals.
	Sorting File: SO Ints (nn|nn) nbuckets = 1
	Constructing frozen core operators
	Starting first half-transformation.
	Sorting half-transformed integrals.
	First half integral transformation complete.
	Starting second half-transformation.
	Two-electron integral transformation complete.

  Integral transformation done. 0.01923225 s
  Reading the two-electron integrals from disk
  Size of two-electron integrals:   0.037542 GB
  Timing for conventional integral transformation:            0.110 s.
  Frozen-core energy        -102.725337720921829 a.u.
  Timing for frozen one-body operator:                        0.000 s.
  Resorting integrals after freezing core.
  Timing for freezing core and virtual orbitals:              0.096 s.
  Timing for computing conventional integrals:                0.206 s.

          -----------------------------------------------------------
                  Multi-Configurational Self Consistent Field
                Two-Step Approximate Second-Order AO Algorithm
            written by Chenyang Li, Kevin P. Hannon, and Shuhe Wang
          -----------------------------------------------------------


  ==> MCSCF Calculation Information <==

    --------------------------------------------------------
    Print level                                      Default
    Integral type                               CONVENTIONAL
    CI solver type                                       FCI
    Final orbital type                             CANONICAL
    Derivative type                                     NONE
    Optimize orbitals                                   TRUE
    Include internal rotations                         FALSE
    Debug printing                                     FALSE
    Energy convergence                             1.000e-08
    Gradient convergence                           1.000e-06
    Max value for rotation                         2.000e-01
    Max number of macro iterations                       100
    Max number of micro iterations                         4
    Min number of micro iterations                         4
    DIIS start                                            15
    Min DIIS vectors                                       3
    Max DIIS vectors                                       8
    Frequency of DIIS extrapolation                        1
    --------------------------------------------------------

  ==> Independent Orbital Rotations <==

    ORBITAL SPACES                        A1     A2     B1     B2
    -------------------------------------------------------------
             ACTIVE / RESTRICTED_DOCC      4      0      0      0
    RESTRICTED_UOCC /          ACTIVE     24      0     12     12
    RESTRICTED_UOCC / RESTRICTED_DOCC     24      0      0      0
    -------------------------------------------------------------

  ==> MCSCF Iterations <==

                      Energy CI                    Energy Orbital
           ------------------------------  ------------------------------
    Iter.        Total Energy       Delta        Total Energy       Delta  Orb. Grad.  Micro
    ----------------------------------------------------------------------------------------
       1    -112.799334478816 -1.1280e+02   -112.835286911286 -1.1284e+02  1.0500e-02    4/N
       2    -112.843867016801 -1.1284e+02   -112.850214130959 -1.1285e+02  1.1545e-02    4/N
       3    -112.862613441721 -6.3279e-02   -112.870826351022 -3.5539e-02  4.1191e-03    4/N
       4    -112.871721430617 -2.7854e-02   -112.871811073242 -2.1597e-02  1.6499e-03    4/N
       5    -112.871829192193 -9.2158e-03   -112.871833400256 -1.0070e-03  1.2771e-04    4/N
       6    -112.871834482151 -1.1305e-04   -112.871834757156 -2.3684e-05  2.6644e-05    4/N
       7    -112.871834833934 -5.6417e-06   -112.871834854642 -1.4544e-06  5.5983e-06    4/N
       8    -112.871834860617 -3.7847e-07   -112.871834862280 -1.0512e-07  1.3551e-06    4/N
       9    -112.871834862765 -2.8831e-08   -112.871834862902 -8.2598e-09  3.5729e-07    3/Y
      10    -112.871834862943 -2.3252e-09   -112.871834862954 -6.7404e-10  7.6786e-08    2/Y
    ----------------------------------------------------------------------------------------

  A miracle has come to pass: MCSCF iterations have converged!

  Performing final CI Calculation using converged orbitals

  ==> String Lists <==

    --------------------------------------------------------
    number of alpha electrons                              3
    number of beta electrons                               3
    number of alpha strings                               20
    number of beta strings                                20
    --------------------------------------------------------

  ==> FCI Solver <==

    --------------------------------------------------------
    Spin adapt                                         FALSE
    Number of determinants                               112
    Symmetry                                               0
    Multiplicity                                           1
    Number of roots                                        1
    Target root                                            0
    --------------------------------------------------------

  ==> Root No. 0 <==

    20 20 20     -0.97314387
    20 20 02      0.09878617
    20 02 20      0.09878617
    20 ba ab      0.06631612
    20 ab ba      0.06631612
    02 20 20      0.04912383
    20 ba ba      0.04637565
    20 ab ab      0.04637565
    ba ab 20     -0.04345114
    ab ba 20     -0.04345114
    ba 20 ab     -0.04345114
    ab 20 ba     -0.04345114
    ab ab 20     -0.02942714
    ab 20 ab     -0.02942714
    ba 20 ba     -0.02942714
    ba ba 20     -0.02942714
    20 20 ab     -0.02750858
    20 ab 20     -0.02750858
    20 ba 20     -0.02750858
    20 20 ba     -0.02750858
    20 02 02     -0.02041435
    20 aa bb     -0.01994047
    20 bb aa     -0.01994047
    aa 20 bb      0.01402400
    aa bb 20      0.01402400
    bb 20 aa      0.01402400
    bb aa 20      0.01402400
    20 22 00      0.01252959
    20 00 22      0.01252959
    22 00 20      0.01077379
    22 20 00      0.01077379
    ab ba 02      0.01015008
    ab 02 ba      0.01015008
    ba ab 02      0.01015008
    ba 02 ab      0.01015008

    Total Energy:    -112.871834862957, <S^2>: -0.000000
    Time for FCI:       0.010081167000

  ==> Energy Summary <==

    Multi.(2ms)  Irrep.  No.               Energy      <S^2>
    --------------------------------------------------------
       1  (  0)    A1     0     -112.871834862957  -0.000000
    --------------------------------------------------------

  ==> Natural Orbitals <==

        5A1     1.981835      1B1     1.957273      1B2     1.957273  
        2B2     0.042638      2B1     0.042638      6A1     0.018342  


  ==> Dipole Moments [e a0] (Nuclear + Electronic) for Singlet (Ms = 0) A1 <==

       State           DM_X           DM_Y           DM_Z           |DM|
    --------------------------------------------------------------------
         0A1     0.00000000     0.00000000     0.13051458     0.13051458
    --------------------------------------------------------------------
     Nuclear     0.00000000     0.00000000     0.00232329     0.00232329
    --------------------------------------------------------------------

  ==> Natural Orbitals <==

        5A1     1.981835      1B1     1.957273      1B2     1.957273  
        2B2     0.042638      2B1     0.042638      6A1     0.018342  


  ==> Quadrupole Moments [e a0^2] (Nuclear + Electronic) for Singlet (Ms = 0) A1 <==

       State          QM_XX          QM_XY          QM_XZ          QM_YY          QM_YZ          QM_ZZ
    --------------------------------------------------------------------------------------------------
         0A1    -7.67398076     0.00000000     0.00000000    -7.67398076     0.00000000    -9.14144566
    --------------------------------------------------------------------------------------------------
     Nuclear     0.00000000     0.00000000     0.00000000     0.00000000     0.00000000    15.57862582
    --------------------------------------------------------------------------------------------------

  ==> Natural Orbitals <==

        5A1     1.981835      1B1     1.957273      1B2     1.957273  
        2B2     0.042638      2B1     0.042638      6A1     0.018342  

  Canonicalizing final MCSCF orbitals

  ==> Semicanonicalize Orbitals <==

    MIX INACTIVE ORBITALS         FALSE
    MIX GAS ACTIVE ORBITALS       FALSE
    FROZEN_DOCC                   CANONICAL
    FROZEN_UOCC                   CANONICAL
    GAS1                          CANONICAL
    RESTRICTED_DOCC               CANONICAL
    RESTRICTED_UOCC               CANONICAL

    Off-Diag. Elements       Max           2-Norm
    ------------------------------------------------
    FROZEN_DOCC          0.0000171067   0.0000241925
    GAS1                 0.0317453900   0.0494454905
    RESTRICTED_DOCC      0.2788764440   0.3943908494
    RESTRICTED_UOCC      0.2721888704   0.7591070393
    ------------------------------------------------

    Canonicalization test failed

  Timing for orbital canonicalization:                        0.000 s.

  !!! WARNING: Final Active Orbitals Maybe Different from the Original !!!

    Based on projections of maximum overlap method:
          4A1 -> 7A1       RESTRICTED_UOCC
          5A1 -> 3A1       RESTRICTED_DOCC
  Integrals are about to be updated.
  Computing Conventional Integrals	Presorting SO-basis two-electron integrals.
	Sorting File: SO Ints (nn|nn) nbuckets = 1
	Constructing frozen core operators
	Starting first half-transformation.
	Sorting half-transformed integrals.
	First half integral transformation complete.
	Starting second half-transformation.
	Two-electron integral transformation complete.

  Integral transformation done. 0.01588954 s
  Reading the two-electron integrals from disk
  Size of two-electron integrals:   0.037542 GB
  Timing for conventional integral transformation:            0.106 s.
  Frozen-core energy        -102.725337720921857 a.u.
  Timing for frozen one-body operator:                        0.000 s.
  Resorting integrals after freezing core.
  Timing for freezing core and virtual orbitals:              0.092 s.
  Integrals update took     0.197 s.

  The integrals are not consistent with the orbitals. Re-transforming them.


  ==> String Lists <==

    --------------------------------------------------------
    number of alpha electrons                              3
    number of beta electrons                               3
    number of alpha strings                               20
    number of beta strings                                20
    --------------------------------------------------------

  ==> FCI Solver <==

    --------------------------------------------------------
    Spin adapt                                         FALSE
    Number of determinants                               112
    Symmetry                                               0
    Multiplicity                                           1
    Number of roots                                        1
    Target root                                            0
    --------------------------------------------------------
  Initial guess space is incomplete.
  Adding 9 determinant(s).

  ==> Initial Guess <==

  Initial guess determinants:         59

  Classification of the initial guess solutions

  Number   2S+1   Selected
  ------------------------
    25       1       *
    25       3        
     8       5        
     1       7        
  ------------------------

    Spin    Root           Energy        <S^2>    Status
  -------------------------------------------------------
   singlet    0     -215.582330680967  -0.000000  added
  -------------------------------------------------------

  ==> Davidson-Liu Solver <==

    --------------------------------------------------------
    Print level                                      Default
    Energy convergence threshold                   1.000e-08
    Residual convergence threshold                 1.000e-08
    Schmidt orthogonality threshold                1.000e-12
    Schmidt discard threshold                      1.000e-07
    Size of the space                                    112
    Number of roots                                        1
    Maximum number of iterations                         100
    Collapse subspace size                                 2
    Maximum subspace size                                 10
    --------------------------------------------------------

  Davidson-Liu solver: adding 1 guess vectors
  Iteration     Average Energy            max(∆E)            max(Residual)  Vectors
  ---------------------------------------------------------------------------------
       0     -112.856992960045      112.856992960045        0.234445646998      1
       1     -112.871188818855        0.014195858809        0.052490673570      2
       2     -112.871736043185        0.000547224331        0.018594416975      3
       3     -112.871829865921        0.000093822735        0.003967025139      4
       4     -112.871834605454        0.000004739533        0.000852164818      5
       5     -112.871834827171        0.000000221717        0.000271155751      6
       6     -112.871834862059        0.000000034888        0.000044418940      7
       7     -112.871834862937        0.000000000878        0.000007328887      8
       8     -112.871834862957        0.000000000020        0.000001342981      9
       9     -112.871834862957        0.000000000001        0.000000268807     10
      10     -112.871834862957        0.000000000000        0.000000059113      3
      11     -112.871834862957        0.000000000000        0.000000008778      4
  ---------------------------------------------------------------------------------

  ==> Root No. 0 <==

    20 20 20      0.97408502
    20 20 02     -0.09924205
    20 02 20     -0.09924205
    20 ba ab     -0.06673264
    20 ab ba     -0.06673264
    02 20 20     -0.04918762
    20 ab ab     -0.04676732
    20 ba ba     -0.04676732
    ba 20 ab      0.04309408
    ba ab 20      0.04309408
    ab 20 ba      0.04309408
    ab ba 20      0.04309408
    ba ba 20      0.02907489
    ab 20 ab      0.02907489
    ba 20 ba      0.02907489
    ab ab 20      0.02907489
    20 02 02      0.02040317
    20 bb aa      0.01996532
    20 aa bb      0.01996532
    20 20 ba      0.01668767
    20 20 ab      0.01668767
    20 ab 20      0.01668767
    20 ba 20      0.01668767
    bb aa 20     -0.01401918
    aa bb 20     -0.01401918
    aa 20 bb     -0.01401918
    bb 20 aa     -0.01401918
    20 22 00     -0.01254410
    20 00 22     -0.01254410
    22 20 00     -0.01077413
    22 00 20     -0.01077413
    ba 02 ab     -0.01014495
    ab ba 02     -0.01014495
    ab 02 ba     -0.01014495
    ba ab 02     -0.01014495

    Total Energy:    -112.871834862957, <S^2>: -0.000000
    Time for FCI:       0.017892792000

  ==> Energy Summary <==

    Multi.(2ms)  Irrep.  No.               Energy      <S^2>
    --------------------------------------------------------
       1  (  0)    A1     0     -112.871834862957  -0.000000
    --------------------------------------------------------

  ==> Natural Orbitals <==

        5A1     1.981835      1B1     1.957273      1B2     1.957273  
        2B2     0.042638      2B1     0.042638      6A1     0.018342  


  ==> Dipole Moments [e a0] (Nuclear + Electronic) for Singlet (Ms = 0) A1 <==

       State           DM_X           DM_Y           DM_Z           |DM|
    --------------------------------------------------------------------
         0A1     0.00000000     0.00000000     0.14016261     0.14016261
    --------------------------------------------------------------------
     Nuclear     0.00000000     0.00000000     0.00232329     0.00232329
    --------------------------------------------------------------------

  ==> Natural Orbitals <==

        5A1     1.981835      1B1     1.957273      1B2     1.957273  
        2B2     0.042638      2B1     0.042638      6A1     0.018342  


  ==> Quadrupole Moments [e a0^2] (Nuclear + Electronic) for Singlet (Ms = 0) A1 <==

       State          QM_XX          QM_XY          QM_XZ          QM_YY          QM_YZ          QM_ZZ
    --------------------------------------------------------------------------------------------------
         0A1    -7.44526188     0.00000000     0.00000000    -7.44526188     0.00000000    -9.08643285
    --------------------------------------------------------------------------------------------------
     Nuclear     0.00000000     0.00000000     0.00000000     0.00000000     0.00000000    15.57862582
    --------------------------------------------------------------------------------------------------

  Time to prepare integrals:        0.490 seconds
  Time to run job          :        1.161 seconds
  Total                    :        1.651 seconds
    MCSCF energy..........................................................................PASSED

    Psi4 stopped on: Monday, 13 May 2024 12:00PM
    Psi4 wall time for execution: 0:00:01.72

*** Psi4 exiting successfully. Buy a developer a beer!
