
    -----------------------------------------------------------------------
          Psi4: An Open-Source Ab Initio Electronic Structure Package
                               Psi4 undefined 

                         Git: Rev {fix_mcscf_mismatch} cb9ce46 


    D. G. A. Smith, L. A. Burns, A. C. Simmonett, R. M. Parrish,
    M. C. Schieber, R. Galvelis, P. Kraus, H. Kruse, R. Di Remigio,
    A. Alenaizan, A. M. James, S. Lehtola, J. P. Misiewicz, M. Scheurer,
    R. A. Shaw, J. B. Schriber, Y. Xie, Z. L. Glick, D. A. Sirianni,
    J. S. O'Brien, J. M. Waldrop, A. Kumar, E. G. Hohenstein,
    B. P. Pritchard, B. R. Brooks, H. F. Schaefer III, A. Yu. Sokolov,
    K. Patkowski, A. E. DePrince III, U. Bozkaya, R. A. King,
    F. A. Evangelista, J. M. Turney, T. D. Crawford, C. D. Sherrill,
    J. Chem. Phys. 152(18) 184108 (2020). https://doi.org/10.1063/5.0006002

                            Additional Code Authors
    E. T. Seidl, C. L. Janssen, E. F. Valeev, M. L. Leininger,
    J. F. Gonthier, R. M. Richard, H. R. McAlexander, M. Saitow, X. Wang,
    P. Verma, and M. H. Lechner

             Previous Authors, Complete List of Code Contributors,
                       and Citations for Specific Modules
    https://github.com/psi4/psi4/blob/master/codemeta.json
    https://github.com/psi4/psi4/graphs/contributors
    http://psicode.org/psi4manual/master/introduction.html#citing-psifour

    -----------------------------------------------------------------------


    Psi4 started on: Saturday, 31 July 2021 04:32AM

    Process ID: 8429
    Host:       Yorks-Mac.local
    PSIDATADIR: /Users/york/src/psi4new/psi4/share/psi4
    Memory:     500.0 MiB
    Threads:    1
    
  ==> Input File <==

--------------------------------------------------------------------------
# spin-adapted DSRG-MRPT2 on C2 without 3-cumulant

import forte

memory 500 mb

Ecas_psi4 = -75.547269671169772
Ept2_0    = -75.781989502581368
Ept2_1    = -75.679593509886715

molecule {
0 1
C
C 1 1.2
}

set globals{
  basis                  cc-pcvdz
  reference              rhf
  scf_type               pk
  e_convergence          12
  d_convergence          8
  mcscf_e_convergence    12
  mcscf_r_convergence    8
  mcscf_diis_start       10
  mcscf_max_rot          0.2
  restricted_docc        [1,0,0,0,0,1,0,0]
  active                 [2,0,1,1,0,2,1,1]
}

set detci {
  num_roots          2
  filter_guess       true
  filter_guess_sign  1
  filter_guess_det1  [56, 56]
  filter_guess_det2  [66, 66]
  avg_states         [0, 1]
  calc_s_squared     true
}
Ecas, wfn = energy('casscf', return_wfn=True)
compare_values(Ecas_psi4, Ecas, 9, "CASSCF(8,8)/cc-pCVDZ (PSI4) energy")

set forte{
  active_space_solver  cas
  correlation_solver   sa-mrdsrg
  corr_level           pt2
  frozen_docc          [0,0,0,0,0,0,0,0]
  restricted_docc      [1,0,0,0,0,1,0,0]
  active               [2,0,1,1,0,2,1,1]
  dsrg_s               1.0
  e_convergence        12
  r_convergence        8
  calc_type            sa
  avg_state            [[0,1,3]]
  avg_weight           [[1,1,0]]  # Delta state is the 3rd state before but 2nd state after PT2
  threepdc             zero
  relax_ref            once
}
energy('forte', ref_wfn=wfn)
Eroot0 = variable("ENERGY ROOT 0 1AG")
Eroot1 = variable("ENERGY ROOT 2 1AG")
compare_values(Ept2_0, Eroot0, 9, "SA-DSRG-MRPT2 relaxed energy singlet Sigma_g^+ root 0")
compare_values(Ept2_1, Eroot1, 9, "SA-DSRG-MRPT2 relaxed energy singlet Sigma_g^+ root 1")
--------------------------------------------------------------------------

  Memory set to 476.837 MiB by Python driver.

Scratch directory: /Users/york/scratch/psi4/

*** tstart() called on Yorks-Mac.local
*** at Sat Jul 31 04:32:50 2021

   => Loading Basis Set <=

    Name: CC-PCVDZ
    Role: ORBITAL
    Keyword: BASIS
    atoms 1-2 entry C          line   178 file /Users/york/src/psi4new/psi4/share/psi4/basis/cc-pcvdz.gbs 


         ---------------------------------------------------------
                                   SCF
               by Justin Turney, Rob Parrish, Andy Simmonett
                          and Daniel G. A. Smith
                              RHF Reference
                        1 Threads,    476 MiB Core
         ---------------------------------------------------------

  ==> Geometry <==

    Molecular point group: d2h
    Full point group: D_inf_h

    Geometry (in Angstrom), charge = 0, multiplicity = 1:

       Center              X                  Y                   Z               Mass       
    ------------   -----------------  -----------------  -----------------  -----------------
         C            0.000000000000     0.000000000000    -0.600000000000    12.000000000000
         C            0.000000000000     0.000000000000     0.600000000000    12.000000000000

  Running in d2h symmetry.

  Rotational constants: A = ************  B =      1.95111  C =      1.95111 [cm^-1]
  Rotational constants: A = ************  B =  58492.94084  C =  58492.94084 [MHz]
  Nuclear repulsion =   15.875316320100003

  Charge       = 0
  Multiplicity = 1
  Electrons    = 12
  Nalpha       = 6
  Nbeta        = 6

  ==> Algorithm <==

  SCF Algorithm Type is PK.
  DIIS enabled.
  MOM disabled.
  Fractional occupation disabled.
  Guess Type is SAD.
  Energy threshold   = 1.00e-12
  Density threshold  = 1.00e-08
  Integral threshold = 1.00e-12

  ==> Primary Basis <==

  Basis Set: CC-PCVDZ
    Blend: CC-PCVDZ
    Number of shells: 16
    Number of basis functions: 36
    Number of Cartesian functions: 38
    Spherical Harmonics?: true
    Max angular momentum: 2

  ==> Integral Setup <==

  Using in-core PK algorithm.
   Calculation information:
      Number of atoms:                   2
      Number of AO shells:              16
      Number of primitives:             48
      Number of atomic orbitals:        38
      Number of basis functions:        36

      Integral cutoff                 1.00e-12
      Number of threads:                 1

  Performing in-core PK
  Using 444222 doubles for integral storage.
  We computed 9177 shell quartets total.
  Whereas there are 9316 unique shell quartets.

  ==> DiskJK: Disk-Based J/K Matrices <==

    J tasked:                  Yes
    K tasked:                  Yes
    wK tasked:                  No
    Memory [MiB]:              357
    Schwarz Cutoff:          1E-12

    OpenMP threads:              1

  Minimum eigenvalue in the overlap matrix is 8.8662468230E-03.
  Reciprocal condition number of the overlap matrix is 2.9630633661E-03.
    Using symmetric orthogonalization.

  ==> Pre-Iterations <==

  SCF Guess: Superposition of Atomic Densities via on-the-fly atomic UHF (no occupation information).

   -------------------------
    Irrep   Nso     Nmo    
   -------------------------
     Ag         9       9 
     B1g        1       1 
     B2g        4       4 
     B3g        4       4 
     Au         1       1 
     B1u        9       9 
     B2u        4       4 
     B3u        4       4 
   -------------------------
    Total      36      36
   -------------------------

  ==> Iterations <==

                        Total Energy        Delta E     RMS |[F,P]|

   @RHF iter SAD:   -74.55454623929130   -7.45545e+01   0.00000e+00 
   @RHF iter   1:   -75.35942080256164   -8.04875e-01   1.20783e-02 DIIS
   @RHF iter   2:   -75.38016295064774   -2.07421e-02   3.70049e-03 DIIS
   @RHF iter   3:   -75.38250032459312   -2.33737e-03   1.32636e-03 DIIS
   @RHF iter   4:   -75.38307555657029   -5.75232e-04   2.28217e-04 DIIS
   @RHF iter   5:   -75.38308473568956   -9.17912e-06   2.20807e-05 DIIS
   @RHF iter   6:   -75.38308484441563   -1.08726e-07   1.31453e-06 DIIS
   @RHF iter   7:   -75.38308484466738   -2.51745e-10   1.52434e-07 DIIS
   @RHF iter   8:   -75.38308484467119   -3.80851e-12   9.49064e-09 DIIS
   @RHF iter   9:   -75.38308484467120   -1.42109e-14   1.15726e-09 DIIS
  Energy and wave function converged.


  ==> Post-Iterations <==

    Orbital Energies [Eh]
    ---------------------

    Doubly Occupied:                                                      

       1Ag   -11.355204     1B1u  -11.352183     2Ag    -1.077068  
       2B1u   -0.504948     1B3u   -0.465465     1B2u   -0.465465  

    Virtual:                                                              

       3Ag    -0.106085     1B3g    0.179713     1B2g    0.179713  
       3B1u    0.397513     4Ag     0.577523     2B3u    0.621040  
       2B2u    0.621040     5Ag     0.697529     2B2g    0.774279  
       2B3g    0.774279     4B1u    0.947557     5B1u    1.210418  
       6Ag     1.213461     1B1g    1.213461     3B3u    1.400329  
       3B2u    1.400329     1Au     1.649192     6B1u    1.649192  
       7Ag     1.991253     3B2g    2.127847     3B3g    2.127847  
       7B1u    2.458805     8Ag    19.110290     8B1u   19.694173  
       9Ag    22.291342     4B2u   22.368434     4B3u   22.368434  
       4B3g   22.728146     4B2g   22.728146     9B1u   24.609226  

    Final Occupation by Irrep:
             Ag   B1g   B2g   B3g    Au   B1u   B2u   B3u 
    DOCC [     2,    0,    0,    0,    0,    2,    1,    1 ]

  @RHF Final Energy:   -75.38308484467120

   => Energetics <=

    Nuclear Repulsion Energy =             15.8753163201000032
    One-Electron Energy =                -132.0761372216595078
    Two-Electron Energy =                  40.8177360568883074
    Total Energy =                        -75.3830848446712025

Computation Completed


Properties will be evaluated at   0.000000,   0.000000,   0.000000 [a0]

Properties computed using the SCF density matrix

  Nuclear Dipole Moment: [e a0]
     X:     0.0000      Y:     0.0000      Z:     0.0000

  Electronic Dipole Moment: [e a0]
     X:     0.0000      Y:     0.0000      Z:     0.0000

  Dipole Moment: [e a0]
     X:     0.0000      Y:     0.0000      Z:     0.0000     Total:     0.0000

  Dipole Moment: [D]
     X:     0.0000      Y:     0.0000      Z:     0.0000     Total:     0.0000


*** tstop() called on Yorks-Mac.local at Sat Jul 31 04:32:50 2021
Module time:
	user time   =       0.69 seconds =       0.01 minutes
	system time =       0.02 seconds =       0.00 minutes
	total time  =          0 seconds =       0.00 minutes
Total time:
	user time   =       0.69 seconds =       0.01 minutes
	system time =       0.02 seconds =       0.00 minutes
	total time  =          0 seconds =       0.00 minutes
 MINTS: Wrapper to libmints.
   by Justin Turney

   Calculation information:
      Number of threads:                 1
      Number of atoms:                   2
      Number of AO shells:              16
      Number of SO shells:               8
      Number of primitives:             48
      Number of atomic orbitals:        38
      Number of basis functions:        36

      Number of irreps:                  8
      Integral cutoff                 1.00e-12
      Number of functions per irrep: [   9    1    4    4    1    9    4    4 ]

 OEINTS: Overlap, kinetic, potential, dipole, and quadrupole integrals
         stored in file 35.

      Computing two-electron integrals...done
      Computed 28379 non-zero two-electron integrals.
        Stored in file 33.

 MINTS: Wrapper to libmints.
   by Justin Turney

   Calculation information:
      Number of threads:                 1
      Number of atoms:                   2
      Number of AO shells:              16
      Number of SO shells:               8
      Number of primitives:             48
      Number of atomic orbitals:        38
      Number of basis functions:        36

      Number of irreps:                  8
      Integral cutoff                 1.00e-12
      Number of functions per irrep: [   9    1    4    4    1    9    4    4 ]

 OEINTS: Overlap, kinetic, potential, dipole, and quadrupole integrals
         stored in file 35.

      Computing two-electron integrals...done
      Computed 28379 non-zero two-electron integrals.
        Stored in file 33.


         ---------------------------------------------------------
                Multi-Configurational Self-Consistent Field
                            (a 'D E T C I' module)

                 Daniel G. A. Smith, C. David Sherrill, and
                              Matt L. Leininger
         ---------------------------------------------------------


   ==> Parameters <==

    EX LEVEL       =        8      H0 BLOCKSIZE  =     1000
    VAL EX LEVEL   =        0      H0 GUESS SIZE =     1000
    H0COUPLINGSIZE =        0      H0 COUPLING   =       NO
    MAXITER        =       12      NUM PRINT     =       20
    NUM ROOTS      =        2      ICORE         =        1
    PRINT LVL      =        1      FCI           =      YES
    R CONV         = 1.00e-07      MIXED         =      YES
    E CONV         = 1.00e-12      MIXED4        =      YES
    R4S            =       NO      REPL OTF      =       NO
    DIAG METHOD    =      SEM      FOLLOW ROOT   =        0
    PRECONDITIONER = DAVIDSON      UPDATE        = DAVIDSON
    S              =   0.0000      Ms0           =      YES
    GUESS VECTOR   =  H0BLOCK      OPENTYPE      =     NONE
    COLLAPSE SIZE  =        1      HD AVG        = EVANGELISTI
    FILTER GUESS   =      YES      SF RESTRICT   =       NO
    MAX NUM VECS   =       26      REF SYM       =     AUTO
    IOPEN        =       NO

    EX ALLOW       =  1  1  1  1  1  1  1  1 
    STATE AVERAGE  =  0(0.50)  1(0.50) 

   ==> CI Orbital and Space information <==

   ------------------------------------------------------------------------------
               Space    Total    Ag   B1g   B2g   B3g    Au   B1u   B2u   B3u
   ------------------------------------------------------------------------------
                 Nso       36     9     1     4     4     1     9     4     4
                 Nmo       36     9     1     4     4     1     9     4     4
               Ndocc        6     2     0     0     0     0     2     1     1
               Nsocc        0     0     0     0     0     0     0     0     0
   ------------------------------------------------------------------------------
                                    MCSCF Spaces
   ------------------------------------------------------------------------------
         Frozen DOCC        0     0     0     0     0     0     0     0     0
     Restricted DOCC        2     1     0     0     0     0     1     0     0
              Active        8     2     0     1     1     0     2     1     1
     Restricted UOCC       26     6     1     3     3     1     6     3     3
         Frozen UOCC        0     0     0     0     0     0     0     0     0
   ------------------------------------------------------------------------------

   ==> Setting up CI strings <==

    There are 70 alpha and 70 beta strings
    The CI space requires 660 (6.60E+02) determinants and 8 blocks

   ==> Setting up MCSCF integrals <==

  Using in-core PK algorithm.
   Calculation information:
      Number of atoms:                   2
      Number of AO shells:              16
      Number of primitives:             48
      Number of atomic orbitals:        38
      Number of basis functions:        36

      Integral cutoff                 1.00e-12
      Number of threads:                 1

  Performing in-core PK
  Using 444222 doubles for integral storage.
  We computed 9177 shell quartets total.
  Whereas there are 9316 unique shell quartets.

  ==> DiskJK: Disk-Based J/K Matrices <==

    J tasked:                  Yes
    K tasked:                  Yes
    wK tasked:                  No
    Memory [MiB]:              381
    Schwarz Cutoff:          1E-12

    OpenMP threads:              1


   ==> Starting MCSCF iterations <==

        Iter         Total Energy       Delta E   Orb RMS    CI RMS  NCI NORB
(sem_iter): Guess vector failed user-specified criterion.
(sem_iter): H0block_->H0b_diag[1][1] - H0block_->H0b_diag[2][1] = -0.689882 - 0.689882 = -1.379763 > 1.0E-8
   @MCSCF  1:    -75.483922349246   -1.0084e-01  4.10e-02  1.81e-12    1    1  Initial CI
      Warning! Maxstep = 0.81, scaling to 0.20
   @MCSCF  2:    -75.502178468330   -1.8256e-02  3.30e-02  1.67e-05    8    1  TS
      Warning! Maxstep = 0.55, scaling to 0.20
   @MCSCF  3:    -75.521076206630   -1.8898e-02  2.39e-02  1.78e-05    8    1  TS
      Warning! Maxstep = 0.35, scaling to 0.20
   @MCSCF  4:    -75.536926615050   -1.5850e-02  1.40e-02  1.70e-05    8    1  TS
   @MCSCF  5:    -75.545870192633   -8.9436e-03  4.61e-03  6.41e-06   10    1  TS
   @MCSCF  6:    -75.547046211874   -1.1760e-03  1.79e-03  1.60e-06   10    1  TS
   @MCSCF  7:    -75.547231010805   -1.8480e-04  8.01e-04  6.26e-07   10    1  TS
   @MCSCF  8:    -75.547262574539   -3.1564e-05  3.80e-04  5.53e-07   10    1  TS
   @MCSCF  9:    -75.547268301417   -5.7269e-06  1.85e-04  1.20e-07   10    1  TS
   @MCSCF 10:    -75.547269395339   -1.0939e-06  9.10e-05  1.16e-07    9    1  TS
   @MCSCF 11:    -75.547269613665   -2.1833e-07  4.50e-05  4.73e-08    9    1  TS, DIIS
   @MCSCF 12:    -75.547269658845   -4.5180e-08  2.23e-05  2.70e-08    9    1  TS, DIIS
   @MCSCF 13:    -75.547269664580   -5.7343e-09  1.42e-05  1.23e-08   10    1  TS, DIIS
   @MCSCF 14:    -75.547269670947   -6.3671e-09  2.62e-06  6.69e-09   10    1  TS, DIIS
   @MCSCF 15:    -75.547269670993   -4.6342e-11  2.34e-06  1.69e-09   10    1  TS, DIIS
   @MCSCF 16:    -75.547269671162   -1.6890e-10  4.81e-07  1.59e-09   10    1  TS, DIIS
   @MCSCF 17:    -75.547269671169   -7.4181e-12  4.69e-08  2.99e-10   10    1  TS, DIIS
   @MCSCF 18:    -75.547269671170   -8.5265e-14  2.07e-09  2.67e-11   10    1  TS, DIIS

          @MCSCF has converged!

   @MCSCF Final Energy:  -75.547269671169573

   Computing CI Semicanonical Orbitals

   ==> Starting CI iterations <==

    H0 Block Eigenvalue = -75.61027400

    Simultaneous Expansion Method (Block Davidson Method)
    Using 2 initial trial vectors

     Iter   Root       Total Energy       Delta E      C RMS

   @CI  0:     0    -75.610274004193   -1.7947E+01   2.3746E-13  
   @CI  0:     1    -75.484265338146   -1.7821E+01   2.5770E-12  

    Warning: Norm of correction (root 0) is < 1.0E-13
    Warning: Norm of correction (root 1) is < 1.0E-13
   @CI  1:     0    -75.610274004193   0.0000E+00   5.6488E-13 c
   @CI  1:     1    -75.484265338146   1.4211E-14   2.5841E-12 c


   ==> Energetics <==

    SCF energy =          -75.383084844671203
    Total MCSCF energy =  -75.547269671169573

   ==> MCSCF root 0 information <==

    MCSCF Root 0 energy =   -75.610274004193059

   Active Space Natural occupation numbers:

        Ag   1.985711       B3u   1.897687       B2u   1.897687
       B1u   1.566403        Ag   0.429735       B3g   0.105597
       B2g   0.105597       B1u   0.011581

   The 20 most important determinants:

    *   1   -0.836113  (   12,   12)  2AgX 2B1uX 1B2uX 1B3uX 
    *   2    0.395064  (   42,   42)  2AgX 3AgX 1B2uX 1B3uX 
    *   3    0.111203  (   38,   38)  2AgX 1B3gX 2B1uX 1B3uX 
    *   4    0.111203  (   34,   34)  2AgX 1B2gX 2B1uX 1B2uX 
    *   5    0.094059  (   66,   68)  2AgX 3AgA 1B3gB 2B1uA 1B2uB 1B3uX 
    *   6    0.094059  (   68,   66)  2AgX 3AgB 1B3gA 2B1uB 1B2uA 1B3uX 
    *   7   -0.094059  (   56,   60)  2AgX 3AgA 1B2gB 2B1uA 1B2uX 1B3uB 
    *   8   -0.094059  (   60,   56)  2AgX 3AgB 1B2gA 2B1uB 1B2uX 1B3uA 
    *   9    0.087785  (   38,   42)  2AgX 3AgB 1B3gA 2B1uA 1B2uB 1B3uX 
    *  10    0.087785  (   42,   38)  2AgX 3AgA 1B3gB 2B1uB 1B2uA 1B3uX 
    *  11   -0.087785  (   34,   42)  2AgX 3AgB 1B2gA 2B1uA 1B2uX 1B3uB 
    *  12   -0.087785  (   42,   34)  2AgX 3AgA 1B2gB 2B1uB 1B2uX 1B3uA 
    *  13   -0.072652  (   10,   10)  2AgX 3AgX 1B3gX 1B3uX 
    *  14   -0.072652  (    8,    8)  2AgX 3AgX 1B2gX 1B2uX 
    *  15   -0.064866  (   34,   38)  2AgX 1B2gA 1B3gB 2B1uX 1B2uA 1B3uB 
    *  16   -0.064866  (   38,   34)  2AgX 1B2gB 1B3gA 2B1uX 1B2uB 1B3uA 
    *  17    0.045583  (   68,   68)  2AgX 1B3gX 1B2uX 1B3uX 
    *  18    0.045583  (   60,   60)  2AgX 1B2gX 1B2uX 1B3uX 
    *  19    0.041818  (    8,   10)  2AgX 3AgX 1B2gA 1B3gB 1B2uA 1B3uB 
    *  20    0.041818  (   10,    8)  2AgX 3AgX 1B2gB 1B3gA 1B2uB 1B3uA 


   ==> MCSCF root 1 information <==

    MCSCF Root 1 energy =   -75.484265338146159

   Active Space Natural occupation numbers:

        Ag   1.976105        Ag   1.904406       B1u   1.708421
       B3u   1.139164       B2u   1.139164       B2g   0.059700
       B3g   0.059700       B1u   0.013339

   The 20 most important determinants:

    *   1    0.623278  (   66,   66)  2AgX 3AgX 2B1uX 1B3uX 
    *   2    0.623278  (   56,   56)  2AgX 3AgX 2B1uX 1B2uX 
    *   3   -0.336237  (   42,   42)  2AgX 3AgX 1B2uX 1B3uX 
    *   4   -0.124318  (   12,   12)  2AgX 2B1uX 1B2uX 1B3uX 
    *   5   -0.093686  (   16,   16)  2AgX 3AgX 1B2gX 2B1uX 
    *   6   -0.093686  (   24,   24)  2AgX 3AgX 1B3gX 2B1uX 
    *   7   -0.076832  (   10,   12)  2AgX 3AgA 1B3gA 2B1uB 1B2uB 1B3uX 
    *   8   -0.076832  (   12,   10)  2AgX 3AgB 1B3gB 2B1uA 1B2uA 1B3uX 
    *   9    0.076832  (   12,    8)  2AgX 3AgB 1B2gB 2B1uA 1B2uX 1B3uA 
    *  10    0.076832  (    8,   12)  2AgX 3AgA 1B2gA 2B1uB 1B2uX 1B3uB 
    *  11   -0.067951  (   13,   13)  3AgX 2B1uX 1B2uX 1B3uX 
    *  12    0.058913  (   42,   38)  2AgX 3AgA 1B3gB 2B1uB 1B2uA 1B3uX 
    *  13    0.058913  (   38,   42)  2AgX 3AgB 1B3gA 2B1uA 1B2uB 1B3uX 
    *  14   -0.058913  (   34,   42)  2AgX 3AgB 1B2gA 2B1uA 1B2uX 1B3uB 
    *  15   -0.058913  (   42,   34)  2AgX 3AgA 1B2gB 2B1uB 1B2uX 1B3uA 
    *  16    0.041162  (   13,   10)  2AgB 3AgX 1B3gB 2B1uA 1B2uA 1B3uX 
    *  17    0.041162  (   10,   13)  2AgA 3AgX 1B3gA 2B1uB 1B2uB 1B3uX 
    *  18   -0.041162  (   13,    8)  2AgB 3AgX 1B2gB 2B1uA 1B2uX 1B3uA 
    *  19   -0.041162  (    8,   13)  2AgA 3AgX 1B2gA 2B1uB 1B2uX 1B3uB 
    *  20   -0.033486  (    2,    2)  2AgX 3AgX 1B2gX 1B3uX 



Properties will be evaluated at   0.000000,   0.000000,   0.000000 [a0]

Properties computed using the CASSCF density matrix

  Nuclear Dipole Moment: [e a0]
     X:     0.0000      Y:     0.0000      Z:     0.0000

  Electronic Dipole Moment: [e a0]
     X:     0.0000      Y:     0.0000      Z:     0.0000

  Dipole Moment: [e a0]
     X:     0.0000      Y:     0.0000      Z:     0.0000     Total:     0.0000

  Dipole Moment: [D]
     X:     0.0000      Y:     0.0000      Z:     0.0000     Total:     0.0000

    CASSCF(8,8)/cc-pCVDZ (PSI4) energy....................................................PASSED

Scratch directory: /Users/york/scratch/psi4/

 Data is an array -> call again
 Data is an array -> call again
  Forte
  ----------------------------------------------------------------------------
  A suite of quantum chemistry methods for strongly correlated electrons

    git branch: mcscf_minor_change - git commit: 020249c7

  Developed by:
    Francesco A. Evangelista, Chenyang Li, Kevin P. Hannon,
    Jeffrey B. Schriber, Tianyuan Zhang, Chenxi Cai,
    Nan He, Nicholas Stair, Shuhe Wang, Renke Huang
  ----------------------------------------------------------------------------

  Size of Determinant class: 128 bits

  Preparing forte objects from a Psi4 Wavefunction object
  Read options for space FROZEN_DOCC
  Read options for space RESTRICTED_DOCC
  Read options for space ACTIVE
  Read options for space FROZEN_DOCC
  Read options for space RESTRICTED_DOCC

  ==> MO Space Information <==

  -------------------------------------------------------------------------
                       Ag   B1g   B2g   B3g    Au   B1u   B2u   B3u   Sum
  -------------------------------------------------------------------------
    FROZEN_DOCC         0     0     0     0     0     0     0     0     0
    RESTRICTED_DOCC     1     0     0     0     0     1     0     0     2
    GAS1                2     0     1     1     0     2     1     1     8
    GAS2                0     0     0     0     0     0     0     0     0
    GAS3                0     0     0     0     0     0     0     0     0
    GAS4                0     0     0     0     0     0     0     0     0
    GAS5                0     0     0     0     0     0     0     0     0
    GAS6                0     0     0     0     0     0     0     0     0
    RESTRICTED_UOCC     6     1     3     3     1     6     3     3    26
    FROZEN_UOCC         0     0     0     0     0     0     0     0     0
    Total               9     1     4     4     1     9     4     4    36
  -------------------------------------------------------------------------   => Loading Basis Set <=

    Name: CC-PCVDZ
    Role: ORBITAL
    Keyword: BASIS
    atoms 1-2 entry C          line   178 file /Users/york/src/psi4new/psi4/share/psi4/basis/cc-pcvdz.gbs 


  Checking orbital orthonormality against current geometry ... Done (OK)

   => Loading Basis Set <=

    Name: STO-3G
    Role: ORBITAL
    Keyword: MINAO_BASIS
    atoms 1-2 entry C          line    61 file /Users/york/src/psi4new/psi4/share/psi4/basis/sto-3g.gbs 


  ==> List of Planes Requested <==

  Forte will use psi4 integrals

  ==> Primary Basis Set Summary <==

  Basis Set: CC-PCVDZ
    Blend: CC-PCVDZ
    Number of shells: 16
    Number of basis functions: 36
    Number of Cartesian functions: 38
    Spherical Harmonics?: true
    Max angular momentum: 2


  JK created using conventional PK integrals
  Using in-core PK algorithm.
   Calculation information:
      Number of atoms:                   2
      Number of AO shells:              16
      Number of primitives:             48
      Number of atomic orbitals:        38
      Number of basis functions:        36

      Integral cutoff                 1.00e-12
      Number of threads:                 1

  Performing in-core PK
  Using 444222 doubles for integral storage.
  We computed 9177 shell quartets total.
  Whereas there are 9316 unique shell quartets.

  ==> DiskJK: Disk-Based J/K Matrices <==

    J tasked:                  Yes
    K tasked:                  Yes
    wK tasked:                  No
    Memory [MiB]:              381
    Schwarz Cutoff:          1E-12

    OpenMP threads:              1



  ==> Integral Transformation <==

  Number of molecular orbitals:                         36
  Number of correlated molecular orbitals:              36
  Number of frozen occupied orbitals:                    0
  Number of frozen unoccupied orbitals:                  0
  Two-electron integral type:                 Conventional


  Computing Conventional Integrals	Presorting SO-basis two-electron integrals.
	Sorting File: SO Ints (nn|nn) nbuckets = 1
	Constructing frozen core operators
	Starting first half-transformation.
	Sorting half-transformed integrals.
	First half integral transformation complete.
	Starting second half-transformation.
	Two-electron integral transformation complete.

  Integral transformation done. 0.03604890 s
  Reading the two-electron integrals from disk
  Size of two-electron integrals:   0.037542 GB
  Timing for conventional integral transformation:            0.256 s.
  Timing for freezing core and virtual orbitals:              0.000 s.
  Timing for computing conventional integrals:                0.256 s.

  ==> Summary of Active Space Solver Input <==

    Irrep.  Multi.(2ms)      N
    --------------------------
       Ag      1  (  0)      3
    --------------------------
    N: number of roots
    ms: spin z component
    Total number of roots:   3
    --------------------------


              ---------------------------------------------------
                Complete Active Space Configuration Interaction
                                  Chenyang Li
              ---------------------------------------------------


  ==> Input Summary <==

    No. a electrons in active      =     4
    No. b electrons in active      =     4
    multiplicity                   =     1
    spin ms (2 * Sz)               =     0

  ==> Orbital Spaces <==

    TOTAL MO                      [    9     1     4     4     1     9     4     4 ]
    FROZEN CORE                   [    0     0     0     0     0     0     0     0 ]
    FROZEN VIRTUAL                [    0     0     0     0     0     0     0     0 ]
    CORRELATED MO                 [    9     1     4     4     1     9     4     4 ]
    CORE                          [    1     0     0     0     0     1     0     0 ]
    ACTIVE                        [    2     0     1     1     0     2     1     1 ]
    VIRTUAL                       [    6     1     3     3     1     6     3     3 ]
  Forming alpha and beta strings      ...  Done. Timing        0.000060 s
  Forming determinants                ...  Done. Timing        0.000021 s

  ==> Determinants Summary <==

    number of alpha active electrons         =     4
    number of beta active electrons          =     4
    root symmetry (zero based)               =     0
    number of determinants                   =   660

  Diagonalizing Hamiltonian           ...

  ==> Computing 1 Coupling Lists <==

        α          8.703e-04 seconds
        β          9.660e-04 seconds

  ==> Computing 2 Coupling Lists <==

        αα         1.141e-03 seconds
        ββ         1.101e-03 seconds
        αβ         3.871e-03 seconds

  Davidson-Liu solver algorithm using SigmaVectorSparseList sigma algorithm
  Initial guess determinants:         150

  Spin-adaptation of the initial guess based on minimum spin-complete subset
  Initial guess determinants do not form a spin-complete set. 20 determinant(s) missing

  Guess determinants after screening: 144

  Initial guess solutions
  ========================
  Number   2S+1   Selected
  ------------------------
    63       1       *
    61       3        
    19       5        
     1       7        
  ========================

  Setting initial guess and roots to project
  Adding guess 0        2S+1 = 1    E = -17.923241
  Adding guess 1        2S+1 = 1    E = -17.802386
  Adding guess 2        2S+1 = 1    E = -17.801974
  Adding guess 3        2S+1 = 1    E = -17.645669
  Adding guess 4        2S+1 = 1    E = -17.473650
  Adding guess 5        2S+1 = 1    E = -17.412641
  Projecting out guess  2S+1 = 3    E = -17.564712
  Projecting out guess  2S+1 = 3    E = -17.523996
  Projecting out guess  2S+1 = 3    E = -17.474592
  Projecting out guess  2S+1 = 3    E = -17.439390
  Projecting out guess  2S+1 = 5    E = -17.691783
  Projecting out guess  2S+1 = 5    E = -17.629113

  Projecting out 6 solutions

  ==> Diagonalizing Hamiltonian <==

  Energy   convergence: 1.00e-12
  Residual convergence: 1.00e-08
  -----------------------------------------------------
    Iter.      Avg. Energy       Delta_E     Res. Norm
  -----------------------------------------------------
      1      -17.842533557311  -1.784e+01  +2.244e-01
      2      -17.861805449493  -1.927e-02  +4.437e-02
      3      -17.862396969046  -5.915e-04  +1.467e-02
      4      -17.862510174089  -1.132e-04  +4.901e-03
      5      -17.862522417829  -1.224e-05  +1.901e-03
      6      -17.862524612314  -2.194e-06  +9.315e-04
      7      -17.862525078089  -4.658e-07  +2.726e-04
      8      -17.862525124241  -4.615e-08  +1.007e-04
      9      -17.862525130868  -6.627e-09  +4.781e-05
     10      -17.862525132822  -1.954e-09  +1.890e-05
     11      -17.862525133058  -2.356e-10  +7.275e-06
     12      -17.862525133097  -3.941e-11  +4.069e-06
     13      -17.862525133108  -1.103e-11  +1.712e-06
     14      -17.862525133110  -1.478e-12  +6.298e-07
     15      -17.862525133110  -2.274e-13  +3.100e-07
     16      -17.862525133110  -6.040e-14  +1.515e-07
     17      -17.862525133110  -2.132e-14  +6.486e-08
     18      -17.862525133110  -1.421e-14  +3.809e-08
     19      -17.862525133110  +1.421e-14  +1.906e-08
     20      -17.862525133110  -7.105e-15  +7.523e-09
     21      -17.862525133110  +0.000e+00  +4.209e-09
  -----------------------------------------------------
  The Davidson-Liu algorithm converged in 22 iterations.
  Davidson-Liu procedure took  0.096002 s  Done. Timing        0.104608 s

  * * * * * * * * * * * * * * * * *
  *  CI Vectors & Configurations  *
  * * * * * * * * * * * * * * * * *

  ==> Root No. 0 <==

    20 0 0 20 2 2         -0.8361131062
    22 0 0 00 2 2          0.3950635294
    20 0 2 20 0 2          0.1112025493
    20 2 0 20 2 0          0.1112025493
    2a 0 b a0 b 2          0.0940587464
    2b 0 a b0 a 2          0.0940587464
    2b a 0 b0 2 a         -0.0940587464
    2a b 0 a0 2 b         -0.0940587464
    2a 0 b b0 a 2          0.0877845068
    2b 0 a a0 b 2          0.0877845068
    2a b 0 b0 2 a         -0.0877845068
    2b a 0 a0 2 b         -0.0877845068
    22 0 2 00 0 2         -0.0726523020
    22 2 0 00 2 0         -0.0726523020
    20 b a 20 b a         -0.0648658813
    20 a b 20 a b         -0.0648658813

    Total Energy:   -75.610274004193272


  ==> Root No. 1 <==

    22 0 0 20 0 2          0.6232781459
    22 0 0 20 2 0          0.6232781450
    22 0 0 00 2 2         -0.3362372080
    20 0 0 20 2 2         -0.1243183025
    22 2 0 20 0 0         -0.0936862728
    22 0 2 20 0 0         -0.0936862727
    2a 0 a b0 b 2         -0.0768320073
    2b 0 b a0 a 2         -0.0768320073
    2a a 0 b0 2 b          0.0768320073
    2b b 0 a0 2 a          0.0768320073
    02 0 0 20 2 2         -0.0679509632
    2a 0 b b0 a 2          0.0589132105
    2b 0 a a0 b 2          0.0589132105
    2a b 0 b0 2 a         -0.0589132105
    2b a 0 a0 2 b         -0.0589132105

    Total Energy:   -75.484265338146258


  ==> Root No. 2 <==

    22 0 0 20 2 0          0.6835699704
    22 0 0 20 0 2         -0.6835699696
    22 0 2 20 0 0         -0.0912280164
    22 2 0 20 0 0          0.0912280163
    22 2 0 00 2 0         -0.0591795379
    22 0 2 00 0 2          0.0591795379

    Total Energy:   -75.482765721522924



  ==> Permanent Dipole Moments (Ag) <==

  Only print nonzero (> 1.0e-5) elements.


  ==> Transition Dipole Moments (Ag -> Ag) <==

  Only print nonzero (> 1.0e-5) elements.


  ==> Oscillator Strength (Ag -> Ag) <==

  Only print nonzero (> 1.0e-5) elements.


  ==> Energy Summary <==

    Multi.(2ms)  Irrep.  No.               Energy      <S^2>
    --------------------------------------------------------
       1  (  0)    Ag     0      -75.610274004193       n/a
       1  (  0)    Ag     1      -75.484265338146       n/a
       1  (  0)    Ag     2      -75.482765721523       n/a
    --------------------------------------------------------
 Computing  1RDMs (0 Singlet Ag - 0 Singlet Ag) ... Done. Timing        0.002033 s
 Computing  2RDMs (0 Singlet Ag - 0 Singlet Ag) ... Done. Timing        0.005036 s
 Computing  1RDMs (1 Singlet Ag - 1 Singlet Ag) ... Done. Timing        0.002146 s
 Computing  2RDMs (1 Singlet Ag - 1 Singlet Ag) ... Done. Timing        0.004812 s

  ==> Semicanonicalize Orbitals <==

    MIX INACTIVE ORBITALS   ...... FALSE
    MIX GAS ACTIVE ORBITALS ...... FALSE
    FROZEN_DOCC     ...  CANONICAL
    FROZEN_UOCC     ...  CANONICAL
    GAS1            ...  CANONICAL
    RESTRICTED_DOCC ...  CANONICAL
    RESTRICTED_UOCC ...  CANONICAL

    Off-Diag. Elements       Max           2-Norm
    ------------------------------------------------
    GAS1                 0.0000000001   0.0000000002
    RESTRICTED_DOCC      0.0000000000   0.0000000000
    RESTRICTED_UOCC      0.0000000000   0.0000000001
    ------------------------------------------------
  Integrals are about to be updated.
  Computing Conventional Integrals	Presorting SO-basis two-electron integrals.
	Sorting File: SO Ints (nn|nn) nbuckets = 1
	Constructing frozen core operators
	Starting first half-transformation.
	Sorting half-transformed integrals.
	First half integral transformation complete.
	Starting second half-transformation.
	Two-electron integral transformation complete.

  Integral transformation done. 0.03536035 s
  Reading the two-electron integrals from disk
  Size of two-electron integrals:   0.037542 GB
  Timing for conventional integral transformation:            0.252 s.
  Timing for freezing core and virtual orbitals:              0.000 s.
  Integrals update took     0.252 s.
  Rotating RDMs using spin restricted formalism ...
    Transformed 1 RDM.
    Transformed 2 RDM.
  Timing for orbital canonicalization:                        0.271 s.

    -----------------------------------------------------------------------
      Spin-Adapted Multireference Driven Similarity Renormalization Group
                            written by Chenyang Li
                                 1 OMP thread
    -----------------------------------------------------------------------

  Disclaimer:
    The spin-adapted DSRG code is largely adopted from the spin-integrated code developed by
    Chenyang Li, Kevin P. Hannon, Tianyuan Zhang, and Francesco A. Evangelista.

  ==> Multireference Driven Similarity Renormalization Group <==

    Computing Fock matrix and cleaning JK ....... Done. Timing      0.009 s
    Reading DSRG options ........................ Done. Timing      0.000 s
    Setting ambit MO space ...................... Done. Timing      0.000 s
    Initializing density cumulants .............. Done. Timing      0.001 s
    Filling Fock matrix from ForteIntegrals ..... Done. Timing      0.001 s

  ==> Density Cumulant Summary <==

             2-cumulant   3-cumulant
    --------------------------------
    max        0.425406     0.000000
    2-norm     1.636358     0.000000
    --------------------------------

  ==> Checking Semicanonical Orbitals <==

    Block                Max            Mean
    ----------------------------------------
    CORE        0.0000000000    0.0000000000
    VIRTUAL     0.0000000000    0.0000000000
    GAS1        0.0000000000    0.0000000000
    ----------------------------------------
    Orbitals are semi-canonicalized.

                  --------------------------------------------
                    MR-DSRG Second-Order Perturbation Theory
                  --------------------------------------------


  ==> Computation Information <==

    Integral type                               CONVENTIONAL
    Source operator                                 STANDARD
    Core-Virtual source type                          NORMAL
    Reference relaxation                                ONCE
    Internal amplitudes                                 NONE
    State type                               MULTIPLE STATES
    Multi-state type                                 SA_FULL
    Flow parameter                                 1.000e+00
    Taylor expansion threshold                     1.000e-03
    Intruder amplitudes threshold                  1.000e-01
    Number of amplitudes for printing                     15


  ==> DSRG-MRPT2 Memory Information <==

    Memory assigned by the user                    500.00 MB
    Memory available for MR-DSRG                   423.09 MB
    Generalized Fock matrix                         10.66 KB
    1- and 2-density cumulants                      33.79 KB
    2-electron (4-index) integrals                   0.92 MB
    T2 cluster amplitudes                            0.92 MB
    T1 cluster amplitudes                            2.72 KB
    1- and 2-body Hbar                              33.28 KB
    Local 1- and 2-body intermediates               33.28 KB
    Local integrals for forming Hbar               313.34 KB
    Max memory for local intermediates             313.34 KB
    Memory currently available                     421.16 MB

    Initializing integrals ...................... Done. Timing      0.016 s
    Allocating amplitudes ....................... Done. Timing      0.004 s
    Computing T2 amplitudes ..................... Done. Timing      0.017 s
    Computing T1 amplitudes ..................... Done. Timing      0.005 s

  ==> First-Order Excitation Amplitudes Summary <==

    Active Indices:    1    2   10   14   20   21   28   32
    Largest T1 amplitudes (absolute values):
        i    a                i    a                i    a
    -----------------------------------------------------------------
    [  21   25] 0.2454076 [  21   22] 0.1207676 [  10   11] 0.0828177
    [  14   15] 0.0828177 [   2    4] 0.0282242 [  28   30] 0.0212206
    [  32   34] 0.0212206 [  28   29] 0.0209304 [  32   33] 0.0209304
    [   2    3] 0.0185216 [  20   22] 0.0153370 [  20   23] 0.0121826
    [   2    6] 0.0092564 [   0    1] 0.0091256 [  21   23] 0.0086303
    -----------------------------------------------------------------
    2-Norm of T1 vector:                            0.303591604341008
    Number of nonzero elements:                                    52
    -----------------------------------------------------------------
    Largest T2 amplitudes (absolute values):
        i    j    a    b                i    j    a    b                i    j    a    b
    -----------------------------------------------------------------------------------------------
    [  21   32   21   33] 0.0920356 [  21   28   21   29] 0.0920356 [   1   32    1   33] 0.0883511
    [   1   28    1   29] 0.0883511 [  21   21   21   25] 0.0862993 [   1   21    1   25] 0.0844950
    [  10   32   10   33] 0.0673127 [  14   28   14   29] 0.0673127 [  20   14    2   30] 0.0651928
    [  20   10    2   34] 0.0651928 [   2   10   20   34] 0.0650474 [   2   14   20   30] 0.0650474
    [   1    2    1    3] 0.0639337 [  32   32   32   33] 0.0625484 [  28   28   28   29] 0.0625484
    -----------------------------------------------------------------------------------------------
    2-Norm of T2 vector:                                                          0.916265812165979
    Number of nonzero elements:                                                               15382
    -----------------------------------------------------------------------------------------------

  ==> Possible Intruders <==

    T1 amplitudes larger than 0.1000:
     Amplitudes      Value                   Denominator
    ----------------------------------------------------------------
    [  21   25]   0.245407636 (  1.128396 -   2.382580 =  -1.254184)
    [  21   22]  -0.120767607 (  1.128396 -   0.515892 =   0.612504)
    ----------------------------------------------------------------
    T2 amplitudes larger than 0.1000: NULL
    Renormalizing 2-body integrals .............. Done. Timing      0.011 s
    Renormalizing 1-body integrals .............. Done. Timing      0.005 s
    Computing <0|[Fr, T1]|0> .................... Done. Timing      0.001 s
    Computing <0|[Fr, T2]|0> .................... Done. Timing      0.002 s
    Computing <0|[Vr, T1]|0> .................... Done. Timing      0.002 s
    Computing <0|[Vr, T2]|0> .................... Done. Timing      0.034 s

  ==> DSRG-MRPT2 Energy Summary <==

    E0 (reference)                 =    -75.547269670389426
    < Phi_0 | [Fr, T1] | Phi_0 >   =     -0.016545052989213
    < Phi_0 | [Fr, T2] | Phi_0 >   =      0.015369103950947
    < Phi_0 | [Vr, T1] | Phi_0 >   =      0.016121096383156
    < Phi_0 | [Vr, T2] | Phi_0 >   =     -0.196648995004264
      - [Vr, T2] L1 contribution   =     -0.269018173847147
      - [Vr, T2] L2 contribution   =      0.072369178842882
      - [Vr, T2] L3 contribution   =      0.000000000000000
    DSRG-MRPT2 correlation energy  =     -0.181703847659375
    DSRG-MRPT2 total energy        =    -75.728973518048804
    Computing MRPT2 Hbar AAAA ................... Done. Timing      0.143 s

  ==> De-Normal-Order DSRG Transformed Hamiltonian <==

    Computing the scalar term ................... Done. Timing      0.002 s
    Computing the 1-body term ................... Done. Timing      0.000 s

  ==> Rotate DSRG Transformed Hamiltonian back to Original Basis <==

    Rotating 1-body term to original basis ...... Done. Timing      0.000 s
    Rotating 2-body term to original basis ...... Done. Timing      0.010 s

              ---------------------------------------------------
                Complete Active Space Configuration Interaction
                                  Chenyang Li
              ---------------------------------------------------


  ==> Input Summary <==

    No. a electrons in active      =     4
    No. b electrons in active      =     4
    multiplicity                   =     1
    spin ms (2 * Sz)               =     0

  ==> Orbital Spaces <==

    TOTAL MO                      [    9     1     4     4     1     9     4     4 ]
    FROZEN CORE                   [    0     0     0     0     0     0     0     0 ]
    FROZEN VIRTUAL                [    0     0     0     0     0     0     0     0 ]
    CORRELATED MO                 [    9     1     4     4     1     9     4     4 ]
    CORE                          [    1     0     0     0     0     1     0     0 ]
    ACTIVE                        [    2     0     1     1     0     2     1     1 ]
    VIRTUAL                       [    6     1     3     3     1     6     3     3 ]
  Forming alpha and beta strings      ...  Done. Timing        0.000097 s
  Forming determinants                ...  Done. Timing        0.000025 s

  ==> Determinants Summary <==

    number of alpha active electrons         =     4
    number of beta active electrons          =     4
    root symmetry (zero based)               =     0
    number of determinants                   =   660

  Diagonalizing Hamiltonian           ...

  ==> Computing 1 Coupling Lists <==

        α          1.029e-03 seconds
        β          1.019e-03 seconds

  ==> Computing 2 Coupling Lists <==

        αα         1.351e-03 seconds
        ββ         1.268e-03 seconds
        αβ         3.625e-03 seconds

  Davidson-Liu solver algorithm using SigmaVectorSparseList sigma algorithm
  Initial guess determinants:         150

  Spin-adaptation of the initial guess based on minimum spin-complete subset
  Initial guess determinants do not form a spin-complete set. 20 determinant(s) missing

  Guess determinants after screening: 144

  Initial guess solutions
  ========================
  Number   2S+1   Selected
  ------------------------
    63       1       *
    61       3        
    19       5        
     1       7        
  ========================

  Setting initial guess and roots to project
  Adding guess 0        2S+1 = 1    E = -15.820249
  Adding guess 1        2S+1 = 1    E = -15.731651
  Adding guess 2        2S+1 = 1    E = -15.722529
  Adding guess 3        2S+1 = 1    E = -15.561606
  Adding guess 4        2S+1 = 1    E = -15.418172
  Adding guess 5        2S+1 = 1    E = -15.378488
  Projecting out guess  2S+1 = 3    E = -15.505514
  Projecting out guess  2S+1 = 3    E = -15.478366
  Projecting out guess  2S+1 = 3    E = -15.431833
  Projecting out guess  2S+1 = 3    E = -15.387096
  Projecting out guess  2S+1 = 5    E = -15.615300
  Projecting out guess  2S+1 = 5    E = -15.569259

  Projecting out 6 solutions

  ==> Diagonalizing Hamiltonian <==

  Energy   convergence: 1.00e-12
  Residual convergence: 1.00e-08
  -----------------------------------------------------
    Iter.      Avg. Energy       Delta_E     Res. Norm
  -----------------------------------------------------
      1      -15.758142997969  -1.576e+01  +1.973e-01
      2      -15.773953411319  -1.581e-02  +3.427e-02
      3      -15.774353223491  -3.998e-04  +1.104e-02
      4      -15.774428571130  -7.535e-05  +3.424e-03
      5      -15.774435288510  -6.717e-06  +1.205e-03
      6      -15.774436242557  -9.540e-07  +5.962e-04
      7      -15.774436445616  -2.031e-07  +1.620e-04
      8      -15.774436463207  -1.759e-08  +5.943e-05
      9      -15.774436465888  -2.681e-09  +2.879e-05
     10      -15.774436466690  -8.020e-10  +1.128e-05
     11      -15.774436466773  -8.270e-11  +4.038e-06
     12      -15.774436466785  -1.208e-11  +2.201e-06
     13      -15.774436466788  -3.258e-12  +9.288e-07
     14      -15.774436466789  -4.636e-13  +3.510e-07
     15      -15.774436466789  -8.349e-14  +1.724e-07
     16      -15.774436466789  -2.132e-14  +8.926e-08
     17      -15.774436466789  -1.066e-14  +3.653e-08
     18      -15.774436466789  -5.329e-15  +2.069e-08
     19      -15.774436466789  +8.882e-15  +1.003e-08
     20      -15.774436466789  -1.776e-15  +3.890e-09
  -----------------------------------------------------
  The Davidson-Liu algorithm converged in 21 iterations.
  Davidson-Liu procedure took  0.097176 s  Done. Timing        0.106208 s

  * * * * * * * * * * * * * * * * *
  *  CI Vectors & Configurations  *
  * * * * * * * * * * * * * * * * *

  ==> Root No. 0 <==

    20 0 0 20 2 2          0.8499036431
    22 0 0 00 2 2         -0.3937325166
    20 2 0 20 2 0         -0.0969768266
    20 0 2 20 0 2         -0.0969768266
    2b a 0 a0 2 b          0.0853015369
    2a b 0 b0 2 a          0.0853015369
    2a 0 b b0 a 2         -0.0853015369
    2b 0 a a0 b 2         -0.0853015369
    2a b 0 a0 2 b          0.0851061475
    2b a 0 b0 2 a          0.0851061475
    2a 0 b a0 b 2         -0.0851061475
    2b 0 a b0 a 2         -0.0851061475
    22 2 0 00 2 0          0.0656521938
    22 0 2 00 0 2          0.0656521938
    20 a b 20 a b          0.0563799669
    20 b a 20 b a          0.0563799669

    Total Energy:   -75.781989502573026


  ==> Root No. 1 <==

    22 0 0 20 2 0          0.6871669297
    22 0 0 20 0 2         -0.6871669271
    22 0 2 20 0 0         -0.0713659126
    22 2 0 20 0 0          0.0713659123
    22 2 0 00 2 0         -0.0569864174
    22 0 2 00 0 2          0.0569864173

    Total Energy:   -75.688200377953109


  ==> Root No. 2 <==

    22 0 0 20 0 2          0.6365387786
    22 0 0 20 2 0          0.6365387758
    22 0 0 00 2 2         -0.3044601075
    20 0 0 20 2 2         -0.0999687527
    02 0 0 20 2 2         -0.0860287275
    22 2 0 20 0 0         -0.0778778795
    22 0 2 20 0 0         -0.0778778792
    2b 0 b a0 a 2         -0.0730462581
    2a 0 a b0 b 2         -0.0730462581
    2b b 0 a0 2 a          0.0730462579
    2a a 0 b0 2 b          0.0730462579
    2b 0 a a0 b 2          0.0553478423
    2a 0 b b0 a 2          0.0553478423
    2a b 0 b0 2 a         -0.0553478421
    2b a 0 a0 2 b         -0.0553478421

    Total Energy:   -75.679593509889415



  ==> Permanent Dipole Moments (Ag) <==

  Only print nonzero (> 1.0e-5) elements.


  ==> Transition Dipole Moments (Ag -> Ag) <==

  Only print nonzero (> 1.0e-5) elements.


  ==> Oscillator Strength (Ag -> Ag) <==

  Only print nonzero (> 1.0e-5) elements.


  ==> Energy Summary <==

    Multi.(2ms)  Irrep.  No.               Energy      <S^2>
    --------------------------------------------------------
       1  (  0)    Ag     0      -75.781989502573       n/a
       1  (  0)    Ag     1      -75.688200377953       n/a
       1  (  0)    Ag     2      -75.679593509889       n/a
    --------------------------------------------------------

  Forte Warning: Weights will be permuted to ensure consistency before and after relaxation.

  ==> Weights for Singlet (Ms = 0) Ag GAS min: 0 0 0 0 0 0 ; GAS max: 16 0 0 0 0 0 ; <==

    Root    Old       New
    ------------------------
       0 5.000e-01 5.000e-01
       1 5.000e-01 0.000e+00
       2 0.000e+00 5.000e-01
    ------------------------


  ==> Total Timings (s) for Computing Commutators <==

             [H1, T1]    [H1, T2]    [H2, T1]    [H2, T2]
    -----------------------------------------------------
    -> C0       0.001       0.002       0.002       0.034
    -> C1       0.000       0.000       0.000       0.000
    -> C2                   0.000       0.000       0.000
    -----------------------------------------------------


  Time to prepare integrals:        0.600 seconds
  Time to run job          :        0.829 seconds
  Total                    :        1.428 seconds
    SA-DSRG-MRPT2 relaxed energy singlet Sigma_g^+ root 0.................................PASSED
    SA-DSRG-MRPT2 relaxed energy singlet Sigma_g^+ root 1.................................PASSED

    Psi4 stopped on: Saturday, 31 July 2021 04:32AM
    Psi4 wall time for execution: 0:00:06.52

*** Psi4 exiting successfully. Buy a developer a beer!
