
    -----------------------------------------------------------------------
          Psi4: An Open-Source Ab Initio Electronic Structure Package
                               Psi4 1.2a1.dev704 

                         Git: Rev {master} a7fc050 


    R. M. Parrish, L. A. Burns, D. G. A. Smith, A. C. Simmonett,
    A. E. DePrince III, E. G. Hohenstein, U. Bozkaya, A. Yu. Sokolov,
    R. Di Remigio, R. M. Richard, J. F. Gonthier, A. M. James,
    H. R. McAlexander, A. Kumar, M. Saitow, X. Wang, B. P. Pritchard,
    P. Verma, H. F. Schaefer III, K. Patkowski, R. A. King, E. F. Valeev,
    F. A. Evangelista, J. M. Turney, T. D. Crawford, and C. D. Sherrill,
    J. Chem. Theory Comput. 13(7) pp 3185--3197 (2017).
    (doi: 10.1021/acs.jctc.7b00174)

    -----------------------------------------------------------------------


    Psi4 started on: Monday, 25 December 2017 07:55PM

    Process ID:  19816
    PSIDATADIR: /Users/york/src/psi4new/psi4/share/psi4
    Memory:     500.0 MiB
    Threads:    1
    
  ==> Input File <==

--------------------------------------------------------------------------
#! Generated using commit GITCOMMIT

import forte

Emcscf_avg = -106.75288506058001
Ept2_root0 = -106.93018542906550
Ept2_root1 = -106.91439502772042

molecule {
  0 1
  Li
  F  1 R
  R = 10.000

  units bohr
}

basis {
  assign Li Li-cc-pvdz
  assign F  aug-cc-pvdz
[ Li-cc-pvdz ]
spherical
****
Li     0
S   8   1.00
   1469.0000000              0.0007660
    220.5000000              0.0058920
     50.2600000              0.0296710
     14.2400000              0.1091800
      4.5810000              0.2827890
      1.5800000              0.4531230
      0.5640000              0.2747740
      0.0734500              0.0097510
S   8   1.00
   1469.0000000             -0.0001200
    220.5000000             -0.0009230
     50.2600000             -0.0046890
     14.2400000             -0.0176820
      4.5810000             -0.0489020
      1.5800000             -0.0960090
      0.5640000             -0.1363800
      0.0734500              0.5751020
S   1   1.00
      0.0280500              1.0000000
P   3   1.00
      1.5340000              0.0227840
      0.2749000              0.1391070
      0.0736200              0.5003750
P   1   1.00
      0.0240300              1.0000000
D   1   1.00
      0.1239000              1.0000000
****
}

set globals{
  reference           rhf
  scf_type            out_of_core
  maxiter             300
  e_convergence       10
  d_convergence       10
  docc                [4,0,1,1]
  restricted_docc     [3,0,1,1]
  active              [2,0,0,0]
  mcscf_r_convergence 7
  mcscf_e_convergence 10
  mcscf_maxiter       250
  mcscf_diis_start    6
  num_roots           2
  follow_root         2
  avg_states          [0,1]
}

set forte{
  job_type           dwms-dsrgpt2
  frozen_docc        [3,0,0,0]
  restricted_docc    [0,0,1,1]
  active             [2,0,0,0]
  dsrg_s             0.5
  maxiter            50
  e_convergence      10
  cas_type           cas
  avg_state          [[0,1,2]]
  dwms_zeta          100.0
  dwms_algorithm     dwms-avg0
}

Emcscf, wfn = energy('casscf', return_wfn=True)
compare_values(Emcscf_avg,get_variable("CURRENT ENERGY"),8,"SA-CASSCF energy")

energy('forte',ref_wfn=wfn)
compare_values(Ept2_root0,get_variable("ENERGY ROOT 0"),8,"DWMS-DSRG-PT2 energy on root 0")
compare_values(Ept2_root1,get_variable("ENERGY ROOT 1"),8,"DWMS-DSRG-PT2 energy on root 1")
--------------------------------------------------------------------------

*** tstart() called on yorks-mac.wireless.emory.edu
*** at Mon Dec 25 19:55:59 2017

   => Loading Basis Set <=

    Name: ANONYMOUSB823D36C
    Role: ORBITAL
    Keyword: BASIS
    atoms 1 entry LI         line     5 inputblock li-cc-pvdz 
    atoms 2 entry F          line   286 file /Users/york/src/psi4new/psi4/share/psi4/basis/aug-cc-pvdz.gbs 


         ---------------------------------------------------------
                                   SCF
            by Justin Turney, Rob Parrish, Andy Simmonett
                             and Daniel Smith
                              RHF Reference
                        1 Threads,    500 MiB Core
         ---------------------------------------------------------

  ==> Geometry <==

    Molecular point group: c2v
    Full point group: C_inf_v

    Geometry (in Bohr), charge = 0, multiplicity = 1:

       Center              X                  Y                   Z               Mass       
    ------------   -----------------  -----------------  -----------------  -----------------
          LI          0.000000000000     0.000000000000    -7.303031224277     7.016004548000
           F          0.000000000000     0.000000000000     2.696968775723    18.998403224000

  Running in c2v symmetry.

  Rotational constants: A = ************  B =      0.11749  C =      0.11749 [cm^-1]
  Rotational constants: A = ************  B =   3522.26409  C =   3522.26409 [MHz]
  Nuclear repulsion =    2.700000000000000

  Charge       = 0
  Multiplicity = 1
  Electrons    = 12
  Nalpha       = 6
  Nbeta        = 6

  ==> Algorithm <==

  SCF Algorithm Type is OUT_OF_CORE.
  DIIS enabled.
  MOM disabled.
  Fractional occupation disabled.
  Guess Type is SAD.
  Energy threshold   = 1.00e-10
  Density threshold  = 1.00e-10
  Integral threshold = 0.00e+00

  ==> Primary Basis <==

  Basis Set: ANONYMOUSB823D36C
    Blend: AUG-CC-PVDZ + LI-CC-PVDZ
    Number of shells: 15
    Number of basis function: 37
    Number of Cartesian functions: 40
    Spherical Harmonics?: true
    Max angular momentum: 2

  ==> Pre-Iterations <==

   -------------------------------------------------------
    Irrep   Nso     Nmo     Nalpha   Nbeta   Ndocc  Nsocc
   -------------------------------------------------------
     A1        18      18       4       4       4       0
     A2         3       3       0       0       0       0
     B1         8       8       1       1       1       0
     B2         8       8       1       1       1       0
   -------------------------------------------------------
    Total      37      37       6       6       6       0
   -------------------------------------------------------

  ==> Integral Setup <==

  ==> DiskJK: Disk-Based J/K Matrices <==

    J tasked:                  Yes
    K tasked:                  Yes
    wK tasked:                  No
    Memory (MB):               375
    Schwarz Cutoff:          1E-12

  Minimum eigenvalue in the overlap matrix is 8.8020111411E-02.
  Using Symmetric Orthogonalization.

  SCF Guess: Superposition of Atomic Densities via on-the-fly atomic UHF.

  ==> Iterations <==

                        Total Energy        Delta E     RMS |[F,P]|

   @RHF iter   0:  -106.49243849010247   -1.06492e+02   4.41641e-03 
   @RHF iter   1:  -106.67531561935718   -1.82877e-01   2.14611e-02 
   @RHF iter   2:  -105.54391759021568    1.13140e+00   5.79652e-02 DIIS
   @RHF iter   3:  -106.73990819159937   -1.19599e+00   1.07810e-02 DIIS
   @RHF iter   4:  -106.76331726463229   -2.34091e-02   2.28209e-03 DIIS
   @RHF iter   5:  -106.76471112006885   -1.39386e-03   6.44993e-04 DIIS
   @RHF iter   6:  -106.76484619546950   -1.35075e-04   1.83827e-04 DIIS
   @RHF iter   7:  -106.76485600700855   -9.81154e-06   2.43064e-05 DIIS
   @RHF iter   8:  -106.76485633757459   -3.30566e-07   3.27244e-06 DIIS
   @RHF iter   9:  -106.76485635034885   -1.27743e-08   2.09181e-06 DIIS
   @RHF iter  10:  -106.76485635166098   -1.31213e-09   3.99827e-07 DIIS
   @RHF iter  11:  -106.76485635173414   -7.31575e-11   9.00309e-08 DIIS
   @RHF iter  12:  -106.76485635173842   -4.27747e-12   3.41589e-09 DIIS
   @RHF iter  13:  -106.76485635173843   -1.42109e-14   5.87109e-10 DIIS
   @RHF iter  14:  -106.76485635173837    5.68434e-14   6.54590e-11 DIIS

  ==> Post-Iterations <==

    Orbital Energies (a.u.)
    -----------------------

    Doubly Occupied:                                                      

       1A1   -25.949822     2A1    -2.691664     3A1    -1.181713  
       1B1    -0.282869     1B2    -0.282869     4A1    -0.281733  

    Virtual:                                                              

       5A1    -0.102315     2B1    -0.034308     2B2    -0.034308  
       6A1    -0.017926     7A1     0.059038     3B1     0.069758  
       3B2     0.069758     8A1     0.115169     9A1     0.230550  
       1A2     0.230550    10A1     0.235491     4B1     0.236544  
       4B2     0.236544     5B1     0.414969     5B2     0.414969  
      11A1     0.434294    12A1     0.463808    13A1     1.634017  
       6B2     1.634417     6B1     1.634417    14A1     1.636003  
       2A2     1.636003     7B1     1.968778     7B2     1.968778  
      15A1     1.981773    16A1     2.604672    17A1     5.197522  
       8B2     5.197552     8B1     5.197552    18A1     5.198222  
       3A2     5.198222  

    Final Occupation by Irrep:
             A1    A2    B1    B2 
    DOCC [     4,    0,    1,    1 ]

  Energy converged.

  @RHF Final Energy:  -106.76485635173837

   => Energetics <=

    Nuclear Repulsion Energy =              2.7000000000000002
    One-Electron Energy =                -157.5883761454535090
    Two-Electron Energy =                  48.1235197937151469
    Total Energy =                       -106.7648563517383735



Properties will be evaluated at   0.000000,   0.000000,   0.000000 Bohr

Properties computed using the SCF density matrix

  Nuclear Dipole Moment: (a.u.)
     X:     0.0000      Y:     0.0000      Z:     2.3636

  Electronic Dipole Moment: (a.u.)
     X:     0.0000      Y:     0.0000      Z:   -12.2800

  Dipole Moment: (a.u.)
     X:     0.0000      Y:     0.0000      Z:    -9.9163     Total:     9.9163

  Dipole Moment: (Debye)
     X:     0.0000      Y:     0.0000      Z:   -25.2048     Total:    25.2048


*** tstop() called on yorks-mac.wireless.emory.edu at Mon Dec 25 19:56:00 2017
Module time:
	user time   =       0.64 seconds =       0.01 minutes
	system time =       0.06 seconds =       0.00 minutes
	total time  =          1 seconds =       0.02 minutes
Total time:
	user time   =       0.64 seconds =       0.01 minutes
	system time =       0.06 seconds =       0.00 minutes
	total time  =          1 seconds =       0.02 minutes
 MINTS: Wrapper to libmints.
   by Justin Turney

   Calculation information:
      Number of threads:                 1
      Number of atoms:                   2
      Number of AO shells:              15
      Number of SO shells:              15
      Number of primitives:             47
      Number of atomic orbitals:        40
      Number of basis functions:        37

      Number of irreps:                  4
      Integral cutoff                 1.00e-12
      Number of functions per irrep: [  18    3    8    8 ]

 OEINTS: Overlap, kinetic, potential, dipole, and quadrupole integrals
         stored in file 35.

      Computing two-electron integrals...done
      Computed 54201 non-zero two-electron integrals.
        Stored in file 33.


         ---------------------------------------------------------
                Multi-Configurational Self-Consistent Field
                            (a 'D E T C I' module)

                 Daniel G. A. Smith, C. David Sherrill, and
                              Matt L. Leininger
         ---------------------------------------------------------


   ==> Parameters <==

    EX LEVEL       =        2      H0 BLOCKSIZE  =     1000
    VAL EX LEVEL   =        0      H0 GUESS SIZE =     1000
    H0COUPLINGSIZE =        0      H0 COUPLING   =       NO
    MAXITER        =       12      NUM PRINT     =       20
    NUM ROOTS      =        2      ICORE         =        1
    PRINT LVL      =        1      FCI           =      YES
    R CONV         = 1.00e-07      MIXED         =      YES
    E CONV         = 1.00e-10      MIXED4        =      YES
    R4S            =       NO      REPL OTF      =       NO
    DIAG METHOD    =      SEM      FOLLOW ROOT   =        2
    PRECONDITIONER = DAVIDSON      UPDATE        = DAVIDSON
    S              =   0.0000      Ms0           =      YES
    GUESS VECTOR   =  H0BLOCK      OPENTYPE      =     NONE
    COLLAPSE SIZE  =        1      HD AVG        = EVANGELISTI
    MAX NUM VECS   =       26      REF SYM       =     AUTO
    IOPEN        =       NO

    EX ALLOW       =  1  1 
    STATE AVERAGE  =  0(0.50)  1(0.50) 

   ==> CI Orbital and Space information <==

   ------------------------------------------------------
               Space    Total    A1    A2    B1    B2
   ------------------------------------------------------
                 Nso       37    18     3     8     8
                 Nmo       37    18     3     8     8
               Ndocc        6     4     0     1     1
               Nsocc        0     0     0     0     0
   ------------------------------------------------------
                        MCSCF Spaces
   ------------------------------------------------------
         Frozen DOCC        0     0     0     0     0
     Restricted DOCC        5     3     0     1     1
              Active        2     2     0     0     0
     Restricted UOCC       30    13     3     7     7
         Frozen UOCC        0     0     0     0     0
   ------------------------------------------------------

   ==> Setting up CI strings <==

    There are 2 alpha and 2 beta strings
    The CI space requires 4 (4.00E+00) determinants and 1 blocks

   ==> Setting up MCSCF integrals <==

  ==> DiskJK: Disk-Based J/K Matrices <==

    J tasked:                  Yes
    K tasked:                  Yes
    wK tasked:                  No
    Memory (MB):              3200
    Schwarz Cutoff:          1E-12


   ==> Starting MCSCF iterations <==

        Iter         Total Energy       Delta E   Orb RMS    CI RMS  NCI NORB
(sem_iter): H0block_->H0b_diag[1][1] - H0block_->H0b_diag[2][1] = -0.707107 - 0.707107 = -1.414214 > 1.0E-8
   @MCSCF  1:   -106.719655499360    4.5201e-02  7.73e-02  2.37e-09    1    1  Initial CI
   @MCSCF  2:   -106.743591142891   -2.3936e-02  4.80e-02  5.17e-11    1    1  TS
   @MCSCF  3:   -106.749720768411   -6.1296e-03  2.62e-02  1.39e-10    1    1  TS
   @MCSCF  4:   -106.751831448033   -2.1107e-03  1.47e-02  1.01e-10    1    1  TS
   @MCSCF  5:   -106.752507378740   -6.7593e-04  8.16e-03  1.12e-10    1    1  TS
   @MCSCF  6:   -106.752745372462   -2.3799e-04  4.54e-03  1.07e-10    1    1  TS
   @MCSCF  7:   -106.752830377493   -8.5005e-05  2.53e-03  1.10e-10    1    1  TS, DIIS
   @MCSCF  8:   -106.752862680468   -3.2303e-05  1.41e-03  1.09e-10    1    1  TS, DIIS
   @MCSCF  9:   -106.752859178548    3.5019e-06  2.51e-03  1.11e-10    1    1  TS, DIIS
   @MCSCF 10:   -106.752877029822   -1.7851e-05  1.46e-03  1.09e-10    2    1  TS, DIIS
   @MCSCF 11:   -106.752884414845   -7.3850e-06  4.11e-04  1.10e-10    1    1  TS, DIIS
   @MCSCF 12:   -106.752885011887   -5.9704e-07  1.12e-04  1.10e-10    1    1  TS, DIIS
   @MCSCF 13:   -106.752885060481   -4.8595e-08  7.10e-07  1.10e-10    1    1  TS, DIIS
   @MCSCF 14:   -106.752885060478    2.7285e-12  1.11e-06  1.10e-10    1    1  TS, DIIS
   @MCSCF 15:   -106.752885060483   -4.6327e-12  3.42e-09  1.10e-10    1    1  TS, DIIS

          @MCSCF has converged!

   @MCSCF Final Energy: -106.752885060483067

   Computing CI Semicanonical Orbitals

   ==> Energetics <==

    SCF energy =         -106.764856351738374
    Total MCSCF energy = -106.752885060483067

   ==> MCSCF root 0 information <==

    MCSCF Root 0 energy =  -106.772344531017922

   Active Space Natural occupation numbers:

        A1   1.177995        A1   0.822005

   The 4 most important determinants:

    *   1   -0.699843  (    0,    1)  4A1A 5A1B 
    *   2   -0.699843  (    1,    0)  4A1B 5A1A 
    *   3   -0.142097  (    0,    0)  4A1X 
    *   4    0.015730  (    1,    1)  5A1X 


   ==> MCSCF root 1 information <==

    MCSCF Root 1 energy =  -106.733425589948624

   Active Space Natural occupation numbers:

        A1   1.999870        A1   0.000130

   The 4 most important determinants:

    *   1   -0.989853  (    0,    0)  4A1X 
    *   2    0.100467  (    0,    1)  4A1A 5A1B 
    *   3    0.100467  (    1,    0)  4A1B 5A1A 
    *   4   -0.002053  (    1,    1)  5A1X 



Properties will be evaluated at   0.000000,   0.000000,   0.000000 Bohr

Properties computed using the CASSCF density matrix

  Nuclear Dipole Moment: (a.u.)
     X:     0.0000      Y:     0.0000      Z:     2.3636

  Electronic Dipole Moment: (a.u.)
     X:     0.0000      Y:     0.0000      Z:    -7.3349

  Dipole Moment: (a.u.)
     X:     0.0000      Y:     0.0000      Z:    -4.9713     Total:     4.9713

  Dipole Moment: (Debye)
     X:     0.0000      Y:     0.0000      Z:   -12.6357     Total:    12.6357

	SA-CASSCF energy..................................................PASSED
   => Loading Basis Set <=

    Name: STO-3G
    Role: ORBITAL
    Keyword: MINAO_BASIS
    atoms 1 entry LI         line    31 file /Users/york/src/psi4new/psi4/share/psi4/basis/sto-3g.gbs 
    atoms 2 entry F          line    91 file /Users/york/src/psi4new/psi4/share/psi4/basis/sto-3g.gbs 


Reading options from the FORTE block
Calling plugin forte.so.



  Forte
  ----------------------------------------------------------------------------
  A suite of quantum chemistry methods for strongly correlated electrons

    git branch: master - git commit: f15141bf

  Developed by:
    Francesco A. Evangelista, Chenyang Li, Kevin P. Hannon,
    Jeffrey B. Schriber, Tianyuan Zhang, Chenxi Cai
  ----------------------------------------------------------------------------

  Size of Determinant class: 32

  ==> MO Space Information <==

  Read options for space FROZEN_DOCC
  Read options for space RESTRICTED_DOCC
  Read options for space ACTIVE
 Removing orbital 0
 Removing orbital 1
 Removing orbital 2
  -------------------------------------------------
                       A1    A2    B1    B2   Sum
  -------------------------------------------------
    FROZEN_DOCC         3     0     0     0     3
    RESTRICTED_DOCC     0     0     1     1     2
    ACTIVE              2     0     0     0     2
    RESTRICTED_UOCC    13     3     7     7    30
    FROZEN_UOCC         0     0     0     0     0
    Total              18     3     8     8    37
  -------------------------------------------------

  ==> Integral Transformation <==

  Number of molecular orbitals:               37
  Number of correlated molecular orbitals:    34
  Number of frozen occupied orbitals:          3
  Number of frozen unoccupied orbitals:        0


  Overall Conventional Integrals timings

	Presorting SO-basis two-electron integrals.
	Sorting File: SO Ints (nn|nn) nbuckets = 1
	Transforming the one-electron integrals and constructing Fock matrices
	Starting first half-transformation.
	Sorting half-transformed integrals.
	First half integral transformation complete.
	Starting second half-transformation.
	Two-electron integral transformation complete.

  Integral transformation done. 0.10247000 s
  Reading the two-electron integrals from disk
  Size of two-electron integrals:   0.041891 GB
  Frozen-core energy            -96.836564420714 a.u.

  FrozenOneBody Operator takes  0.25494100 s
  Resorting integrals after freezing core.
  Conventional integrals take 0.80877000 s

                 ---------------------------------------------
                   Dynamically Weighted Multi-State DSRG-PT2
                                  Chenyang Li
                 ---------------------------------------------


  ==> DWMS-DSRG-PT2 Options <==

    DWMS ZETA            1.00e+02
    DWMS ALGORITHM      DWMS-AVG0

  ==> Implementation Note <==

  1. Perform SA-CASCI using user defined weights.
  2. Perform SA-DSRG-PT2/SA-CASCI using user defined weights.
  3. Loop over averaged states:
      3a Compute new density weights.
      3b Semicanonicalize orbitals.
      3c Form DSRG-PT2 transformed Hamiltonian.
      3d Perform CASCI on DSRG-PT2 Hamiltonian.
  4. Test orthogonality between CI vectors of step 3d.
  5. Collect and print excitation energies.

  - DWMS-0:
    - Skip step 2.
    - Use energies of step 1 for step 3a.
    - CI vectors are not orthogonal in step 4.
  - DWMS-1:
    - Use energies of step 1 for step 3a.
    - Use CI vectors of step 2 as initial guess for step 3d.
    - Project out previous CI vectors of step 3d for current step 3d.
  - DWMS-AVG0:
    - Use energies of step 2 for step 3a.
    - CI vectors are not orthogonal in step 4.
  - DWMS-AVG1:
    - Use energies of step 2 for step 3a.
    - Use CI vectors of step 2 as initial guess for step 3d.
    - Project out previous CI vectors of step 3d for current step 3d.

              ---------------------------------------------------
                Complete Active Space Configuration Interaction
                                  Chenyang Li
              ---------------------------------------------------


  ==> Input Summary <==

    No. a electrons in active      =     1
    No. b electrons in active      =     1
    multiplicity                   =     1
    spin ms (2 * Sz)               =     0

  ==> Orbital Spaces <==

    TOTAL MO                      [   18     3     8     8 ]
    FROZEN CORE                   [    3     0     0     0 ]
    FROZEN VIRTUAL                [    0     0     0     0 ]
    CORRELATED MO                 [   15     3     8     8 ]
    CORE                          [    0     0     1     1 ]
    ACTIVE                        [    2     0     0     0 ]
    VIRTUAL                       [   13     3     7     7 ]

  ==> State Averaging Summary <==

    Irrep.  Multi.  Nstates      Weights
    ------------------------------------
      A1       1        2    0.500 0.500
    ------------------------------------
    Total number of states: 2
    ------------------------------------

  Forming alpha and beta strings      ...  Done. Timing        0.000059 s
  Forming determinants                ...  Done. Timing        0.000017 s

  ==> Determinants Summary <==

    number of alpha active electrons    =     1
    number of beta active electrons     =     1
    root symmetry (zero based)          =     0
    number of determinants              =     4

  Diagonalizing Hamiltonian           ...
  Found 3 roots with 2S+1 = 1 *
  Found 1 roots with 2S+1 = 3  Done. Timing        0.000363 s

  * * * * * * * * * * * * * * * * *
  *  CI Vectors & Configurations  *
  * * * * * * * * * * * * * * * * *

  ==> Root No. 0 <==

    ba         -0.6998431885
    ab         -0.6998431885
    20         -0.1420971205

    Total Energy:   -106.772344531209896


  ==> Root No. 1 <==

    20         -0.9898526998
    ba          0.1004674493
    ab          0.1004674493

    Total Energy:   -106.733425589950883



  ==> Permanent Dipole Moments (A1) <==

  Only print nonzero (> 1.0e-5) elements.
  Permanent dipole moments (a.u.) 0 -> 0:  X:  0.0000  Y:  0.0000  Z: -0.1343  Total:  0.1343
  Permanent dipole moments (a.u.) 1 -> 1:  X:  0.0000  Y:  0.0000  Z: -9.8082  Total:  9.8082


  ==> Transition Dipole Moments (A1 -> A1) <==

  Only print nonzero (> 1.0e-5) elements.
  Transition dipole moments (a.u.) 0 -> 1:  X:  0.0000  Y:  0.0000  Z: -1.2681  Total:  1.2681


  ==> Oscillator Strength (A1 -> A1) <==

  Only print nonzero (> 1.0e-5) elements.
  Oscillator strength (a.u.) 0 -> 1:  X:  0.0000  Y:  0.0000  Z:  0.0417  Total:  0.0417

  Total Energy (averaged over 2 states): -106.752885060580383

  Computing 1-, 2- and 3-cumulants ... Done. Timing        0.012584 s


       -----------------------------------------------------------------
                            Semi-Canonical Orbitals
         Chenyang Li, Jeffrey B. Schriber and Francesco A. Evangelista
       -----------------------------------------------------------------

  Took 0.000845 s to build Fock matrix

  ==> Checking Fock Matrix Diagonal Blocks <==

    Off-Diag. Elements       Max           2-Norm
    ------------------------------------------------
    Fa actv              0.0000000000   0.0000000000
    Fb actv              0.0000000000   0.0000000000
    ------------------------------------------------
    Fa core              0.0000000000   0.0000000000
    Fb core              0.0000000000   0.0000000000
    ------------------------------------------------
    Fa virt              0.0000000000   0.0000000000
    Fb virt              0.0000000000   0.0000000000
    ------------------------------------------------
  Orbitals are already semicanonicalized.

  ==> Multireference Driven Similarity Renormalization Group <==

    Reading DSRG options ............................ Done
    Setting ambit MO space .......................... Done
    Preparing tensors for density cumulants ......... Done
    Building Fock matrix ............................ Done

              ----------------------------------------------------
                    MR-DSRG Second-Order Perturbation Theory
                Chenyang Li, Kevin Hannon, Francesco Evangelista
              ----------------------------------------------------

    References:
      u-DSRG-MRPT2:    J. Chem. Theory Comput. 2015, 11, 2097.
      (pr-)DSRG-MRPT2: J. Chem. Phys. 2017, 146, 124132.

  ==> Calculation Information <==

    ntamp                                                 15
    flow parameter                                 5.000e-01
    taylor expansion threshold                     1.000e-03
    intruder_tamp                                  1.000e-01
    int_type                                    CONVENTIONAL
    source operator                                 STANDARD
    reference relaxation                                NONE
    state_type                                   MULTI-STATE
    multi-state type                                 SA_FULL
    form Hbar3                                         FALSE

  ==> Checking Semicanonical Orbitals <==

    Abs. max of Fock core, active, virtual blocks (Fij, i != j)
                  core          active         virtual
    --------------------------------------------------
    Fα    0.0000000000    0.0000000000    0.0000000000
    Fβ    0.0000000000    0.0000000000    0.0000000000
    --------------------------------------------------

    1-Norm of Fock core, active, virtual blocks (Fij, i != j)
                  core          active         virtual
    --------------------------------------------------
    Fα    0.0000000000    0.0000000000    0.0000000003
    Fβ    0.0000000000    0.0000000000    0.0000000003
    --------------------------------------------------

    Orbitals are semi-canonicalized.

  ==> Computing DSRG-MRPT2 ... <==

    Computing T2 amplitudes                  ...  Done. Timing        0.011090 s
    Computing T1 amplitudes                  ...  Done. Timing        0.003401 s
    Renormalizing two-electron integrals     ...  Done. Timing        0.008825 s
    Renormalizing Fock matrix elements       ...  Done. Timing        0.003846 s
    Computing <[F, T1]>                      ...  Done. Timing        0.002555 s
    Computing <[F, T2]>                      ...  Done. Timing        0.007754 s
    Computing <[V, T1]>                      ...  Done. Timing        0.004864 s
    Computing <[V, T2]> (C_2)^4              ...  Done. Timing        0.029874 s
    Computing <[V, T2]> C_4 (C_2)^2 HH       ...  Done. Timing        0.005927 s
    Computing <[V, T2]> C_4 (C_2)^2 PP       ...  Done. Timing        0.005573 s
    Computing <[V, T2]> C_4 (C_2)^2 PH       ...  Done. Timing        0.022366 s
    Computing <[V, T2]> C_6 C_2              ...  Done. Timing        0.009757 s

  ==> Excitation Amplitudes Summary <==

    Active Indices:    0    1 
    Largest T1 amplitudes for spin case A:
       i       a                  i       a                  i       a               
    --------------------------------------------------------------------------------
    [  0      11    ] 0.006954 [  0       7    ] 0.002372 [  0       8    ] 0.002279 
    [  0       5    ]-0.001478 [  1       4    ] 0.001042 [  1      11    ] 0.000939 
    [  1       5    ] 0.000753 [  1       3    ]-0.000655 [  1       2    ]-0.000621 
    [  0       9    ]-0.000374 [  1       7    ] 0.000355 [  1       8    ]-0.000335 
    [  0       4    ] 0.000217 [  0       2    ] 0.000209 [  0       3    ]-0.000178 
    --------------------------------------------------------------------------------
    Norm of T1A vector: (nonzero elements: 34)                    0.008077630367091.
    --------------------------------------------------------------------------------
    Largest T1 amplitudes for spin case B:
       _       _                  _       _                  _       _               
       i       a                  i       a                  i       a               
    --------------------------------------------------------------------------------
    [  0      11    ] 0.006954 [  0       7    ] 0.002372 [  0       8    ] 0.002279 
    [  0       5    ]-0.001478 [  1       4    ] 0.001042 [  1      11    ] 0.000939 
    [  1       5    ] 0.000753 [  1       3    ]-0.000655 [  1       2    ]-0.000621 
    [  0       9    ]-0.000374 [  1       7    ] 0.000355 [  1       8    ]-0.000335 
    [  0       4    ] 0.000217 [  0       2    ] 0.000209 [  0       3    ]-0.000178 
    --------------------------------------------------------------------------------
    Norm of T1B vector: (nonzero elements: 34)                    0.008077630367091.
    --------------------------------------------------------------------------------
    Largest T2 amplitudes for spin case AA:
       i   j   a   b              i   j   a   b              i   j   a   b           
    --------------------------------------------------------------------------------
    [  0  26   0  32] 0.069328 [  0  18   0  24] 0.069328 [  0  26   0  30]-0.035634 
    [  0  18   0  22]-0.035634 [  0  26  11  32]-0.024203 [  0  18  11  24]-0.024203 
    [ 18  26  24  32]-0.023606 [ 18  26  10  16] 0.015446 [  0  26  11  30] 0.014561 
    [  0  18  11  22] 0.014561 [  0  26   9  31] 0.014216 [  0  18   9  23] 0.014216 
    [ 18  26  24  30] 0.014096 [ 18  26  22  32] 0.014096 [  0  26   8  32]-0.010861 
    --------------------------------------------------------------------------------
    Norm of T2AA vector: (nonzero elements: 2704)                 0.267224026227808.
    --------------------------------------------------------------------------------
    Largest T2 amplitudes for spin case AB:
           _       _                  _       _                  _       _           
       i   j   a   b              i   j   a   b              i   j   a   b           
    --------------------------------------------------------------------------------
    [  0   0   0  11] 0.083614 [  0  26   0  32] 0.073352 [  0  18   0  24] 0.073352 
    [  0  26   0  30]-0.038411 [  0  18   0  22]-0.038411 [  0   0  11  11]-0.037674 
    [ 26  26  32  32]-0.035644 [ 18  18  24  24]-0.035644 [  0   0   0   8] 0.029339 
    [  0  26  11  32]-0.028341 [  0  18  11  24]-0.028341 [ 18  26  24  32]-0.027619 
    [  0   0   0   7] 0.026490 [  0   0   9   9]-0.019678 [ 26  26  30  32] 0.019072 
    --------------------------------------------------------------------------------
    Norm of T2AB vector: (nonzero elements: 4082)                 0.269706435716006.
    --------------------------------------------------------------------------------
    Largest T2 amplitudes for spin case BB:
       _   _   _   _              _   _   _   _              _   _   _   _           
       i   j   a   b              i   j   a   b              i   j   a   b           
    --------------------------------------------------------------------------------
    [  0  26   0  32] 0.069328 [  0  18   0  24] 0.069328 [  0  26   0  30]-0.035634 
    [  0  18   0  22]-0.035634 [  0  26  11  32]-0.024203 [  0  18  11  24]-0.024203 
    [ 18  26  24  32]-0.023606 [ 18  26  10  16] 0.015446 [  0  26  11  30] 0.014561 
    [  0  18  11  22] 0.014561 [  0  26   9  31] 0.014216 [  0  18   9  23] 0.014216 
    [ 18  26  24  30] 0.014096 [ 18  26  22  32] 0.014096 [  0  26   8  32]-0.010861 
    --------------------------------------------------------------------------------
    Norm of T2BB vector: (nonzero elements: 2704)                 0.267224026227807.
    --------------------------------------------------------------------------------

  ==> Possible Intruders <==

    T1 amplitudes larger than 0.1000 for spin case A: NULL
    T1 amplitudes larger than 0.1000 for spin case B: NULL
    T2 amplitudes larger than 0.1000 for spin case AA: NULL
    T2 amplitudes larger than 0.1000 for spin case AB: NULL
    T2 amplitudes larger than 0.1000 for spin case BB: NULL

  ==> DSRG-MRPT2 Energy Summary <==

    E0 (reference)                 =   -106.752885060580383
    <[F, T1]>                      =     -0.000336532999239
    <[F, T2]>                      =      0.000336834894894
    <[V, T1]>                      =      0.000336646102189
    <[V, T2]> (C_2)^4              =     -0.179945371767916
    <[V, T2]> C_4 (C_2)^2 HH       =      0.000069406823577
    <[V, T2]> C_4 (C_2)^2 PP       =      0.002544130250446
    <[V, T2]> C_4 (C_2)^2 PH       =      0.007607453142035
    <[V, T2]> C_6 C_2              =     -0.000021683986384
    <[V, T2]>                      =     -0.169746065538242
    DSRG-MRPT2 correlation energy  =     -0.169409117540398
    DSRG-MRPT2 total energy        =   -106.922294178120779
    max(T1)                        =      0.006954241156149
    max(T2)                        =      0.083613966607492
    ||T1||                         =      0.011423494416977
    ||T2||                         =      0.658622506640433

  Energy took      0.132 s


  ==> De-Normal-Order DSRG Transformed Hamiltonian <==

    Computing the scalar term                ... Done. Timing    0.002 s
    Computing the 1-body term                ... Done. Timing    0.001 s

  ==> Rotate DSRG Transformed Hamiltonian back to Original Basis <==

    Rotating 1-body term to original basis   ... Done. Timing    0.001 s
    Rotating 2-body term to original basis   ... Done. Timing    0.020 s
  Forming alpha and beta strings      ...  Done. Timing        0.000050 s
  Forming determinants                ...  Done. Timing        0.000011 s

  ==> Determinants Summary <==

    number of alpha active electrons    =     1
    number of beta active electrons     =     1
    root symmetry (zero based)          =     0
    number of determinants              =     4

  Diagonalizing Hamiltonian           ...
  Found 3 roots with 2S+1 = 1 *
  Found 1 roots with 2S+1 = 3  Done. Timing        0.000310 s

  * * * * * * * * * * * * * * * * *
  *  CI Vectors & Configurations  *
  * * * * * * * * * * * * * * * * *

  ==> Root No. 0 <==

    20          0.9596453115
    ba          0.1988214050
    ab          0.1988214050

    Total Energy:   -106.929958810897745


  ==> Root No. 1 <==

    ba         -0.6784899196
    ab         -0.6784899196
    20          0.2812131471

    Total Energy:   -106.914629599209121



  ==> Permanent Dipole Moments (A1) <==

  Only print nonzero (> 1.0e-5) elements.
  Permanent dipole moments (a.u.) 0 -> 0:  X:  0.0000  Y:  0.0000  Z: -9.1014  Total:  9.1014
  Permanent dipole moments (a.u.) 1 -> 1:  X:  0.0000  Y:  0.0000  Z: -0.8411  Total:  0.8411


  ==> Transition Dipole Moments (A1 -> A1) <==

  Only print nonzero (> 1.0e-5) elements.
  Transition dipole moments (a.u.) 0 -> 1:  X:  0.0000  Y:  0.0000  Z: -2.8188  Total:  2.8188


  ==> Oscillator Strength (A1 -> A1) <==

  Only print nonzero (> 1.0e-5) elements.
  Oscillator strength (a.u.) 0 -> 1:  X:  0.0000  Y:  0.0000  Z:  0.0812  Total:  0.0812

  Total Energy (averaged over 2 states): -106.922294205053433


  ==> Total Timings (s) for Computing Commutators <==

             [H1, T1]    [H1, T2]    [H2, T1]    [H2, T2]
    -----------------------------------------------------
    -> C0       0.003       0.008       0.005       0.074
    -> C1       0.001       0.011       0.008       0.150
    -> C2                   0.009       0.009       0.067
    -----------------------------------------------------


  ===============================
  Current Job: Singlet A1, root 0
  ===============================

  Computing 1-, 2- and 3-cumulants ... 

  ==> New State-Averaging Weights <==

    Irrep.  Multi.  Nroots       Weights
    ------------------------------------
      A1       1       2     0.506 0.494
    ------------------------------------Done. Timing        0.014742 s


       -----------------------------------------------------------------
                            Semi-Canonical Orbitals
         Chenyang Li, Jeffrey B. Schriber and Francesco A. Evangelista
       -----------------------------------------------------------------

  Took 0.000927 s to build Fock matrix

  ==> Checking Fock Matrix Diagonal Blocks <==

    Off-Diag. Elements       Max           2-Norm
    ------------------------------------------------
    Fa actv              0.0002720847   0.0003847859
    Fb actv              0.0002720847   0.0003847859
    ------------------------------------------------
    Fa core              0.0000000000   0.0000000000
    Fb core              0.0000000000   0.0000000000
    ------------------------------------------------
    Fa virt              0.0005754034   0.0024445544
    Fb virt              0.0005754034   0.0024445544
    ------------------------------------------------

  ==> Integral Transformation to Semicanonical Basis <==

 Integrals are about to be computed.	Presorting SO-basis two-electron integrals.
	Sorting File: SO Ints (nn|nn) nbuckets = 1
	Transforming the one-electron integrals and constructing Fock matrices
	Starting first half-transformation.
	Sorting half-transformed integrals.
	First half integral transformation complete.
	Starting second half-transformation.
	Two-electron integral transformation complete.

  Integral transformation done. 0.08222600 s
  Reading the two-electron integrals from disk
  Size of two-electron integrals:   0.041891 GB
 Integrals are about to be updated.
  Frozen-core energy            -96.836564420714 a.u.

  FrozenOneBody Operator takes  0.26071100 s
  Resorting integrals after freezing core.
  Frozen Orbitals takes     0.335 s.

  ==> Reference Transformation to Semicanonical Basis <==

    Transformed 1 cumulants.
    Transformed 2 cumulants and RDMs.
    Transformed 3 cumulants.
  SemiCanonicalize takes 2.917742 s.

  ==> Multireference Driven Similarity Renormalization Group <==

    Reading DSRG options ............................ Done
    Setting ambit MO space .......................... Done
    Preparing tensors for density cumulants ......... Done
    Building Fock matrix ............................ Done

              ----------------------------------------------------
                    MR-DSRG Second-Order Perturbation Theory
                Chenyang Li, Kevin Hannon, Francesco Evangelista
              ----------------------------------------------------

    References:
      u-DSRG-MRPT2:    J. Chem. Theory Comput. 2015, 11, 2097.
      (pr-)DSRG-MRPT2: J. Chem. Phys. 2017, 146, 124132.

  ==> Calculation Information <==

    ntamp                                                 15
    flow parameter                                 5.000e-01
    taylor expansion threshold                     1.000e-03
    intruder_tamp                                  1.000e-01
    int_type                                    CONVENTIONAL
    source operator                                 STANDARD
    reference relaxation                                NONE
    state_type                                   MULTI-STATE
    multi-state type                                 SA_FULL
    form Hbar3                                         FALSE

  ==> Checking Semicanonical Orbitals <==

    Abs. max of Fock core, active, virtual blocks (Fij, i != j)
                  core          active         virtual
    --------------------------------------------------
    Fα    0.0000000000    0.0000000000    0.0000000000
    Fβ    0.0000000000    0.0000000000    0.0000000000
    --------------------------------------------------

    1-Norm of Fock core, active, virtual blocks (Fij, i != j)
                  core          active         virtual
    --------------------------------------------------
    Fα    0.0000000000    0.0000000000    0.0000000000
    Fβ    0.0000000000    0.0000000000    0.0000000000
    --------------------------------------------------

    Orbitals are semi-canonicalized.

  ==> Computing DSRG-MRPT2 ... <==

    Computing T2 amplitudes                  ...  Done. Timing        0.012301 s
    Computing T1 amplitudes                  ...  Done. Timing        0.004558 s
    Renormalizing two-electron integrals     ...  Done. Timing        0.009896 s
    Renormalizing Fock matrix elements       ...  Done. Timing        0.003638 s
    Computing <[F, T1]>                      ...  Done. Timing        0.002580 s
    Computing <[F, T2]>                      ...  Done. Timing        0.004464 s
    Computing <[V, T1]>                      ...  Done. Timing        0.004429 s
    Computing <[V, T2]> (C_2)^4              ...  Done. Timing        0.030147 s
    Computing <[V, T2]> C_4 (C_2)^2 HH       ...  Done. Timing        0.006176 s
    Computing <[V, T2]> C_4 (C_2)^2 PP       ...  Done. Timing        0.007055 s
    Computing <[V, T2]> C_4 (C_2)^2 PH       ...  Done. Timing        0.026686 s
    Computing <[V, T2]> C_6 C_2              ...  Done. Timing        0.012266 s

  ==> Excitation Amplitudes Summary <==

    Active Indices:    0    1 
    Largest T1 amplitudes for spin case A:
       i       a                  i       a                  i       a               
    --------------------------------------------------------------------------------
    [  0      11    ] 0.007154 [  0       7    ]-0.002444 [  0       8    ]-0.002350 
    [  0       5    ] 0.001507 [  1       4    ] 0.001034 [  1      11    ] 0.000927 
    [  1       5    ]-0.000762 [  1       3    ]-0.000642 [  1       2    ] 0.000625 
    [  0       9    ] 0.000356 [  1       7    ]-0.000347 [  1       8    ] 0.000346 
    [ 18      24    ]-0.000340 [ 26      32    ]-0.000340 [  0       4    ] 0.000227 
    --------------------------------------------------------------------------------
    Norm of T1A vector: (nonzero elements: 34)                    0.008312243879983.
    --------------------------------------------------------------------------------
    Largest T1 amplitudes for spin case B:
       _       _                  _       _                  _       _               
       i       a                  i       a                  i       a               
    --------------------------------------------------------------------------------
    [  0      11    ] 0.007154 [  0       7    ]-0.002444 [  0       8    ]-0.002350 
    [  0       5    ] 0.001507 [  1       4    ] 0.001034 [  1      11    ] 0.000927 
    [  1       5    ]-0.000762 [  1       3    ]-0.000642 [  1       2    ] 0.000625 
    [  0       9    ] 0.000356 [  1       7    ]-0.000347 [  1       8    ] 0.000346 
    [ 18      24    ]-0.000340 [ 26      32    ]-0.000340 [  0       4    ] 0.000227 
    --------------------------------------------------------------------------------
    Norm of T1B vector: (nonzero elements: 34)                    0.008312243879983.
    --------------------------------------------------------------------------------
    Largest T2 amplitudes for spin case AA:
       i   j   a   b              i   j   a   b              i   j   a   b           
    --------------------------------------------------------------------------------
    [  0  26   0  32]-0.069349 [  0  18   0  24]-0.069349 [  0  18   0  22] 0.035667 
    [  0  26   0  30] 0.035667 [  0  26  11  32] 0.024206 [  0  18  11  24] 0.024206 
    [ 18  26  24  32]-0.023618 [ 18  26  10  16]-0.015451 [  0  26  11  30]-0.014607 
    [  0  18  11  22]-0.014607 [  0  26   9  31] 0.014215 [  0  18   9  23] 0.014215 
    [ 18  26  24  30] 0.014146 [ 18  26  22  32] 0.014146 [  0  26   8  32]-0.010852 
    --------------------------------------------------------------------------------
    Norm of T2AA vector: (nonzero elements: 2704)                 0.267173468134175.
    --------------------------------------------------------------------------------
    Largest T2 amplitudes for spin case AB:
           _       _                  _       _                  _       _           
       i   j   a   b              i   j   a   b              i   j   a   b           
    --------------------------------------------------------------------------------
    [  0   0   0  11] 0.083607 [  0  26   0  32]-0.073373 [  0  18   0  24]-0.073373 
    [  0  18   0  22] 0.038447 [  0  26   0  30] 0.038447 [  0   0  11  11]-0.037663 
    [ 26  26  32  32]-0.035661 [ 18  18  24  24]-0.035661 [  0   0   0   8]-0.029277 
    [  0  26  11  32] 0.028345 [  0  18  11  24] 0.028345 [ 18  26  24  32]-0.027632 
    [  0   0   0   7]-0.026661 [  0   0   9   9]-0.019668 [ 26  26  30  32] 0.019139 
    --------------------------------------------------------------------------------
    Norm of T2AB vector: (nonzero elements: 4082)                 0.269649578383065.
    --------------------------------------------------------------------------------
    Largest T2 amplitudes for spin case BB:
       _   _   _   _              _   _   _   _              _   _   _   _           
       i   j   a   b              i   j   a   b              i   j   a   b           
    --------------------------------------------------------------------------------
    [  0  26   0  32]-0.069349 [  0  18   0  24]-0.069349 [  0  18   0  22] 0.035667 
    [  0  26   0  30] 0.035667 [  0  26  11  32] 0.024206 [  0  18  11  24] 0.024206 
    [ 18  26  24  32]-0.023618 [ 18  26  10  16]-0.015451 [  0  26  11  30]-0.014607 
    [  0  18  11  22]-0.014607 [  0  26   9  31] 0.014215 [  0  18   9  23] 0.014215 
    [ 18  26  24  30] 0.014146 [ 18  26  22  32] 0.014146 [  0  26   8  32]-0.010852 
    --------------------------------------------------------------------------------
    Norm of T2BB vector: (nonzero elements: 2704)                 0.267173468134175.
    --------------------------------------------------------------------------------

  ==> Possible Intruders <==

    T1 amplitudes larger than 0.1000 for spin case A: NULL
    T1 amplitudes larger than 0.1000 for spin case B: NULL
    T2 amplitudes larger than 0.1000 for spin case AA: NULL
    T2 amplitudes larger than 0.1000 for spin case AB: NULL
    T2 amplitudes larger than 0.1000 for spin case BB: NULL

  ==> DSRG-MRPT2 Energy Summary <==

    E0 (reference)                 =   -106.752975136636593
    <[F, T1]>                      =     -0.000357384491611
    <[F, T2]>                      =      0.000339194921882
    <[V, T1]>                      =      0.000338968627693
    <[V, T2]> (C_2)^4              =     -0.179943048942505
    <[V, T2]> C_4 (C_2)^2 HH       =      0.000067525631810
    <[V, T2]> C_4 (C_2)^2 PP       =      0.002485952966105
    <[V, T2]> C_4 (C_2)^2 PH       =      0.007451390578587
    <[V, T2]> C_6 C_2              =     -0.000022246556026
    <[V, T2]>                      =     -0.169960426322029
    DSRG-MRPT2 correlation energy  =     -0.169639647264066
    DSRG-MRPT2 total energy        =   -106.922614783900656
    max(T1)                        =      0.007154237512342
    max(T2)                        =      0.083607161751255
    ||T1||                         =      0.011755288028824
    ||T2||                         =      0.658488348141670

  Energy took      0.143 s


  ==> De-Normal-Order DSRG Transformed Hamiltonian <==

    Computing the scalar term                ... Done. Timing    0.002 s
    Computing the 1-body term                ... Done. Timing    0.001 s

  ==> Rotate DSRG Transformed Hamiltonian back to Original Basis <==

    Rotating 1-body term to original basis   ... Done. Timing    0.001 s
    Rotating 2-body term to original basis   ... Done. Timing    0.020 s
  Forming alpha and beta strings      ...  Done. Timing        0.000041 s
  Forming determinants                ...  Done. Timing        0.000010 s

  ==> Determinants Summary <==

    number of alpha active electrons    =     1
    number of beta active electrons     =     1
    root symmetry (zero based)          =     0
    number of determinants              =     4

  Diagonalizing Hamiltonian           ...
  Found 3 roots with 2S+1 = 1 *
  Found 1 roots with 2S+1 = 3  Done. Timing        0.000290 s

  * * * * * * * * * * * * * * * * *
  *  CI Vectors & Configurations  *
  * * * * * * * * * * * * * * * * *

  ==> Root No. 0 <==

    20          0.9596242263
    ba          0.1988722527
    ab          0.1988722527

    Total Energy:   -106.930185429066370


  ==> Root No. 1 <==

    ba         -0.6784750422
    ab         -0.6784750422
    20          0.2812850893

    Total Energy:   -106.914864133500942



  ==> Permanent Dipole Moments (A1) <==

  Only print nonzero (> 1.0e-5) elements.
  Permanent dipole moments (a.u.) 0 -> 0:  X:  0.0000  Y:  0.0000  Z: -9.0915  Total:  9.0915
  Permanent dipole moments (a.u.) 1 -> 1:  X:  0.0000  Y:  0.0000  Z: -0.8510  Total:  0.8510


  ==> Transition Dipole Moments (A1 -> A1) <==

  Only print nonzero (> 1.0e-5) elements.
  Transition dipole moments (a.u.) 0 -> 1:  X:  0.0000  Y:  0.0000  Z: -2.8333  Total:  2.8333


  ==> Oscillator Strength (A1 -> A1) <==

  Only print nonzero (> 1.0e-5) elements.
  Oscillator strength (a.u.) 0 -> 1:  X:  0.0000  Y:  0.0000  Z:  0.0820  Total:  0.0820


  ==> Back Transformation of Semicanonical Integrals <==

 Integrals are about to be computed.	Presorting SO-basis two-electron integrals.
	Sorting File: SO Ints (nn|nn) nbuckets = 1
	Transforming the one-electron integrals and constructing Fock matrices
	Starting first half-transformation.
	Sorting half-transformed integrals.
	First half integral transformation complete.
	Starting second half-transformation.
	Two-electron integral transformation complete.

  Integral transformation done. 0.09178000 s
  Reading the two-electron integrals from disk
  Size of two-electron integrals:   0.041891 GB
 Integrals are about to be updated.
  Frozen-core energy            -96.836564420714 a.u.

  FrozenOneBody Operator takes  0.27598300 s
  Resorting integrals after freezing core.
  Frozen Orbitals takes     0.354 s.

  ==> Total Timings (s) for Computing Commutators <==

             [H1, T1]    [H1, T2]    [H2, T1]    [H2, T2]
    -----------------------------------------------------
    -> C0       0.003       0.004       0.004       0.083
    -> C1       0.001       0.012       0.007       0.156
    -> C2                   0.009       0.009       0.067
    -----------------------------------------------------


  ===============================
  Current Job: Singlet A1, root 1
  ===============================

  Computing 1-, 2- and 3-cumulants ... 

  ==> New State-Averaging Weights <==

    Irrep.  Multi.  Nroots       Weights
    ------------------------------------
      A1       1       2     0.494 0.506
    ------------------------------------Done. Timing        0.013409 s


       -----------------------------------------------------------------
                            Semi-Canonical Orbitals
         Chenyang Li, Jeffrey B. Schriber and Francesco A. Evangelista
       -----------------------------------------------------------------

  Took 0.000855 s to build Fock matrix

  ==> Checking Fock Matrix Diagonal Blocks <==

    Off-Diag. Elements       Max           2-Norm
    ------------------------------------------------
    Fa actv              0.0002525789   0.0003572005
    Fb actv              0.0002525789   0.0003572005
    ------------------------------------------------
    Fa core              0.0000000000   0.0000000000
    Fb core              0.0000000000   0.0000000000
    ------------------------------------------------
    Fa virt              0.0005753170   0.0024462803
    Fb virt              0.0005753170   0.0024462803
    ------------------------------------------------

  ==> Integral Transformation to Semicanonical Basis <==

 Integrals are about to be computed.	Presorting SO-basis two-electron integrals.
	Sorting File: SO Ints (nn|nn) nbuckets = 1
	Transforming the one-electron integrals and constructing Fock matrices
	Starting first half-transformation.
	Sorting half-transformed integrals.
	First half integral transformation complete.
	Starting second half-transformation.
	Two-electron integral transformation complete.

  Integral transformation done. 0.09123700 s
  Reading the two-electron integrals from disk
  Size of two-electron integrals:   0.041891 GB
 Integrals are about to be updated.
  Frozen-core energy            -96.836564420714 a.u.

  FrozenOneBody Operator takes  0.27562400 s
  Resorting integrals after freezing core.
  Frozen Orbitals takes     0.359 s.

  ==> Reference Transformation to Semicanonical Basis <==

    Transformed 1 cumulants.
    Transformed 2 cumulants and RDMs.
    Transformed 3 cumulants.
  SemiCanonicalize takes 2.960753 s.

  ==> Multireference Driven Similarity Renormalization Group <==

    Reading DSRG options ............................ Done
    Setting ambit MO space .......................... Done
    Preparing tensors for density cumulants ......... Done
    Building Fock matrix ............................ Done

              ----------------------------------------------------
                    MR-DSRG Second-Order Perturbation Theory
                Chenyang Li, Kevin Hannon, Francesco Evangelista
              ----------------------------------------------------

    References:
      u-DSRG-MRPT2:    J. Chem. Theory Comput. 2015, 11, 2097.
      (pr-)DSRG-MRPT2: J. Chem. Phys. 2017, 146, 124132.

  ==> Calculation Information <==

    ntamp                                                 15
    flow parameter                                 5.000e-01
    taylor expansion threshold                     1.000e-03
    intruder_tamp                                  1.000e-01
    int_type                                    CONVENTIONAL
    source operator                                 STANDARD
    reference relaxation                                NONE
    state_type                                   MULTI-STATE
    multi-state type                                 SA_FULL
    form Hbar3                                         FALSE

  ==> Checking Semicanonical Orbitals <==

    Abs. max of Fock core, active, virtual blocks (Fij, i != j)
                  core          active         virtual
    --------------------------------------------------
    Fα    0.0000000000    0.0000000000    0.0000000000
    Fβ    0.0000000000    0.0000000000    0.0000000000
    --------------------------------------------------

    1-Norm of Fock core, active, virtual blocks (Fij, i != j)
                  core          active         virtual
    --------------------------------------------------
    Fα    0.0000000000    0.0000000000    0.0000000000
    Fβ    0.0000000000    0.0000000000    0.0000000000
    --------------------------------------------------

    Orbitals are semi-canonicalized.

  ==> Computing DSRG-MRPT2 ... <==

    Computing T2 amplitudes                  ...  Done. Timing        0.013645 s
    Computing T1 amplitudes                  ...  Done. Timing        0.003725 s
    Renormalizing two-electron integrals     ...  Done. Timing        0.012146 s
    Renormalizing Fock matrix elements       ...  Done. Timing        0.003974 s
    Computing <[F, T1]>                      ...  Done. Timing        0.002343 s
    Computing <[F, T2]>                      ...  Done. Timing        0.006008 s
    Computing <[V, T1]>                      ...  Done. Timing        0.003684 s
    Computing <[V, T2]> (C_2)^4              ...  Done. Timing        0.030682 s
    Computing <[V, T2]> C_4 (C_2)^2 HH       ...  Done. Timing        0.005651 s
    Computing <[V, T2]> C_4 (C_2)^2 PP       ...  Done. Timing        0.008547 s
    Computing <[V, T2]> C_4 (C_2)^2 PH       ...  Done. Timing        0.027020 s
    Computing <[V, T2]> C_6 C_2              ...  Done. Timing        0.012417 s

  ==> Excitation Amplitudes Summary <==

    Active Indices:    0    1 
    Largest T1 amplitudes for spin case A:
       i       a                  i       a                  i       a               
    --------------------------------------------------------------------------------
    [  0      11    ]-0.006754 [  0       7    ] 0.002301 [  0       8    ]-0.002207 
    [  0       5    ]-0.001449 [  1       4    ] 0.001050 [  1      11    ]-0.000950 
    [  1       5    ] 0.000743 [  1       3    ]-0.000668 [  1       2    ] 0.000617 
    [  0       9    ] 0.000393 [  1       7    ] 0.000362 [ 26      32    ] 0.000340 
    [ 18      24    ] 0.000340 [  1       8    ] 0.000323 [  0       4    ] 0.000208 
    --------------------------------------------------------------------------------
    Norm of T1A vector: (nonzero elements: 34)                    0.007880314605770.
    --------------------------------------------------------------------------------
    Largest T1 amplitudes for spin case B:
       _       _                  _       _                  _       _               
       i       a                  i       a                  i       a               
    --------------------------------------------------------------------------------
    [  0      11    ]-0.006754 [  0       7    ] 0.002301 [  0       8    ]-0.002207 
    [  0       5    ]-0.001449 [  1       4    ] 0.001050 [  1      11    ]-0.000950 
    [  1       5    ] 0.000743 [  1       3    ]-0.000668 [  1       2    ] 0.000617 
    [  0       9    ] 0.000393 [  1       7    ] 0.000362 [ 26      32    ] 0.000340 
    [ 18      24    ] 0.000340 [  1       8    ] 0.000323 [  0       4    ] 0.000208 
    --------------------------------------------------------------------------------
    Norm of T1B vector: (nonzero elements: 34)                    0.007880314605770.
    --------------------------------------------------------------------------------
    Largest T2 amplitudes for spin case AA:
       i   j   a   b              i   j   a   b              i   j   a   b           
    --------------------------------------------------------------------------------
    [  0  26   0  32]-0.069308 [  0  18   0  24]-0.069308 [  0  18   0  22] 0.035587 
    [  0  26   0  30] 0.035587 [  0  26  11  32]-0.024199 [  0  18  11  24]-0.024199 
    [ 18  26  24  32]-0.023594 [ 18  26  10  16]-0.015441 [  0  26  11  30] 0.014510 
    [  0  18  11  22] 0.014510 [  0  26   9  31] 0.014218 [  0  18   9  23] 0.014218 
    [ 18  26  22  32] 0.014039 [ 18  26  24  30] 0.014039 [  0  26   8  32]-0.010868 
    --------------------------------------------------------------------------------
    Norm of T2AA vector: (nonzero elements: 2704)                 0.267274633837815.
    --------------------------------------------------------------------------------
    Largest T2 amplitudes for spin case AB:
           _       _                  _       _                  _       _           
       i   j   a   b              i   j   a   b              i   j   a   b           
    --------------------------------------------------------------------------------
    [  0   0   0  11]-0.083620 [  0  26   0  32]-0.073329 [  0  18   0  24]-0.073329 
    [  0  18   0  22] 0.038360 [  0  26   0  30] 0.038360 [  0   0  11  11]-0.037684 
    [ 26  26  32  32]-0.035627 [ 18  18  24  24]-0.035627 [  0   0   0   8]-0.029397 
    [  0  26  11  32]-0.028337 [  0  18  11  24]-0.028337 [ 18  26  24  32]-0.027605 
    [  0   0   0   7] 0.026315 [  0   0   9   9]-0.019688 [ 26  26  30  32] 0.018998 
    --------------------------------------------------------------------------------
    Norm of T2AB vector: (nonzero elements: 4082)                 0.269763305757917.
    --------------------------------------------------------------------------------
    Largest T2 amplitudes for spin case BB:
       _   _   _   _              _   _   _   _              _   _   _   _           
       i   j   a   b              i   j   a   b              i   j   a   b           
    --------------------------------------------------------------------------------
    [  0  26   0  32]-0.069308 [  0  18   0  24]-0.069308 [  0  18   0  22] 0.035587 
    [  0  26   0  30] 0.035587 [  0  26  11  32]-0.024199 [  0  18  11  24]-0.024199 
    [ 18  26  24  32]-0.023594 [ 18  26  10  16]-0.015441 [  0  26  11  30] 0.014510 
    [  0  18  11  22] 0.014510 [  0  26   9  31] 0.014218 [  0  18   9  23] 0.014218 
    [ 18  26  22  32] 0.014039 [ 18  26  24  30] 0.014039 [  0  26   8  32]-0.010868 
    --------------------------------------------------------------------------------
    Norm of T2BB vector: (nonzero elements: 2704)                 0.267274633837815.
    --------------------------------------------------------------------------------

  ==> Possible Intruders <==

    T1 amplitudes larger than 0.1000 for spin case A: NULL
    T1 amplitudes larger than 0.1000 for spin case B: NULL
    T2 amplitudes larger than 0.1000 for spin case AA: NULL
    T2 amplitudes larger than 0.1000 for spin case AB: NULL
    T2 amplitudes larger than 0.1000 for spin case BB: NULL

  ==> DSRG-MRPT2 Energy Summary <==

    E0 (reference)                 =   -106.752795038389479
    <[F, T1]>                      =     -0.000320123225093
    <[F, T2]>                      =      0.000334200178688
    <[V, T1]>                      =      0.000334054820081
    <[V, T2]> (C_2)^4              =     -0.179945094781255
    <[V, T2]> C_4 (C_2)^2 HH       =      0.000071314874274
    <[V, T2]> C_4 (C_2)^2 PP       =      0.002602994542878
    <[V, T2]> C_4 (C_2)^2 PH       =      0.007765277326465
    <[V, T2]> C_6 C_2              =     -0.000021082291282
    <[V, T2]>                      =     -0.169526590328920
    DSRG-MRPT2 correlation energy  =     -0.169178458555244
    DSRG-MRPT2 total energy        =   -106.921973496944716
    max(T1)                        =      0.006753980877414
    max(T2)                        =      0.083619862078775
    ||T1||                         =      0.011144447791247
    ||T2||                         =      0.658756726204775

  Energy took      0.149 s


  ==> De-Normal-Order DSRG Transformed Hamiltonian <==

    Computing the scalar term                ... Done. Timing    0.005 s
    Computing the 1-body term                ... Done. Timing    0.001 s

  ==> Rotate DSRG Transformed Hamiltonian back to Original Basis <==

    Rotating 1-body term to original basis   ... Done. Timing    0.001 s
    Rotating 2-body term to original basis   ... Done. Timing    0.021 s
  Forming alpha and beta strings      ...  Done. Timing        0.000062 s
  Forming determinants                ...  Done. Timing        0.000020 s

  ==> Determinants Summary <==

    number of alpha active electrons    =     1
    number of beta active electrons     =     1
    root symmetry (zero based)          =     0
    number of determinants              =     4

  Diagonalizing Hamiltonian           ...
  Found 3 roots with 2S+1 = 1 *
  Found 1 roots with 2S+1 = 3  Done. Timing        0.000324 s

  * * * * * * * * * * * * * * * * *
  *  CI Vectors & Configurations  *
  * * * * * * * * * * * * * * * * *

  ==> Root No. 0 <==

    20          0.9596717616
    ba          0.1987575928
    ab          0.1987575928

    Total Energy:   -106.929732157445315


  ==> Root No. 1 <==

    ba         -0.6785085888
    ab         -0.6785085888
    20          0.2811228715

    Total Energy:   -106.914395027721667



  ==> Permanent Dipole Moments (A1) <==

  Only print nonzero (> 1.0e-5) elements.
  Permanent dipole moments (a.u.) 0 -> 0:  X:  0.0000  Y:  0.0000  Z: -9.1106  Total:  9.1106
  Permanent dipole moments (a.u.) 1 -> 1:  X:  0.0000  Y:  0.0000  Z: -0.8319  Total:  0.8319


  ==> Transition Dipole Moments (A1 -> A1) <==

  Only print nonzero (> 1.0e-5) elements.
  Transition dipole moments (a.u.) 0 -> 1:  X:  0.0000  Y:  0.0000  Z: -2.8053  Total:  2.8053


  ==> Oscillator Strength (A1 -> A1) <==

  Only print nonzero (> 1.0e-5) elements.
  Oscillator strength (a.u.) 0 -> 1:  X:  0.0000  Y:  0.0000  Z:  0.0805  Total:  0.0805


  ==> Total Timings (s) for Computing Commutators <==

             [H1, T1]    [H1, T2]    [H2, T1]    [H2, T2]
    -----------------------------------------------------
    -> C0       0.002       0.006       0.004       0.085
    -> C1       0.001       0.012       0.007       0.173
    -> C2                   0.008       0.009       0.062
    -----------------------------------------------------


  ==> Overlap of Singlet A1 <==

  ## S (Symmetry 0) ##
  Irrep: 1 Size: 2 x 2

                 1                   2

    1     1.00000000000000    -0.00016904008850
    2    -0.00016904008850     1.00000000000000



  ==> Dynamically Weighted Multi-State DSRG-PT2 Energy Summary <==

    Multi.  Irrep.  No.         SA-CASCI Energy
    -------------------------------------------
       1      A1     0      -106.77234453120990
       1      A1     1      -106.73342558995088
    -------------------------------------------

    Multi.  Irrep.  No.      SA-DSRG-PT2 Energy
    -------------------------------------------
       1      A1     0      -106.92995881089774
       1      A1     1      -106.91462959920912
    -------------------------------------------

    Multi.  Irrep.  No.        MK Vacuum Energy
    -------------------------------------------
       1      A1     0      -106.75297513663659
       1      A1     1      -106.75279503838948
    -------------------------------------------

    Multi.  Irrep.  No.     DWMS-DSRGPT2 Energy
    -------------------------------------------
       1      A1     0      -106.93018542906637
       1      A1     1      -106.91439502772167
    -------------------------------------------
	DWMS-DSRG-PT2 energy on root 0....................................PASSED
	DWMS-DSRG-PT2 energy on root 1....................................PASSED

*** Psi4 exiting successfully. Buy a developer a beer!
