
    -----------------------------------------------------------------------
          Psi4: An Open-Source Ab Initio Electronic Structure Package
                               Psi4 undefined 

                         Git: Rev {mints_oei} 4aa373e 


    R. M. Parrish, L. A. Burns, D. G. A. Smith, A. C. Simmonett,
    A. E. DePrince III, E. G. Hohenstein, U. Bozkaya, A. Yu. Sokolov,
    R. Di Remigio, R. M. Richard, J. F. Gonthier, A. M. James,
    H. R. McAlexander, A. Kumar, M. Saitow, X. Wang, B. P. Pritchard,
    P. Verma, H. F. Schaefer III, K. Patkowski, R. A. King, E. F. Valeev,
    F. A. Evangelista, J. M. Turney, T. D. Crawford, and C. D. Sherrill,
    J. Chem. Theory Comput. 13(7) pp 3185--3197 (2017).
    (doi: 10.1021/acs.jctc.7b00174)


                         Additional Contributions by
    P. Kraus, H. Kruse, M. H. Lechner, M. C. Schieber, R. A. Shaw,
    A. Alenaizan, R. Galvelis, Z. L. Glick, S. Lehtola, and J. P. Misiewicz

    -----------------------------------------------------------------------


    Psi4 started on: Sunday, 19 January 2020 05:40PM

    Process ID: 81958
    Host:       CHE-FEVANGE-01I (2)
    PSIDATADIR: /Users/fevange/Source/psi4/objdir-Debug/stage/share/psi4
    Memory:     500.0 MiB
    Threads:    1
    
  ==> Input File <==

--------------------------------------------------------------------------
import forte                              

# This test reproduces the ASCI energy of C2 reported in the Table 2 of the following paper:
#   Tubman, N. M., Lee, J., Takeshita, T. Y., Head-Gordon, M., & Whaley, K. B. (2016). 
#   J. Chem. Phys., 145 (4), 044112. http://doi.org/doi: 10.1063/1.4955109

refscf = -75.34896498316222 
refasci = -75.625005495823 
                                         
molecule CH2{                            
0 1
C
C 1 1.27273

}                                        
                                         
set {                                    
  scf_type pk                            
  #multiplicity 1                         
  basis 6-31g                      
  reference rohf
  e_convergence 10
}                                        
                                         
set forte {                              
  multiplicity 1
  active_space_solver asci                          
  frozen_docc [1,0,0,0,0,1,0,0]
  multiplicity 1
  charge 0                               
  root_sym 0
  nroot 1
  active_ref_type hf
  dl_maxiter 500
  asci_cdet 100
  asci_tdet 1000
  asci_max_cycle 8   
  asci_e_convergence 1e-5
  sci_project_out_spin_contaminants true
  spin_project_full false
  R_CONVERGENCE 1.0
}                                        
                                         
Escf, scf_wfn = energy('scf', return_wfn=True)
compare_values(refscf, variable("CURRENT ENERGY"),9, "SCF energy")
energy('forte', ref_wfn = scf_wfn) 
compare_values(refasci,variable("CURRENT ENERGY"),9,"ASCI ENERGY")
--------------------------------------------------------------------------

Scratch directory: /tmp/

*** tstart() called on CHE-FEVANGE-01I (2)
*** at Sun Jan 19 17:40:47 2020

   => Loading Basis Set <=

    Name: 6-31G
    Role: ORBITAL
    Keyword: BASIS
    atoms 1-2 entry C          line    87 file /Users/fevange/Source/psi4/objdir-Debug/stage/share/psi4/basis/6-31g.gbs 


         ---------------------------------------------------------
                                   SCF
               by Justin Turney, Rob Parrish, Andy Simmonett
                          and Daniel G. A. Smith
                             ROHF Reference
                        1 Threads,    500 MiB Core
         ---------------------------------------------------------

  ==> Geometry <==

    Molecular point group: d2h
    Full point group: D_inf_h

    Geometry (in Angstrom), charge = 0, multiplicity = 1:

       Center              X                  Y                   Z               Mass       
    ------------   -----------------  -----------------  -----------------  -----------------
         C            0.000000000000     0.000000000000    -0.636365000000    12.000000000000
         C            0.000000000000     0.000000000000     0.636365000000    12.000000000000

  Running in d2h symmetry.

  Rotational constants: A = ************  B =      1.73449  C =      1.73449 [cm^-1]
  Rotational constants: A = ************  B =  51998.80782  C =  51998.80782 [MHz]
  Nuclear repulsion =   14.968123312972903

  Charge       = 0
  Multiplicity = 1
  Electrons    = 12
  Nalpha       = 6
  Nbeta        = 6

  ==> Algorithm <==

  SCF Algorithm Type is PK.
  DIIS enabled.
  MOM disabled.
  Fractional occupation disabled.
  Guess Type is SAD.
  Energy threshold   = 1.00e-10
  Density threshold  = 1.00e-06
  Integral threshold = 0.00e+00

  ==> Primary Basis <==

  Basis Set: 6-31G
    Blend: 6-31G
    Number of shells: 10
    Number of basis function: 18
    Number of Cartesian functions: 18
    Spherical Harmonics?: false
    Max angular momentum: 1

  ==> Pre-Iterations <==

   -------------------------------------------------------
    Irrep   Nso     Nmo     Nalpha   Nbeta   Ndocc  Nsocc
   -------------------------------------------------------
     Ag         5       5       0       0       0       0
     B1g        0       0       0       0       0       0
     B2g        2       2       0       0       0       0
     B3g        2       2       0       0       0       0
     Au         0       0       0       0       0       0
     B1u        5       5       0       0       0       0
     B2u        2       2       0       0       0       0
     B3u        2       2       0       0       0       0
   -------------------------------------------------------
    Total      18      18       6       6       6       0
   -------------------------------------------------------

  ==> Integral Setup <==

  Using in-core PK algorithm.
   Calculation information:
      Number of atoms:                   2
      Number of AO shells:              10
      Number of primitives:             28
      Number of atomic orbitals:        18
      Number of basis functions:        18

      Integral cutoff                 1.00e-12
      Number of threads:                 1

  Performing in-core PK
  Using 29412 doubles for integral storage.
  We computed 1540 shell quartets total.
  Whereas there are 1540 unique shell quartets.

  ==> DiskJK: Disk-Based J/K Matrices <==

    J tasked:                  Yes
    K tasked:                  Yes
    wK tasked:                  No
    Memory [MiB]:              375
    Schwarz Cutoff:          1E-12

    OpenMP threads:              1

  Minimum eigenvalue in the overlap matrix is 8.1654782430E-03.
    Using symmetric orthogonalization.
  SCF Guess: Superposition of Atomic Densities via on-the-fly atomic UHF.

  ==> Iterations <==

                        Total Energy        Delta E     RMS |[F,P]|

   @ROHF iter SAD:   -74.45836509848711   -7.44584e+01   0.00000e+00 
   @ROHF iter   1:   -75.32939636648352   -8.71031e-01   1.04491e-02 DIIS
   @ROHF iter   2:   -75.34597940819394   -1.65830e-02   3.95161e-03 DIIS
   @ROHF iter   3:   -75.34884785923138   -2.86845e-03   8.05455e-04 DIIS
   @ROHF iter   4:   -75.34896369452109   -1.15835e-04   1.00186e-04 DIIS
   @ROHF iter   5:   -75.34896496562533   -1.27110e-06   1.14093e-05 DIIS
   @ROHF iter   6:   -75.34896498309303   -1.74677e-08   6.85408e-07 DIIS
   @ROHF iter   7:   -75.34896498316223   -6.92069e-11   1.29246e-07 DIIS
  Energy and wave function converged.


  ==> Post-Iterations <==

    Orbital Energies [Eh]
    ---------------------

    Doubly Occupied:                                                      

       1Ag   -11.374749     1B1u  -11.372901     2Ag    -1.067339  
       2B1u   -0.515173     1B2u   -0.445729     1B3u   -0.445729  

    Singly Occupied:                                                      

    

    Virtual:                                                              

       3Ag    -0.100631     1B3g    0.159461     1B2g    0.159461  
       3B1u    0.469746     4Ag     0.669083     2B3u    0.721913  
       2B2u    0.721913     5Ag     0.774793     2B3g    0.841965  
       2B2g    0.841965     4B1u    0.964988     5B1u    1.329300  

    Final Occupation by Irrep:
             Ag   B1g   B2g   B3g    Au   B1u   B2u   B3u 
    DOCC [     2,    0,    0,    0,    0,    2,    1,    1 ]
    SOCC [     0,    0,    0,    0,    0,    0,    0,    0 ]

  @ROHF Final Energy:   -75.34896498316223

   => Energetics <=

    Nuclear Repulsion Energy =             14.9681233129729030
    One-Electron Energy =                -130.1909365116239314
    Two-Electron Energy =                  39.8738482154887919
    Total Energy =                        -75.3489649831622330

Computation Completed


Properties will be evaluated at   0.000000,   0.000000,   0.000000 [a0]

Properties computed using the SCF density matrix

  Nuclear Dipole Moment: [e a0]
     X:     0.0000      Y:     0.0000      Z:     0.0000

  Electronic Dipole Moment: [e a0]
     X:     0.0000      Y:     0.0000      Z:     0.0000

  Dipole Moment: [e a0]
     X:     0.0000      Y:     0.0000      Z:     0.0000     Total:     0.0000

  Dipole Moment: [D]
     X:     0.0000      Y:     0.0000      Z:     0.0000     Total:     0.0000


*** tstop() called on CHE-FEVANGE-01I (2) at Sun Jan 19 17:40:47 2020
Module time:
	user time   =       0.29 seconds =       0.00 minutes
	system time =       0.01 seconds =       0.00 minutes
	total time  =          0 seconds =       0.00 minutes
Total time:
	user time   =       0.29 seconds =       0.00 minutes
	system time =       0.01 seconds =       0.00 minutes
	total time  =          0 seconds =       0.00 minutes
    SCF energy........................................................PASSED

Scratch directory: /tmp/
   => Loading Basis Set <=

    Name: STO-3G
    Role: ORBITAL
    Keyword: MINAO_BASIS
    atoms 1-2 entry C          line    61 file /Users/fevange/Source/psi4/objdir-Debug/stage/share/psi4/basis/sto-3g.gbs 


  Forte
  ----------------------------------------------------------------------------
  A suite of quantum chemistry methods for strongly correlated electrons

    git branch: onedet - git commit: f245d93e

  Developed by:
    Francesco A. Evangelista, Chenyang Li, Kevin P. Hannon,
    Jeffrey B. Schriber, Tianyuan Zhang, Chenxi Cai,
    Nan He, Nicholas Stair, Shuhe Wang, Renke Huang
  ----------------------------------------------------------------------------

  Size of Determinant class: 256 bits
  Read options for space FROZEN_DOCC

  ==> MO Space Information <==

  -------------------------------------------------------------------------
                       Ag   B1g   B2g   B3g    Au   B1u   B2u   B3u   Sum
  -------------------------------------------------------------------------
    FROZEN_DOCC         1     0     0     0     0     1     0     0     2
    RESTRICTED_DOCC     0     0     0     0     0     0     0     0     0
    ACTIVE              4     0     2     2     0     4     2     2    16
    RESTRICTED_UOCC     0     0     0     0     0     0     0     0     0
    FROZEN_UOCC         0     0     0     0     0     0     0     0     0
    Total               5     0     2     2     0     5     2     2    18
  -------------------------------------------------------------------------

  ==> Integral Transformation <==

  Number of molecular orbitals:                    18
  Number of correlated molecular orbitals:         16
  Number of frozen occupied orbitals:               2
  Number of frozen unoccupied orbitals:             0
  Two-electron integral type:              Conventional


  Overall Conventional Integrals timings

	Presorting SO-basis two-electron integrals.
	Sorting File: SO Ints (nn|nn) nbuckets = 1
	Transforming the one-electron integrals and constructing Fock matrices
	Starting first half-transformation.
	Sorting half-transformed integrals.
	First half integral transformation complete.
	Starting second half-transformation.
	Two-electron integral transformation complete.

  Integral transformation done. 0.01865380 s
  Reading the two-electron integrals from disk
  Size of two-electron integrals:   0.002346 GB  Using in-core PK algorithm.
   Calculation information:
      Number of atoms:                   2
      Number of AO shells:              10
      Number of primitives:             28
      Number of atomic orbitals:        18
      Number of basis functions:        18

      Integral cutoff                 1.00e-12
      Number of threads:                 1

  Performing in-core PK
  Using 29412 doubles for integral storage.
  We computed 1540 shell quartets total.
  Whereas there are 1540 unique shell quartets.


  Frozen-core energy            -73.029691612789 a.u.
  Timing for frozen one-body operator:                        0.073 s.
  Resorting integrals after freezing core.
  Timing for freezing core and virtual orbitals:              0.082 s.
  Conventional integrals take 0.15614019 s

  ==> Summary of Active Space Solver Input <==

    Irrep.  Multi.  Nstates
    -------------------------
      Ag       1        1
    -------------------------
    Total number of states: 1
    -------------------------

  Number of active alpha electrons: 4
  Number of active beta electrons: 4
  Maximum reference space size: 1000
  |2000000020002020>

-------------------------------------------------------------------------------
               Selected Configuration Interaction Excited States
  written by Jeffrey B. Schriber, Tianyuan Zhang and Francesco A. Evangelista
-------------------------------------------------------------------------------

  ==> Reference Information <==

  ==> Calculation Information <==

  -----------------------------------------------------------------
    Multiplicity                             1    
    Symmetry                                 0    
    Number of roots                          1    
    Ms                                       0
    Excited Algorithm                        NONE
  -----------------------------------------------------------------
  Using 1 threads
  Computing wavefunction for root 0

        ---------------------------------------------------------------
                                     ASCI
          written by Jeffrey B. Schriber and Francesco A. Evangelista
        ---------------------------------------------------------------

  ==> Reference Information <==

  There are 2 frozen orbitals.
  There are 16 active orbitals.

  ==> Calculation Information <==

  -----------------------------------------------------------------
    Multiplicity                             1    
    Symmetry                                 0    
    Number of roots                          1    
    CDet                                     100  
    TDet                                     1000 
    Convergence threshold                    1.00e-05
    Ms                                       0
    Diagonalization algorithm                SOLVER
  -----------------------------------------------------------------
  Using 1 threads
  Number of active alpha electrons: 4
  Number of active beta electrons: 4
  Maximum reference space size: 1000
  |2000000020002020>

  ==> Cycle 0 <==

  Initial P space dimension: 1

  ==> Computing Coupling Lists <==
  --------------------------------
        α          0.000024 s
        β          0.000009 s
        αα         0.000018 s
        ββ         0.000013 s
        αβ         0.000029 s
  --------------------------------
  Time spent diagonalizing H:   0.000074 s

    P-space  CI Energy Root   0        = -75.348964983165 Eh =   0.0000 eV

  Time spent forming F space:             0.000333
  Time spent merging thread F spaces:             0.000178
  psi::Dimension of the Ref + SD space: 452 determinants
  Time spent building the external space (default): 0.000579 s

  Time spent building sorting list: 0.000320
  Time spent sorting: 0.000127
  Time spent selecting: 0.000107
  psi::Dimension of the P + Q space: 453 determinants
  Time spent screening the model space: 0.000586 s

  ==> Computing Coupling Lists <==
  --------------------------------
        α          0.002590 s
        β          0.002393 s
        αα         0.003427 s
        ββ         0.003211 s
        αβ         0.009291 s
  --------------------------------

  Davidson-Liu solver algorithm
  Using SPARSE sigma builder
  Initial guess space is incomplete!
  Trying to add 4 determinant(s).  4 determinant(s) added.
  Initial guess found 46 solutions with 2S+1 = 1 *
  Initial guess found 47 solutions with 2S+1 = 3  
  Initial guess found 11 solutions with 2S+1 = 5  
  Adding guess 0 (multiplicity = 1.000000)
  Adding guess 1 (multiplicity = 1.000000)

  ==> Diagonalizing Hamiltonian <==

  -----------------------------------------------------
    Iter.      Avg. Energy       Delta_E     Res. Norm
  -----------------------------------------------------
      1      -90.499969673901  -9.050e+01  +3.549e-01
      2      -90.547722694267  -4.775e-02  +7.295e-02
      3      -90.550212708949  -2.490e-03  +3.139e-02
      4      -90.550877792382  -6.651e-04  +8.129e-03
      5      -90.550918100506  -4.031e-05  +2.509e-03
      6      -90.550923213000  -5.112e-06  +1.349e-03
      7      -90.550924306530  -1.094e-06  +5.765e-04
      8      -90.550924451422  -1.449e-07  +1.987e-04
      9      -90.550924473961  -2.254e-08  +9.145e-05
     10      -90.550924480597  -6.637e-09  +3.566e-05
     11      -90.550924481408  -8.106e-10  +1.178e-05
     12      -90.550924481521  -1.132e-10  +6.739e-06
     13      -90.550924481553  -3.229e-11  +3.652e-06
  -----------------------------------------------------
  The Davidson-Liu algorithm converged in 14 iterations.
  Davidson-Liu procedure took  0.046606 s
  Total time spent diagonalizing H:   0.047045 s

    PQ-space CI Energy Root   0        = -75.582801168580 Eh =   0.0000 eV


  Most important contributions to root 0:
    0  -0.901300 0.812341683           2 |2000000020002020>
    1   0.254164 0.064599528           3 |2200000000002020>
    2   0.092986 0.008646400           9 |2000200020002000>
    3   0.092986 0.008646374           8 |2000002020000020>
    4   0.075512 0.005702048           7 |2+00-000-00020+0>
    5   0.075512 0.005702048           6 |2-00+000+00020-0>
    6  -0.075512 0.005702043           5 |2-0000+0+000-020>
    7  -0.075512 0.005702043           4 |2+0000-0-000+020>
    8   0.071927 0.005173437          20 |2-00+000-00020+0>
    9   0.071927 0.005173437          21 |2+00-000+00020-0>

  Spin state for root 0: S^2 = 0.000000, S = 0.000, singlet 


  ==> Cycle 1 <==

  Initial P space dimension: 100

  ==> Computing Coupling Lists <==
  --------------------------------
        α          0.000482 s
        β          0.000490 s
        αα         0.000658 s
        ββ         0.000661 s
        αβ         0.002063 s
  --------------------------------
  Time spent diagonalizing H:   0.007267 s

    P-space  CI Energy Root   0        = -75.554897023916 Eh =   0.0000 eV

  Time spent forming F space:             0.020892
  Time spent merging thread F spaces:             0.006335
  psi::Dimension of the Ref + SD space: 17376 determinants
  Time spent building the external space (default): 0.029108 s

  Time spent building sorting list: 0.010296
  Time spent sorting: 0.005840
  Time spent selecting: 0.000184
  psi::Dimension of the P + Q space: 1000 determinants
  Time spent screening the model space: 0.016816 s

  ==> Computing Coupling Lists <==
  --------------------------------
        α          0.004622 s
        β          0.004881 s
        αα         0.005975 s
        ββ         0.006000 s
        αβ         0.015694 s
  --------------------------------

  Davidson-Liu solver algorithm
  Using SPARSE sigma builder
  Initial guess space is incomplete!
  Trying to add 70 determinant(s).  34 determinant(s) added.
  Found a guess vector with spin not close to integer value (2.236068)
  Found a guess vector with spin not close to integer value (2.236068)
  Found a guess vector with spin not close to integer value (4.123106)
  Found a guess vector with spin not close to integer value (4.123106)
  Found a guess vector with spin not close to integer value (4.123106)
  Found a guess vector with spin not close to integer value (4.123106)
  Found a guess vector with spin not close to integer value (4.123106)
  Found a guess vector with spin not close to integer value (4.123106)
  Found a guess vector with spin not close to integer value (4.123106)
  Found a guess vector with spin not close to integer value (4.582576)
  Found a guess vector with spin not close to integer value (4.582576)
  Found a guess vector with spin not close to integer value (6.403124)
  Initial guess found 52 solutions with 2S+1 = 1 *
  Initial guess found 57 solutions with 2S+1 = 3  
  Initial guess found 13 solutions with 2S+1 = 5  
  Adding guess 0 (multiplicity = 1.000000)
  Adding guess 1 (multiplicity = 1.000000)

  ==> Diagonalizing Hamiltonian <==

  -----------------------------------------------------
    Iter.      Avg. Energy       Delta_E     Res. Norm
  -----------------------------------------------------
      1      -90.502020292190  -9.050e+01  +4.411e-01
      2      -90.584876949907  -8.286e-02  +1.001e-01
      3      -90.589727030404  -4.850e-03  +4.155e-02
      4      -90.590528227216  -8.012e-04  +2.127e-02
      5      -90.590728021874  -1.998e-04  +1.105e-02
      6      -90.590843416345  -1.154e-04  +7.884e-03
      7      -90.590884738306  -4.132e-05  +3.926e-03
      8      -90.590890818499  -6.080e-06  +2.166e-03
      9      -90.590892516002  -1.698e-06  +1.743e-03
     10      -90.590892887990  -3.720e-07  +1.649e-03
     11      -90.590893013681  -1.257e-07  +1.570e-03
     12      -90.590893088969  -7.529e-08  +1.557e-03
     13      -90.590893110673  -2.170e-08  +1.552e-03
     14      -90.590893115298  -4.625e-09  +1.549e-03
     15      -90.590893115918  -6.199e-10  +1.549e-03
     16      -90.590893116077  -1.590e-10  +1.549e-03
     17      -90.590893116190  -1.133e-10  +1.549e-03
     18      -90.590893116310  -1.200e-10  +1.550e-03
     19      -90.590893116314  -4.036e-12  +1.550e-03
  -----------------------------------------------------
  The Davidson-Liu algorithm converged in 20 iterations.
  Davidson-Liu procedure took  0.091355 s
  Total time spent diagonalizing H:   0.092160 s

    PQ-space CI Energy Root   0        = -75.622769803341 Eh =   0.0000 eV


  Most important contributions to root 0:
    0  -0.842166 0.709244222           0 |2000000020002020>
    1   0.342997 0.117647089           1 |2200000000002020>
    2   0.110561 0.012223631           2 |2000002020000020>
    3   0.110447 0.012198515           3 |2000200020002000>
    4   0.087122 0.007590220           9 |2+00-000+00020-0>
    5   0.087122 0.007590220          11 |2-00+000-00020+0>
    6  -0.087121 0.007590086           8 |2+0000-0+000-020>
    7  -0.087121 0.007590086          10 |2-0000+0-000+020>
    8   0.084872 0.007203214           4 |2-00+000+00020-0>
    9   0.084872 0.007203214           5 |2+00-000-00020+0>

  Spin state for root 0: S^2 = 0.002662, S = 0.003, singlet 


  ==> Cycle 2 <==

  Initial P space dimension: 100

  ==> Computing Coupling Lists <==
  --------------------------------
        α          0.000487 s
        β          0.000492 s
        αα         0.000676 s
        ββ         0.000680 s
        αβ         0.001792 s
  --------------------------------
  Time spent diagonalizing H:   0.006833 s

    P-space  CI Energy Root   0        = -75.568668661447 Eh =   0.0000 eV

  Time spent forming F space:             0.020838
  Time spent merging thread F spaces:             0.006367
  psi::Dimension of the Ref + SD space: 19649 determinants
  Time spent building the external space (default): 0.028968 s

  Time spent building sorting list: 0.011621
  Time spent sorting: 0.006790
  Time spent selecting: 0.000176
  psi::Dimension of the P + Q space: 1000 determinants
  Time spent screening the model space: 0.018957 s

  ==> Computing Coupling Lists <==
  --------------------------------
        α          0.004594 s
        β          0.004538 s
        αα         0.006197 s
        ββ         0.006006 s
        αβ         0.015532 s
  --------------------------------

  Davidson-Liu solver algorithm
  Using SPARSE sigma builder
  Initial guess space is incomplete!
  Trying to add 58 determinant(s).  30 determinant(s) added.
  Found a guess vector with spin not close to integer value (2.236068)
  Found a guess vector with spin not close to integer value (2.236068)
  Found a guess vector with spin not close to integer value (4.123106)
  Found a guess vector with spin not close to integer value (4.123106)
  Found a guess vector with spin not close to integer value (4.123106)
  Found a guess vector with spin not close to integer value (4.123106)
  Found a guess vector with spin not close to integer value (4.582576)
  Found a guess vector with spin not close to integer value (4.582576)
  Initial guess found 52 solutions with 2S+1 = 1 *
  Initial guess found 54 solutions with 2S+1 = 3  
  Initial guess found 15 solutions with 2S+1 = 5  
  Initial guess found 1 solutions with 2S+1 = 7  
  Adding guess 0 (multiplicity = 1.000000)
  Adding guess 1 (multiplicity = 1.000000)

  ==> Diagonalizing Hamiltonian <==

  -----------------------------------------------------
    Iter.      Avg. Energy       Delta_E     Res. Norm
  -----------------------------------------------------
      1      -90.502366819228  -9.050e+01  +4.446e-01
      2      -90.586982577624  -8.462e-02  +1.009e-01
      3      -90.591677942948  -4.695e-03  +4.297e-02
      4      -90.592545456396  -8.675e-04  +2.441e-02
      5      -90.592803717818  -2.583e-04  +1.352e-02
      6      -90.592975021193  -1.713e-04  +1.061e-02
      7      -90.593050337106  -7.532e-05  +5.021e-03
      8      -90.593060619614  -1.028e-05  +2.596e-03
      9      -90.593063163943  -2.544e-06  +1.986e-03
     10      -90.593063775691  -6.117e-07  +1.861e-03
     11      -90.593064012922  -2.372e-07  +1.727e-03
     12      -90.593064164410  -1.515e-07  +1.703e-03
     13      -90.593064223434  -5.902e-08  +1.685e-03
     14      -90.593064236577  -1.314e-08  +1.679e-03
     15      -90.593064238452  -1.875e-09  +1.678e-03
     16      -90.593064240298  -1.846e-09  +1.678e-03
     17      -90.593064241505  -1.207e-09  +1.677e-03
     18      -90.593064241579  -7.319e-11  +1.677e-03
  -----------------------------------------------------
  The Davidson-Liu algorithm converged in 19 iterations.
  Davidson-Liu procedure took  0.088974 s
  Total time spent diagonalizing H:   0.089720 s

    PQ-space CI Energy Root   0        = -75.624940928606 Eh =   0.0000 eV


  Most important contributions to root 0:
    0  -0.835044 0.697298197           0 |2000000020002020>
    1   0.351515 0.123562568           1 |2200000000002020>
    2   0.111715 0.012480196           3 |2000002020000020>
    3   0.111715 0.012480196           2 |2000200020002000>
    4  -0.088347 0.007805272          10 |2-0000+0-000+020>
    5  -0.088347 0.007805272           8 |2+0000-0+000-020>
    6   0.088347 0.007805272           9 |2-00+000-00020+0>
    7   0.088347 0.007805272          11 |2+00-000+00020-0>
    8  -0.085405 0.007294049           4 |2-0000+0+000-020>
    9  -0.085405 0.007294049           7 |2+0000-0-000+020>

  Spin state for root 0: S^2 = 0.002249, S = 0.002, singlet 


  ==> Cycle 3 <==

  Initial P space dimension: 100

  ==> Computing Coupling Lists <==
  --------------------------------
        α          0.000488 s
        β          0.000490 s
        αα         0.000680 s
        ββ         0.000685 s
        αβ         0.001797 s
  --------------------------------
  Time spent diagonalizing H:   0.006552 s

    P-space  CI Energy Root   0        = -75.569086891624 Eh =   0.0000 eV

  Time spent forming F space:             0.021342
  Time spent merging thread F spaces:             0.006137
  psi::Dimension of the Ref + SD space: 19668 determinants
  Time spent building the external space (default): 0.029973 s

  Time spent building sorting list: 0.011480
  Time spent sorting: 0.006685
  Time spent selecting: 0.000176
  psi::Dimension of the P + Q space: 1000 determinants
  Time spent screening the model space: 0.018646 s

  ==> Computing Coupling Lists <==
  --------------------------------
        α          0.004728 s
        β          0.004613 s
        αα         0.005906 s
        ββ         0.006176 s
        αβ         0.015825 s
  --------------------------------

  Davidson-Liu solver algorithm
  Using SPARSE sigma builder
  Initial guess space is incomplete!
  Trying to add 58 determinant(s).  30 determinant(s) added.
  Found a guess vector with spin not close to integer value (2.236068)
  Found a guess vector with spin not close to integer value (2.236068)
  Found a guess vector with spin not close to integer value (4.123106)
  Found a guess vector with spin not close to integer value (4.123106)
  Found a guess vector with spin not close to integer value (4.123106)
  Found a guess vector with spin not close to integer value (4.123106)
  Found a guess vector with spin not close to integer value (4.582576)
  Found a guess vector with spin not close to integer value (4.582576)
  Initial guess found 52 solutions with 2S+1 = 1 *
  Initial guess found 54 solutions with 2S+1 = 3  
  Initial guess found 15 solutions with 2S+1 = 5  
  Initial guess found 1 solutions with 2S+1 = 7  
  Adding guess 0 (multiplicity = 1.000000)
  Adding guess 1 (multiplicity = 1.000000)

  ==> Diagonalizing Hamiltonian <==

  -----------------------------------------------------
    Iter.      Avg. Energy       Delta_E     Res. Norm
  -----------------------------------------------------
      1      -90.502366819228  -9.050e+01  +4.445e-01
      2      -90.587089799412  -8.472e-02  +1.004e-01
      3      -90.591721014766  -4.631e-03  +4.339e-02
      4      -90.592608180059  -8.872e-04  +2.417e-02
      5      -90.592869556960  -2.614e-04  +1.351e-02
      6      -90.593038844766  -1.693e-04  +1.066e-02
      7      -90.593114879636  -7.603e-05  +4.982e-03
      8      -90.593125217633  -1.034e-05  +2.490e-03
      9      -90.593127727919  -2.510e-06  +1.850e-03
     10      -90.593128343193  -6.153e-07  +1.709e-03
     11      -90.593128581139  -2.379e-07  +1.567e-03
     12      -90.593128730327  -1.492e-07  +1.541e-03
     13      -90.593128790694  -6.037e-08  +1.521e-03
     14      -90.593128803888  -1.319e-08  +1.514e-03
     15      -90.593128805680  -1.793e-09  +1.513e-03
     16      -90.593128807186  -1.506e-09  +1.513e-03
     17      -90.593128808227  -1.040e-09  +1.513e-03
     18      -90.593128808429  -2.021e-10  +1.513e-03
     19      -90.593128809146  -7.170e-10  +1.513e-03
     20      -90.593128809582  -4.360e-10  +1.512e-03
     21      -90.593128809597  -1.586e-11  +1.512e-03
  -----------------------------------------------------
  The Davidson-Liu algorithm converged in 22 iterations.
  Davidson-Liu procedure took  0.099075 s
  Total time spent diagonalizing H:   0.099836 s

    PQ-space CI Energy Root   0        = -75.625005496624 Eh =   0.0000 eV


  Most important contributions to root 0:
    0  -0.834938 0.697120942           0 |2000000020002020>
    1   0.351512 0.123560502           1 |2200000000002020>
    2   0.111962 0.012535534           2 |2000002020000020>
    3   0.111962 0.012535534           3 |2000200020002000>
    4  -0.088387 0.007812285          10 |2-0000+0-000+020>
    5  -0.088387 0.007812285           9 |2+0000-0+000-020>
    6   0.088387 0.007812285           8 |2-00+000-00020+0>
    7   0.088387 0.007812285          11 |2+00-000+00020-0>
    8   0.085328 0.007280827           5 |2+00-000-00020+0>
    9   0.085328 0.007280827           7 |2-00+000+00020-0>

  Spin state for root 0: S^2 = 0.002273, S = 0.002, singlet 


  ==> Cycle 4 <==

  Initial P space dimension: 100

  ==> Computing Coupling Lists <==
  --------------------------------
        α          0.000513 s
        β          0.000509 s
        αα         0.000695 s
        ββ         0.000693 s
        αβ         0.001813 s
  --------------------------------
  Time spent diagonalizing H:   0.006541 s

    P-space  CI Energy Root   0        = -75.569086891623 Eh =   0.0000 eV

  Time spent forming F space:             0.021338
  Time spent merging thread F spaces:             0.006140
  psi::Dimension of the Ref + SD space: 19668 determinants
  Time spent building the external space (default): 0.029602 s

  Time spent building sorting list: 0.011008
  Time spent sorting: 0.006659
  Time spent selecting: 0.000177
  psi::Dimension of the P + Q space: 1000 determinants
  Time spent screening the model space: 0.018142 s

  ==> Computing Coupling Lists <==
  --------------------------------
        α          0.004459 s
        β          0.004546 s
        αα         0.005947 s
        ββ         0.006066 s
        αβ         0.016093 s
  --------------------------------

  Davidson-Liu solver algorithm
  Using SPARSE sigma builder
  Initial guess space is incomplete!
  Trying to add 58 determinant(s).  30 determinant(s) added.
  Found a guess vector with spin not close to integer value (2.236068)
  Found a guess vector with spin not close to integer value (2.236068)
  Found a guess vector with spin not close to integer value (4.123106)
  Found a guess vector with spin not close to integer value (4.123106)
  Found a guess vector with spin not close to integer value (4.123106)
  Found a guess vector with spin not close to integer value (4.123106)
  Found a guess vector with spin not close to integer value (4.582576)
  Found a guess vector with spin not close to integer value (4.582576)
  Initial guess found 52 solutions with 2S+1 = 1 *
  Initial guess found 54 solutions with 2S+1 = 3  
  Initial guess found 15 solutions with 2S+1 = 5  
  Initial guess found 1 solutions with 2S+1 = 7  
  Adding guess 0 (multiplicity = 1.000000)
  Adding guess 1 (multiplicity = 1.000000)

  ==> Diagonalizing Hamiltonian <==

  -----------------------------------------------------
    Iter.      Avg. Energy       Delta_E     Res. Norm
  -----------------------------------------------------
      1      -90.502366819228  -9.050e+01  +4.445e-01
      2      -90.587089799412  -8.472e-02  +1.004e-01
      3      -90.591721014766  -4.631e-03  +4.339e-02
      4      -90.592608180059  -8.872e-04  +2.417e-02
      5      -90.592869556960  -2.614e-04  +1.351e-02
      6      -90.593038844766  -1.693e-04  +1.066e-02
      7      -90.593114879636  -7.603e-05  +4.982e-03
      8      -90.593125217633  -1.034e-05  +2.490e-03
      9      -90.593127727919  -2.510e-06  +1.850e-03
     10      -90.593128343193  -6.153e-07  +1.709e-03
     11      -90.593128581139  -2.379e-07  +1.567e-03
     12      -90.593128730327  -1.492e-07  +1.541e-03
     13      -90.593128790694  -6.037e-08  +1.521e-03
     14      -90.593128803888  -1.319e-08  +1.514e-03
     15      -90.593128805680  -1.793e-09  +1.513e-03
     16      -90.593128807186  -1.506e-09  +1.513e-03
     17      -90.593128808227  -1.040e-09  +1.513e-03
     18      -90.593128808429  -2.022e-10  +1.513e-03
     19      -90.593128809145  -7.168e-10  +1.513e-03
     20      -90.593128809581  -4.360e-10  +1.512e-03
     21      -90.593128809597  -1.586e-11  +1.512e-03
  -----------------------------------------------------
  The Davidson-Liu algorithm converged in 22 iterations.
  Davidson-Liu procedure took  0.099556 s
  Total time spent diagonalizing H:   0.100302 s

    PQ-space CI Energy Root   0        = -75.625005496624 Eh =   0.0000 eV


  Most important contributions to root 0:
    0   0.834938 0.697120942           0 |2000000020002020>
    1  -0.351512 0.123560502           1 |2200000000002020>
    2  -0.111962 0.012535534           3 |2000002020000020>
    3  -0.111962 0.012535534           2 |2000200020002000>
    4   0.088387 0.007812285          11 |2-0000+0-000+020>
    5   0.088387 0.007812285           9 |2+0000-0+000-020>
    6  -0.088387 0.007812285           8 |2-00+000-00020+0>
    7  -0.088387 0.007812285          10 |2+00-000+00020-0>
    8   0.085328 0.007280827           5 |2-0000+0+000-020>
    9   0.085328 0.007280827           6 |2+0000-0-000+020>

  Spin state for root 0: S^2 = 0.002273, S = 0.002, singlet 


  ==> Excited state solver summary <==

  Iterations required:                         4
  Dimension of optimized determinant space:    1000

  * Selected-CI Energy Root   0        = -75.625005496624 Eh =   0.0000 eV
  * Selected-CI Energy Root   0 + EPT2 = -75.625005496624 Eh =   0.0000 eV

  ==> Wavefunction Information <==

  Most important contributions to root   0:
    0   0.834938 0.697120942           0 |2000000020002020>
    1  -0.351512 0.123560502           1 |2200000000002020>
    2  -0.111962 0.012535534           3 |2000002020000020>
    3  -0.111962 0.012535534           2 |2000200020002000>
    4   0.088387 0.007812285          11 |2-0000+0-000+020>
    5   0.088387 0.007812285           9 |2+0000-0+000-020>
    6  -0.088387 0.007812285           8 |2-00+000-00020+0>
    7  -0.088387 0.007812285          10 |2+00-000+00020-0>
    8   0.085328 0.007280827           5 |2-0000+0+000-020>
    9   0.085328 0.007280827           6 |2+0000-0-000+020>

  Spin state for root 0: S^2 = 0.002273, S = 0.002, singlet

  Saving information for root: 0

  ==> Energy Summary <==

    Multi.  Irrep.  No.               Energy
    -----------------------------------------
       1      Ag     0       -75.625005496624
    -----------------------------------------

  Time to prepare integrals: 0.1598668098449707 seconds
  Time to run job          : 0.90000319480896 seconds
  Total                    : 0.90000319480896 seconds    ASCI ENERGY.......................................................PASSED

    Psi4 stopped on: Sunday, 19 January 2020 05:40PM
    Psi4 wall time for execution: 0:00:01.44

*** Psi4 exiting successfully. Buy a developer a beer!
