
    -----------------------------------------------------------------------
          Psi4: An Open-Source Ab Initio Electronic Structure Package
                               Psi4 1.1a2.dev197 

                         Git: Rev {master} 0bd885f 


    J. M. Turney, A. C. Simmonett, R. M. Parrish, E. G. Hohenstein,
    F. A. Evangelista, J. T. Fermann, B. J. Mintz, L. A. Burns, J. J. Wilke,
    M. L. Abrams, N. J. Russ, M. L. Leininger, C. L. Janssen, E. T. Seidl,
    W. D. Allen, H. F. Schaefer, R. A. King, E. F. Valeev, C. D. Sherrill,
    and T. D. Crawford, WIREs Comput. Mol. Sci. 2, 556-565 (2012)
    (doi: 10.1002/wcms.93)


                         Additional Contributions by
    A. E. DePrince, U. Bozkaya, A. Yu. Sokolov, D. G. A. Smith, R. Di Remigio,
    R. M. Richard, J. F. Gonthier, H. R. McAlexander, M. Saitow, and
    B. P. Pritchard
    -----------------------------------------------------------------------


    Psi4 started on: Saturday, 21 January 2017 10:43AM

    Process ID:  69773
    PSIDATADIR: /Users/tianyuanzhang/Documents/Source/psi4-bin-clang-debug/share/psi4
    Memory:     500.0 MiB
    Threads:    1
    
  ==> Input File <==

--------------------------------------------------------------------------
#! This tests the Adaptive Path-Integral FCI procedure with dynamic prescreening
#! Generated using commit GITCOMMIT

import forte

refscf = -14.6097447388741113 #TEST
refpci = -14.646160455930 #TEST

molecule li2{
   Li
   Li 1 2.0000
}

set {
  basis sto-3g
  scf_type pk
  e_convergence 12
}

set forte {
  job_type pci
  tau 0.1
  spawning_threshold 0.0001
  simple_prescreening true
}

energy('scf')
compare_values(refscf, get_variable("CURRENT ENERGY"), 11, "SCF energy") #TEST

energy('forte')
compare_values(refpci, get_variable("PCI ENERGY"), 11, "PCI energy") #TEST
--------------------------------------------------------------------------
/Users/tianyuanzhang/Documents/Source/forte/forte.so loaded.

*** tstart() called on Tianyuans-MacBook-Air.local
*** at Sat Jan 21 10:43:36 2017

    There are an even number of electrons - assuming singlet.
    Specify the multiplicity in the molecule input block.


         ---------------------------------------------------------
                                   SCF
            by Justin Turney, Rob Parrish, and Andy Simmonett
                              RHF Reference
                        1 Threads,    524 MiB Core
         ---------------------------------------------------------

  ==> Geometry <==

    Molecular point group: d2h
    Full point group: D_inf_h

    Geometry (in Angstrom), charge = 0, multiplicity = 1:

       Center              X                  Y                   Z               Mass       
    ------------   -----------------  -----------------  -----------------  -----------------
          LI          0.000000000000     0.000000000000    -1.000000000000     7.016004548000
          LI          0.000000000000     0.000000000000     1.000000000000     7.016004548000

  Running in d2h symmetry.

  Rotational constants: A = ************  B =      1.20137  C =      1.20137 [cm^-1]
  Rotational constants: A = ************  B =  36016.15432  C =  36016.15432 [MHz]
  Nuclear repulsion =    2.381297438654999

  Charge       = 0
  Multiplicity = 1
  Electrons    = 6
  Nalpha       = 3
  Nbeta        = 3

  ==> Algorithm <==

  SCF Algorithm Type is PK.
  DIIS enabled.
  MOM disabled.
  Fractional occupation disabled.
  Guess Type is SAD.
  Energy threshold   = 1.00e-12
  Density threshold  = 1.00e-06
  Integral threshold = 0.00e+00

  ==> Primary Basis <==

  Basis Set: file /Users/tianyuanzhang/Documents/Source/psi4-bin-clang-debug/share/psi4/basis/sto-3g.gbs
    Number of shells: 6
    Number of basis function: 10
    Number of Cartesian functions: 10
    Spherical Harmonics?: true
    Max angular momentum: 1

  ==> Pre-Iterations <==

   -------------------------------------------------------
    Irrep   Nso     Nmo     Nalpha   Nbeta   Ndocc  Nsocc
   -------------------------------------------------------
     Ag         3       3       0       0       0       0
     B1g        0       0       0       0       0       0
     B2g        1       1       0       0       0       0
     B3g        1       1       0       0       0       0
     Au         0       0       0       0       0       0
     B1u        3       3       0       0       0       0
     B2u        1       1       0       0       0       0
     B3u        1       1       0       0       0       0
   -------------------------------------------------------
    Total      10      10       3       3       3       0
   -------------------------------------------------------

  ==> Integral Setup <==

  Using in-core PK algorithm.
   Calculation information:
      Number of atoms:                   2
      Number of AO shells:               6
      Number of primitives:             18
      Number of atomic orbitals:        10
      Number of basis functions:        10

      Integral cutoff                 1.00e-12
      Number of threads:                 1

  Performing in-core PK
  Using 3080 doubles for integral storage.
  We computed 231 shell quartets total.
  Whereas there are 231 unique shell quartets.
  ==> DiskJK: Disk-Based J/K Matrices <==

    J tasked:                  Yes
    K tasked:                  Yes
    wK tasked:                  No
    Memory (MB):               375
    Schwarz Cutoff:          1E-12

    OpenMP threads:              1
  Minimum eigenvalue in the overlap matrix is 4.0289193593E-02.
  Using Symmetric Orthogonalization.

  SCF Guess: Superposition of Atomic Densities via on-the-fly atomic UHF.

  ==> Iterations <==

                        Total Energy        Delta E     RMS |[F,P]|

   @RHF iter   0:   -14.58573852603513   -1.45857e+01   6.38128e-02 
   @RHF iter   1:   -14.60879129784490   -2.30528e-02   3.90853e-03 
   @RHF iter   2:   -14.60956780431854   -7.76506e-04   1.49380e-03 DIIS
   @RHF iter   3:   -14.60974068519981   -1.72881e-04   2.15662e-04 DIIS
   @RHF iter   4:   -14.60974473694128   -4.05174e-06   4.32612e-06 DIIS
   @RHF iter   5:   -14.60974473887197   -1.93069e-09   1.41353e-07 DIIS
   @RHF iter   6:   -14.60974473887410   -2.12097e-12   3.63226e-09 DIIS
   @RHF iter   7:   -14.60974473887411   -1.24345e-14   1.73384e-11 DIIS

  ==> Post-Iterations <==

    Orbital Energies (a.u.)
    -----------------------

    Doubly Occupied:                                                      

       1Ag    -2.340313     1B1u   -2.335347     2Ag    -0.163839  

    Virtual:                                                              

       2B1u    0.093646     1B2u    0.108933     1B3u    0.108933  
       3Ag     0.176245     1B3g    0.275579     1B2g    0.275579  
       3B1u    0.645556  

    Final Occupation by Irrep:
             Ag   B1g   B2g   B3g    Au   B1u   B2u   B3u 
    DOCC [     2,    0,    0,    0,    0,    1,    0,    0 ]

  Energy converged.

  @RHF Final Energy:   -14.60974473887411

   => Energetics <=

    Nuclear Repulsion Energy =              2.3812974386549994
    One-Electron Energy =                 -24.3030864505908824
    Two-Electron Energy =                   7.3120442730617743
    DFT Exchange-Correlation Energy =       0.0000000000000000
    Empirical Dispersion Energy =           0.0000000000000000
    PCM Polarization Energy =               0.0000000000000000
    EFP Energy =                            0.0000000000000000
    Total Energy =                        -14.6097447388741077



Properties will be evaluated at   0.000000,   0.000000,   0.000000 Bohr

Properties computed using the SCF density matrix

  Nuclear Dipole Moment: (a.u.)
     X:     0.0000      Y:     0.0000      Z:     0.0000

  Electronic Dipole Moment: (a.u.)
     X:     0.0000      Y:     0.0000      Z:     0.0000

  Dipole Moment: (a.u.)
     X:     0.0000      Y:     0.0000      Z:     0.0000     Total:     0.0000

  Dipole Moment: (Debye)
     X:     0.0000      Y:     0.0000      Z:     0.0000     Total:     0.0000


*** tstop() called on Tianyuans-MacBook-Air.local at Sat Jan 21 10:43:36 2017
Module time:
	user time   =       0.47 seconds =       0.01 minutes
	system time =       0.02 seconds =       0.00 minutes
	total time  =          0 seconds =       0.00 minutes
Total time:
	user time   =       0.47 seconds =       0.01 minutes
	system time =       0.02 seconds =       0.00 minutes
	total time  =          0 seconds =       0.00 minutes
	SCF energy........................................................PASSED

         ---------------------------------------------------------
                                   SCF
            by Justin Turney, Rob Parrish, and Andy Simmonett
                              RHF Reference
                        1 Threads,    524 MiB Core
         ---------------------------------------------------------

  ==> Geometry <==

    Molecular point group: d2h
    Full point group: D_inf_h

    Geometry (in Angstrom), charge = 0, multiplicity = 1:

       Center              X                  Y                   Z               Mass       
    ------------   -----------------  -----------------  -----------------  -----------------
          LI          0.000000000000     0.000000000000    -1.000000000000     7.016004548000
          LI          0.000000000000     0.000000000000     1.000000000000     7.016004548000

  Running in d2h symmetry.

  Rotational constants: A = ************  B =      1.20137  C =      1.20137 [cm^-1]
  Rotational constants: A = ************  B =  36016.15432  C =  36016.15432 [MHz]
  Nuclear repulsion =    2.381297438654999

  Charge       = 0
  Multiplicity = 1
  Electrons    = 6
  Nalpha       = 3
  Nbeta        = 3

  ==> Algorithm <==

  SCF Algorithm Type is PK.
  DIIS enabled.
  MOM disabled.
  Fractional occupation disabled.
  Guess Type is SAD.
  Energy threshold   = 1.00e-12
  Density threshold  = 1.00e-08
  Integral threshold = 0.00e+00

  ==> Primary Basis <==

  Basis Set: file /Users/tianyuanzhang/Documents/Source/psi4-bin-clang-debug/share/psi4/basis/sto-3g.gbs
    Number of shells: 6
    Number of basis function: 10
    Number of Cartesian functions: 10
    Spherical Harmonics?: true
    Max angular momentum: 1

  ==> Pre-Iterations <==

   -------------------------------------------------------
    Irrep   Nso     Nmo     Nalpha   Nbeta   Ndocc  Nsocc
   -------------------------------------------------------
     Ag         3       3       0       0       0       0
     B1g        0       0       0       0       0       0
     B2g        1       1       0       0       0       0
     B3g        1       1       0       0       0       0
     Au         0       0       0       0       0       0
     B1u        3       3       0       0       0       0
     B2u        1       1       0       0       0       0
     B3u        1       1       0       0       0       0
   -------------------------------------------------------
    Total      10      10       3       3       3       0
   -------------------------------------------------------

  ==> Integral Setup <==

  Using in-core PK algorithm.
   Calculation information:
      Number of atoms:                   2
      Number of AO shells:               6
      Number of primitives:             18
      Number of atomic orbitals:        10
      Number of basis functions:        10

      Integral cutoff                 1.00e-12
      Number of threads:                 1

  Performing in-core PK
  Using 3080 doubles for integral storage.
  We computed 231 shell quartets total.
  Whereas there are 231 unique shell quartets.
  ==> DiskJK: Disk-Based J/K Matrices <==

    J tasked:                  Yes
    K tasked:                  Yes
    wK tasked:                  No
    Memory (MB):               375
    Schwarz Cutoff:          1E-12

    OpenMP threads:              1
  Minimum eigenvalue in the overlap matrix is 4.0289193593E-02.
  Using Symmetric Orthogonalization.

  SCF Guess: Superposition of Atomic Densities via on-the-fly atomic UHF.

  ==> Iterations <==

                        Total Energy        Delta E     RMS |[F,P]|

   @RHF iter   0:   -14.58573852603513   -1.45857e+01   6.38128e-02 
   @RHF iter   1:   -14.60879129784490   -2.30528e-02   3.90853e-03 
   @RHF iter   2:   -14.60956780431854   -7.76506e-04   1.49380e-03 DIIS
   @RHF iter   3:   -14.60974068519980   -1.72881e-04   2.15662e-04 DIIS
   @RHF iter   4:   -14.60974473694129   -4.05174e-06   4.32612e-06 DIIS
   @RHF iter   5:   -14.60974473887197   -1.93068e-09   1.41353e-07 DIIS
   @RHF iter   6:   -14.60974473887410   -2.12985e-12   3.63226e-09 DIIS
   @RHF iter   7:   -14.60974473887410   -3.55271e-15   1.73384e-11 DIIS

  ==> Post-Iterations <==

    Orbital Energies (a.u.)
    -----------------------

    Doubly Occupied:                                                      

       1Ag    -2.340313     1B1u   -2.335347     2Ag    -0.163839  

    Virtual:                                                              

       2B1u    0.093646     1B3u    0.108933     1B2u    0.108933  
       3Ag     0.176245     1B2g    0.275579     1B3g    0.275579  
       3B1u    0.645556  

    Final Occupation by Irrep:
             Ag   B1g   B2g   B3g    Au   B1u   B2u   B3u 
    DOCC [     2,    0,    0,    0,    0,    1,    0,    0 ]

  Energy converged.

  @RHF Final Energy:   -14.60974473887410

   => Energetics <=

    Nuclear Repulsion Energy =              2.3812974386549994
    One-Electron Energy =                 -24.3030864505908788
    Two-Electron Energy =                   7.3120442730617778
    DFT Exchange-Correlation Energy =       0.0000000000000000
    Empirical Dispersion Energy =           0.0000000000000000
    PCM Polarization Energy =               0.0000000000000000
    EFP Energy =                            0.0000000000000000
    Total Energy =                        -14.6097447388741006



Properties will be evaluated at   0.000000,   0.000000,   0.000000 Bohr

Properties computed using the SCF density matrix

  Nuclear Dipole Moment: (a.u.)
     X:     0.0000      Y:     0.0000      Z:     0.0000

  Electronic Dipole Moment: (a.u.)
     X:     0.0000      Y:     0.0000      Z:     0.0000

  Dipole Moment: (a.u.)
     X:     0.0000      Y:     0.0000      Z:     0.0000     Total:     0.0000

  Dipole Moment: (Debye)
     X:     0.0000      Y:     0.0000      Z:     0.0000     Total:     0.0000

 MINTS: Wrapper to libmints.
   by Justin Turney

   Calculation information:
      Number of atoms:                   2
      Number of AO shells:               6
      Number of SO shells:               3
      Number of primitives:             18
      Number of atomic orbitals:        10
      Number of basis functions:        10

      Number of irreps:                  8
      Integral cutoff                 0.00e+00
      Number of functions per irrep: [   3    0    1    1    0    3    1    1 ]

 OEINTS: Overlap, kinetic, potential, dipole, and quadrupole integrals
         stored in file 35.

      Computing two-electron integrals...done
      Computed 292 non-zero two-electron integrals.
        Stored in file 33.


Reading options from the FORTE block
Calling plugin forte.so.




  ==> MO Space Information <==

  -------------------------------------------------------------------------
                       Ag   B1g   B2g   B3g    Au   B1u   B2u   B3u   Sum
  -------------------------------------------------------------------------
    FROZEN_DOCC         0     0     0     0     0     0     0     0     0
    RESTRICTED_DOCC     0     0     0     0     0     0     0     0     0
    ACTIVE              3     0     1     1     0     3     1     1    10
    RESTRICTED_UOCC     0     0     0     0     0     0     0     0     0
    FROZEN_UOCC         0     0     0     0     0     0     0     0     0
    Total               3     0     1     1     0     3     1     1    10
  -------------------------------------------------------------------------

  ==> Integral Transformation <==

  Number of molecular orbitals:               10
  Number of correlated molecular orbitals:    10
  Number of frozen occupied orbitals:          0
  Number of frozen unoccupied orbitals:        0

    Molecular point group: d2h
    Full point group: D_inf_h

    Geometry (in Angstrom), charge = 0, multiplicity = 1:

       Center              X                  Y                   Z               Mass       
    ------------   -----------------  -----------------  -----------------  -----------------
          LI          0.000000000000     0.000000000000    -1.000000000000     7.016004548000
          LI          0.000000000000     0.000000000000     1.000000000000     7.016004548000

  -AO BASIS SET INFORMATION:
    Name                   = file /Users/tianyuanzhang/Documents/Source/psi4-bin-clang-debug/share/psi4/basis/sto-3g.gbs
    Total number of shells = 6
    Number of primitives   = 18
    Number of AO           = 10
    Number of SO           = 10
    Maximum AM             = 1
    Spherical Harmonics    = TRUE

  -Contraction Scheme:
    Atom   Type   All Primitives // Shells:
   ------ ------ --------------------------
       1    LI     6s 3p // 2s 1p 
       2    LI     6s 3p // 2s 1p 

  ==> AO Basis Functions <==

    [ file /Users/tianyuanzhang/Documents/Source/psi4-bin-clang-debug/share/psi4/basis/sto-3g.gbs ]
    spherical
    ****
   LI   1
    S   3 1.00
                        16.11957500           0.15432897
                         2.93620070           0.53532814
                         0.79465050           0.44463454
    S   3 1.00
                         0.63628970          -0.09996723
                         0.14786010           0.39951283
                         0.04808870           0.70011547
    P   3 1.00
                         0.63628970           0.15591627
                         0.14786010           0.60768372
                         0.04808870           0.39195739
    ****


  Overall Conventional Integrals timings

	Presorting SO-basis two-electron integrals.
	Sorting File: SO Ints (nn|nn) nbuckets = 1
	Transforming the one-electron integrals and constructing Fock matrices
	Starting first half-transformation.
	Sorting half-transformed integrals.
	First half integral transformation complete.
	Starting second half-transformation.
	Two-electron integral transformation complete.

  Integral transformation done. 0.00610700 s
  Reading the two-electron integrals from disk
  Size of two-electron integrals:   0.000224 GB
  Conventional integrals take 0.05738900 s

	  ---------------------------------------------------------
	      Adaptive Path-Integral Full Configuration Interaction
	         by Francesco A. Evangelista and Tianyuan Zhang
	                      version Jun. 15 2016
	                       1 thread(s) 
	  ---------------------------------------------------------

  ==> Calculation Information <==

    Symmetry                                         0
    Multiplicity                                     1
    Number of roots                                  1
    Root used for properties                         0
    Maximum number of iterations                 10000
    Energy estimation frequency                      1
    Number of threads                                1
    Time step (beta)                         1.000e+00
    Spawning threshold                       1.000e-04
    Initial guess spawning threshold         1.000e-03
    Convergence threshold                    1.000e-12
    Prescreening tollerance factor           1.500e+00
    Energy estimate tollerance               1.000e-06
    Generator type                          Wall-Chebyshev
    Adaptive time step                              NO
    Shift the energy                                NO
    Use intermediate normalization                  NO
    Prescreen spawning                             YES
    Dynamic prescreening                            NO
    Schwarz prescreening                            NO
    Initiator approximation                         NO
    Fast variational estimate                       NO
    Result perturbation analysis                    NO
    Using OpenMP                                    NO

  ==> Initial Guess <==

  Initial guess size = 86

  Initial guess energy (variational) =     -14.645949230114 Eh (root = 1)

  Most important contributions to the wave function:

    0      -0.933701      0.871797          68 |2200020000>    -16.991042177529
    1       0.231506     0.0535952          84 |2000020020>    -16.844531934967
    2       0.231506     0.0535952          23 |2000020002>    -16.844531934967
    3       0.113961      0.012987          63 |2000022000>    -16.780684415184
    4      0.0799872    0.00639795          26 |2020020000>    -16.722588670729
    5      0.0250225   0.000626128          40 |200002+-00>    -16.358845129061
    6      0.0250225   0.000626128          24 |200002-+00>    -16.358845129061
    7     0.00824492   6.79786e-05          47 |2000020200>    -15.877818674644
    8    -0.00468371   2.19372e-05          69 |2000220000>    -16.542435840226
    9    -0.00468371   2.19372e-05          25 |2002020000>    -16.542435840226

  Spin State: S^2 = 0.000, S = 0.000, singlet (from 3 determinants,97.90)

  ==> Estimate highest excitation energy <==
  Highest Excited determinant:
  |0002200200>
  Determinant Energy                    :  -2.581264125807
  Highest Energy Gershgorin circle Est. :  -0.994024726393

  ==> Characteristic Function <==
    f(x) = -2.159387e-03 * x^5 +7.369949e-03 * x^4 +1.006140e-01 * x^3 -2.575452e-01 * x^2 -8.789969e-01 * x +1.000000e+00
    with tau = 1.000000e+00, shift = -10.201284416909, range = 6.825962251861
    Initial guess: lambda_1= -14.645949230114
    Est. Highest eigenvalue= -0.994024726393

  ==> APIFCI Iterations <==

  ------------------------------------------------------------------------------------------------
    Steps  Beta/Eh      Ndets     Proj. Energy/Eh     dEp/dt      Approx. Energy/Eh   dEv/dt
  ------------------------------------------------------------------------------------------------
        0     0.00        418     -14.646049946051 -1.007e-04     -14.645174987357 -2.626e-05
        1     1.00        418     -14.646112220709 -6.227e-05     -14.645230264292 -5.528e-05
        2     2.00        418     -14.646168015898 -5.580e-05     -14.645246794693 -1.653e-05
        3     3.00        418     -14.646213296102 -4.528e-05     -14.645262973645 -1.618e-05
        4     4.00        418     -14.646246920343 -3.362e-05     -14.645276870233 -1.390e-05
        5     5.00        418     -14.646277779380 -3.086e-05     -14.645283557111 -6.687e-06
        6     6.00        418     -14.646296571750 -1.879e-05     -14.645286379069 -2.822e-06
        7     7.00        418     -14.646321048747 -2.448e-05     -14.645291615237 -5.236e-06
        8     8.00        418     -14.646329321462 -8.273e-06     -14.645295757143 -4.142e-06
        9     9.00        418     -14.646337496842 -8.175e-06     -14.645205074794  9.068e-05
       10    10.00        418     -14.646313312263  2.418e-05     -14.645205613075 -5.383e-07
       11    11.00        418     -14.646290373724  2.294e-05     -14.645391786932 -1.862e-04
       12    12.00        418     -14.646272982953  1.739e-05     -14.645390485676  1.301e-06
       13    13.00        422     -14.646261004998  1.198e-05     -14.645389445746  1.040e-06
       14    14.00        422     -14.646252610958  8.394e-06     -14.645388586711  8.590e-07
       15    15.00        422     -14.646246578625  6.032e-06     -14.645387921944  6.648e-07
       16    16.00        422     -14.646242183692  4.395e-06     -14.645387409960  5.120e-07
       17    17.00        422     -14.646238945797  3.238e-06     -14.645387017642  3.923e-07
       18    18.00        422     -14.646236540799  2.405e-06     -14.645386716422  3.012e-07
       19    19.00        422     -14.646234742438  1.798e-06     -14.645386484441  2.320e-07
       20    20.00        422     -14.646233390074  1.352e-06     -14.645386305088  1.794e-07
       21    21.00        422     -14.646232367987  1.022e-06     -14.645386165886  1.392e-07
       22    22.00        422     -14.646231591976  7.760e-07     -14.645385949786  2.161e-07
       23    23.00        422     -14.646231000273  5.917e-07     -14.645385989891 -4.010e-08
       24    24.00        422     -14.646230547270  4.530e-07     -14.645385903102  8.679e-08
       25    25.00        422     -14.646230199103  3.482e-07     -14.645385854363  4.874e-08
       26    26.00        422     -14.646229930507  2.686e-07     -14.645385812479  4.188e-08
       27    27.00        422     -14.646229722542  2.080e-07     -14.645385779944  3.253e-08
       28    28.00        422     -14.646229560958  1.616e-07     -14.645385754041  2.590e-08
       29    29.00        422     -14.646229434983  1.260e-07     -14.645385733471  2.057e-08
       30    30.00        422     -14.646229336450  9.853e-08     -14.645385717082  1.639e-08
       31    31.00        422     -14.646229259138  7.731e-08     -14.645385704001  1.308e-08
       32    32.00        422     -14.646229198294  6.084e-08     -14.645385693539  1.046e-08
       33    33.00        422     -14.646229150273  4.802e-08     -14.645385685158  8.381e-09
       34    34.00        422     -14.646229112269  3.800e-08     -14.645385678432  6.726e-09
       35    35.00        422     -14.646229082116  3.015e-08     -14.645385673026  5.406e-09
       36    36.00        422     -14.646229058133  2.398e-08     -14.645385668674  4.351e-09
       37    37.00        422     -14.646229039015  1.912e-08     -14.645385665167  3.507e-09
       38    38.00        422     -14.646229023743  1.527e-08     -14.645385662337  2.830e-09
       39    39.00        422     -14.646229011518  1.222e-08     -14.645385660051  2.286e-09
       40    40.00        422     -14.646229001715  9.803e-09     -14.645385658202  1.849e-09
       41    41.00        422     -14.646228993841  7.874e-09     -14.645385656705  1.497e-09
       42    42.00        422     -14.646228987506  6.335e-09     -14.645385655492  1.213e-09
       43    43.00        422     -14.646228982403  5.104e-09     -14.645385654509  9.832e-10
       44    44.00        422     -14.646228978285  4.117e-09     -14.645385653711  7.978e-10
       45    45.00        422     -14.646228974960  3.325e-09     -14.645385653064  6.477e-10
       46    46.00        422     -14.646228972271  2.689e-09     -14.645385652537  5.262e-10
       47    47.00        422     -14.646228970095  2.176e-09     -14.645385652110  4.277e-10
       48    48.00        422     -14.646228968332  1.763e-09     -14.645385651762  3.478e-10
       49    49.00        422     -14.646228966903  1.429e-09     -14.645385651479  2.830e-10
       50    50.00        422     -14.646228965743  1.160e-09     -14.645385651249  2.303e-10
       51    51.00        422     -14.646228964802  9.415e-10     -14.645385651061  1.875e-10
       52    52.00        422     -14.646228964037  7.648e-10     -14.645385650908  1.527e-10
       53    53.00        422     -14.646228963415  6.217e-10     -14.645385650784  1.245e-10
       54    54.00        422     -14.646228962910  5.056e-10     -14.645385650683  1.013e-10
       55    55.00        422     -14.646228962498  4.114e-10     -14.645385650600  8.269e-11
       56    56.00        422     -14.646228962164  3.348e-10     -14.645385650533  6.735e-11
       57    57.00        422     -14.646228961891  2.726e-10     -14.645385650478  5.491e-11
       58    58.00        422     -14.646228961669  2.220e-10     -14.645385650433  4.483e-11
       59    59.00        422     -14.646228961488  1.809e-10     -14.645385650396  3.653e-11
       60    60.00        422     -14.646228961341  1.474e-10     -14.645385650366  2.983e-11
       61    61.00        422     -14.646228961221  1.202e-10     -14.645385650342  2.429e-11
       62    62.00        422     -14.646228961123  9.792e-11     -14.645385650322  1.987e-11
       63    63.00        422     -14.646228961043  7.990e-11     -14.645385650306  1.619e-11
       64    64.00        422     -14.646228960978  6.514e-11     -14.645385650293  1.323e-11
       65    65.00        422     -14.646228960924  5.312e-11     -14.645385650282  1.075e-11
       66    66.00        422     -14.646228960881  4.336e-11     -14.645385650273  8.818e-12
       67    67.00        422     -14.646228960846  3.537e-11     -14.645385650266  7.198e-12
       68    68.00        422     -14.646228960817  2.886e-11     -14.645385650260  5.880e-12
       69    69.00        422     -14.646228960793  2.354e-11     -14.645385650255  4.789e-12
       70    70.00        422     -14.646228960774  1.922e-11     -14.645385650252  3.901e-12
       71    71.00        422     -14.646228960758  1.570e-11     -14.645385650248  3.187e-12
       72    72.00        422     -14.646228960746  1.279e-11     -14.645385650246  2.601e-12
       73    73.00        422     -14.646228960735  1.045e-11     -14.645385650244  2.139e-12
       74    74.00        422     -14.646228960727  8.562e-12     -14.645385650242  1.734e-12
       75    75.00        422     -14.646228960720  6.946e-12     -14.645385650240  1.407e-12
       76    76.00        422     -14.646228960714  5.684e-12     -14.645385650239  1.194e-12
       77    77.00        422     -14.646228960709  4.640e-12     -14.645385650238  9.237e-13
       78    78.00        422     -14.646228960706  3.794e-12
  ------------------------------------------------------------------------------------------------

  Calculation converged.

  ==> Post-Iterations <==

  * Projector-CI Variational Energy     =   -14.646160455930 Eh
  * Projector-CI Projective  Energy     =   -14.646228960706 Eh

  * Projector-CI Approximate Energy     =   -14.645385650238 Eh
  * 1st order perturbation   Energy     =    -0.000774805691 Eh
  * Projector-CI Var. Corr.  Energy     =    -0.036415717056 Eh

  * Size of CI space                    = 422

  Projector-CI (bitset) ran in  : 2.293277 s

  Most important contributions to the wave function:

    0      -0.932962      0.870419         230 |2200020000>    -16.991042177529
    1       0.230884     0.0533076         220 |2000020020>    -16.844531934967
    2       0.230884     0.0533076         219 |2000020002>    -16.844531934967
    3       0.120006     0.0144015         278 |2000022000>    -16.780684415184
    4      0.0811428    0.00658416         225 |2020020000>    -16.722588670729
    5      0.0241159   0.000581575         289 |200002+-00>    -16.358845129061
    6      0.0241159   0.000581575         223 |200002-+00>    -16.358845129061
    7      0.0144446   0.000208646         228 |2+-0020000>    -16.872775649558
    8      0.0144446   0.000208646         227 |2-+0020000>    -16.872775649558
    9     0.00767978   5.89791e-05         284 |2000020200>    -15.877818674644

  Spin State: S^2 = 0.000, S = 0.000, singlet (from 3 determinants,97.70)

  Your calculation took 2.36522100 seconds
	PCI energy........................................................PASSED

*** Psi4 exiting successfully. Buy a developer a beer!
