
    -----------------------------------------------------------------------
          Psi4: An Open-Source Ab Initio Electronic Structure Package
                               Psi4 1.2a1.dev196 

                         Git: Rev {master} 661c6b0 


    R. M. Parrish, L. A. Burns, D. G. A. Smith, A. C. Simmonett,
    A. E. DePrince III, E. G. Hohenstein, U. Bozkaya, A. Yu. Sokolov,
    R. Di Remigio, R. M. Richard, J. F. Gonthier, A. M. James,
    H. R. McAlexander, A. Kumar, M. Saitow, X. Wang, B. P. Pritchard,
    P. Verma, H. F. Schaefer III, K. Patkowski, R. A. King, E. F. Valeev,
    F. A. Evangelista, J. M. Turney, T. D. Crawford, and C. D. Sherrill,
    J. Chem. Theory Comput. in press (2017).
    (doi: 10.1021/acs.jctc.7b00174)

    -----------------------------------------------------------------------


    Psi4 started on: Thursday, 25 May 2017 11:29AM

    Process ID:  68239
    PSIDATADIR: /Users/fevange/anaconda/envs/forte/share/psi4
    Memory:     500.0 MiB
    Threads:    1
    
  ==> Input File <==

--------------------------------------------------------------------------
#! Generated using commit GITCOMMIT

import forte

molecule hh {
1 2
H
H 1 1
}

set {
  basis            aug-cc-pVDZ
  reference        rohf
  scf_type         pk
  df_scf_guess     false
  guess            gwh
  e_convergence    6
}

set forte{
  frozen_docc      [0, 0, 0, 0, 0, 0, 0, 0]
  restricted_docc  [0, 0, 0, 0, 0, 0, 0, 0]
  active           [1, 0, 0, 0, 0, 0, 0, 0]
  cas_type          fci
  multiplicity      2
  root_sym          0
  nroot             1
  int_type          conventional
  job_type          fci
}

energy('forte')
--------------------------------------------------------------------------
/users/fevange/Source/forte/forte.so loaded.

*** tstart() called on CHE-FEVANGE-01I
*** at Thu May 25 11:29:33 2017

   => Loading Basis Set <=

    Name: AUG-CC-PVDZ
    Role: ORBITAL
    Keyword: BASIS
    atoms 1-2 entry H          line    36 file /Users/fevange/anaconda/envs/forte/share/psi4/basis/aug-cc-pvdz.gbs 


         ---------------------------------------------------------
                                   SCF
            by Justin Turney, Rob Parrish, Andy Simmonett
                             and Daniel Smith
                             ROHF Reference
                        1 Threads,    500 MiB Core
         ---------------------------------------------------------

  ==> Geometry <==

    Molecular point group: d2h
    Full point group: D_inf_h

    Geometry (in Angstrom), charge = 1, multiplicity = 2:

       Center              X                  Y                   Z               Mass       
    ------------   -----------------  -----------------  -----------------  -----------------
           H          0.000000000000     0.000000000000    -0.500000000000     1.007825032070
           H          0.000000000000     0.000000000000     0.500000000000     1.007825032070

  Running in d2h symmetry.

  Rotational constants: A = ************  B =     33.45348  C =     33.45348 [cm^-1]
  Rotational constants: A = ************  B = 1002910.20547  C = 1002910.20547 [MHz]
  Nuclear repulsion =    0.529177208590000

  Charge       = 1
  Multiplicity = 2
  Electrons    = 1
  Nalpha       = 1
  Nbeta        = 0

  ==> Algorithm <==

  SCF Algorithm Type is PK.
  DIIS enabled.
  MOM disabled.
  Fractional occupation disabled.
  Guess Type is GWH.
  Energy threshold   = 1.00e-06
  Density threshold  = 1.00e-08
  Integral threshold = 0.00e+00

  ==> Primary Basis <==

  Basis Set: AUG-CC-PVDZ
    Blend: AUG-CC-PVDZ
    Number of shells: 10
    Number of basis function: 18
    Number of Cartesian functions: 18
    Spherical Harmonics?: true
    Max angular momentum: 1

  ==> Pre-Iterations <==

   -------------------------------------------------------
    Irrep   Nso     Nmo     Nalpha   Nbeta   Ndocc  Nsocc
   -------------------------------------------------------
     Ag         5       5       0       0       0       0
     B1g        0       0       0       0       0       0
     B2g        2       2       0       0       0       0
     B3g        2       2       0       0       0       0
     Au         0       0       0       0       0       0
     B1u        5       5       0       0       0       0
     B2u        2       2       0       0       0       0
     B3u        2       2       0       0       0       0
   -------------------------------------------------------
    Total      18      18       1       0       0       1
   -------------------------------------------------------

  ==> Integral Setup <==

  Using in-core PK algorithm.
   Calculation information:
      Number of atoms:                   2
      Number of AO shells:              10
      Number of primitives:             14
      Number of atomic orbitals:        18
      Number of basis functions:        18

      Integral cutoff                 1.00e-12
      Number of threads:                 1

  Performing in-core PK
  Using 29412 doubles for integral storage.
  We computed 1540 shell quartets total.
  Whereas there are 1540 unique shell quartets.
  ==> DiskJK: Disk-Based J/K Matrices <==

    J tasked:                  Yes
    K tasked:                  Yes
    wK tasked:                  No
    Memory (MB):               375
    Schwarz Cutoff:          1E-12

    OpenMP threads:              1
  Minimum eigenvalue in the overlap matrix is 9.7466083436E-04.
  Using Symmetric Orthogonalization.

  SCF Guess: Generalized Wolfsberg-Helmholtz.

  ==> Iterations <==

                        Total Energy        Delta E     RMS |[F,P]|

   @ROHF iter   1:    -0.48172430832923   -4.81724e-01   3.83472e-02 
   @ROHF iter   2:    -0.59742352343515   -1.15699e-01   7.21981e-03 DIIS
   @ROHF iter   3:    -0.60046610670566   -3.04258e-03   5.31051e-04 DIIS
   @ROHF iter   4:    -0.60048045767340   -1.43510e-05   3.46275e-05 DIIS
   @ROHF iter   5:    -0.60048054290977   -8.52364e-08   6.16960e-06 DIIS
   @ROHF iter   6:    -0.60048054558142   -2.67165e-09   9.58542e-07 DIIS
   @ROHF iter   7:    -0.60048054565798   -7.65548e-11   4.91506e-10 DIIS

  ==> Post-Iterations <==

    Orbital Energies (a.u.)
    -----------------------

    Doubly Occupied:                                                      

    

    Singly Occupied:                                                      

       1Ag    -0.790572  

    Virtual:                                                              

       1B1u   -0.216423     2Ag    -0.126272     2B1u   -0.055362  
       1B2u   -0.054016     1B3u   -0.054016     3Ag     0.117792  
       1B2g    0.148754     1B3g    0.148754     3B1u    0.331691  
       4Ag     0.372161     4B1u    0.474989     2B2u    1.138363  
       2B3u    1.138363     5Ag     1.336100     2B2g    1.595689  
       2B3g    1.595689     5B1u    2.345565  

    Final Occupation by Irrep:
             Ag   B1g   B2g   B3g    Au   B1u   B2u   B3u 
    DOCC [     0,    0,    0,    0,    0,    0,    0,    0 ]
    SOCC [     1,    0,    0,    0,    0,    0,    0,    0 ]

  Energy converged.

  @ROHF Final Energy:    -0.60048054565798

   => Energetics <=

    Nuclear Repulsion Energy =              0.5291772085899999
    One-Electron Energy =                  -1.1296577542479771
    Two-Electron Energy =                   0.0000000000000001
    Total Energy =                         -0.6004805456579770



Properties will be evaluated at   0.000000,   0.000000,   0.000000 Bohr

Properties computed using the SCF density matrix

  Nuclear Dipole Moment: (a.u.)
     X:     0.0000      Y:     0.0000      Z:     0.0000

  Electronic Dipole Moment: (a.u.)
     X:     0.0000      Y:     0.0000      Z:     0.0000

  Dipole Moment: (a.u.)
     X:     0.0000      Y:     0.0000      Z:     0.0000     Total:     0.0000

  Dipole Moment: (Debye)
     X:     0.0000      Y:     0.0000      Z:     0.0000     Total:     0.0000


*** tstop() called on CHE-FEVANGE-01I at Thu May 25 11:29:34 2017
Module time:
	user time   =       0.09 seconds =       0.00 minutes
	system time =       0.01 seconds =       0.00 minutes
	total time  =          1 seconds =       0.02 minutes
Total time:
	user time   =       0.09 seconds =       0.00 minutes
	system time =       0.01 seconds =       0.00 minutes
	total time  =          1 seconds =       0.02 minutes
   => Loading Basis Set <=

    Name: STO-3G
    Role: ORBITAL
    Keyword: MINAO_BASIS
    atoms 1-2 entry H          line    19 file /Users/fevange/anaconda/envs/forte/share/psi4/basis/sto-3g.gbs 


Reading options from the FORTE block
Calling plugin forte.so.




  ==> MO Space Information <==

  Read options for space FROZEN_DOCC
  Read options for space RESTRICTED_DOCC
  Read options for space ACTIVE
  -------------------------------------------------------------------------
                       Ag   B1g   B2g   B3g    Au   B1u   B2u   B3u   Sum
  -------------------------------------------------------------------------
    FROZEN_DOCC         0     0     0     0     0     0     0     0     0
    RESTRICTED_DOCC     0     0     0     0     0     0     0     0     0
    ACTIVE              1     0     0     0     0     0     0     0     1
    RESTRICTED_UOCC     4     0     2     2     0     5     2     2    17
    FROZEN_UOCC         0     0     0     0     0     0     0     0     0
    Total               5     0     2     2     0     5     2     2    18
  -------------------------------------------------------------------------

  ==> Integral Transformation <==

  Number of molecular orbitals:               18
  Number of correlated molecular orbitals:    18
  Number of frozen occupied orbitals:          0
  Number of frozen unoccupied orbitals:        0

    Molecular point group: d2h
    Full point group: D_inf_h

    Geometry (in Angstrom), charge = 1, multiplicity = 2:

       Center              X                  Y                   Z               Mass       
    ------------   -----------------  -----------------  -----------------  -----------------
           H          0.000000000000     0.000000000000    -0.500000000000     1.007825032070
           H          0.000000000000     0.000000000000     0.500000000000     1.007825032070

  -AO BASIS SET INFORMATION:
    Name                   = AUG-CC-PVDZ
    Blend                  = AUG-CC-PVDZ
    Total number of shells = 10
    Number of primitives   = 14
    Number of AO           = 18
    Number of SO           = 18
    Maximum AM             = 1
    Spherical Harmonics    = TRUE

  -Contraction Scheme:
    Atom   Type   All Primitives // Shells:
   ------ ------ --------------------------
       1     H     5s 2p // 3s 2p 
       2     H     5s 2p // 3s 2p 

  ==> AO Basis Functions <==

    [ AUG-CC-PVDZ ]
    spherical
    ****
    H   1
    S   3 1.00
                        13.01000000           0.01968500
                         1.96200000           0.13797700
                         0.44460000           0.47814800
    S   1 1.00
                         0.12200000           1.00000000
    P   1 1.00
                         0.72700000           1.00000000
    S   1 1.00
                         0.02974000           1.00000000
    P   1 1.00
                         0.14100000           1.00000000
    ****


  Overall Conventional Integrals timings

	Presorting SO-basis two-electron integrals.
	Sorting File: SO Ints (nn|nn) nbuckets = 1
	Transforming the one-electron integrals and constructing Fock matrices
	Starting first half-transformation.
	Sorting half-transformed integrals.
	First half integral transformation complete.
	Starting second half-transformation.
	Two-electron integral transformation complete.

  Integral transformation done. 0.00674800 s
  Reading the two-electron integrals from disk
  Size of two-electron integrals:   0.002346 GB
  Conventional integrals take 0.02583900 s

                -----------------------------------------------
                  String-based Full Configuration Interaction
                          by Francesco A. Evangelista
                -----------------------------------------------

  Number of electrons: 1
  Charge: 1
  Multiplicity: 2
  Davidson subspace max dim: 8
  Davidson subspace min dim: 2
  M_s: 1/2

  ==> String Lists <==

  Number of alpha electrons     = 1
  Number of beta electrons      = 0
  Number of alpha strings       = 1
  Number of beta strings        = 1
  Timing for strings        =      0.000 s
  Timing for NN strings     =      0.000 s
  Timing for VO strings     =      0.000 s
  Timing for OO strings     =      0.000 s
  Timing for Knowles-Handy  =      0.000 s
  Timing for VVOO strings   =      0.000 s
  Timing for VOVO strings   =      0.000 s
  Timing for 1-hole strings =      0.000 s
  Timing for 2-hole strings =      0.000 s
  Timing for 3-hole strings =      0.000 s
  Total timing              =      0.000 s

  ==> FCI Solver <==

    Number of determinants                           1
    Symmetry                                         0
    Multiplicity                                     2
    Number of roots                                  1
    Target root                                      0
    Trial vectors per root                          10

  Allocating memory for the Hamiltonian algorithm. Size: 2 x 1 x 1.   Memory: 0.000000 GB

  ==> FCI Initial Guess <==

  ---------------------------------------------
    Root            Energy     <S^2>   Spin
  ---------------------------------------------
      0       -0.600480545658  0.750  doublet
  ---------------------------------------------
  Timing for initial guess  =      0.000 s

  ==> Diagonalizing Hamiltonian <==

  ----------------------------------------
    Iter.      Avg. Energy       Delta_E
  ----------------------------------------
      1       -0.600480545658  -6.005e-01
  ----------------------------------------
  The Davidson-Liu algorithm converged in 2 iterations.

  ==> Root No. 0 <==

    a      1.00000000

    Total Energy:        -0.600480545657978

  ==> Computing RDMs for Root No. 0 <==

    Timing for 1-RDM: 0.000 s

  ==> NATURAL ORBITALS <==

        1Ag     1.000000  


  Your calculation took 0.03006900 seconds

*** Psi4 exiting successfully. Buy a developer a beer!
