
    -----------------------------------------------------------------------
          Psi4: An Open-Source Ab Initio Electronic Structure Package
                               Psi4 1.3a1.dev284 

                         Git: Rev {master} 17a6314 dirty


    R. M. Parrish, L. A. Burns, D. G. A. Smith, A. C. Simmonett,
    A. E. DePrince III, E. G. Hohenstein, U. Bozkaya, A. Yu. Sokolov,
    R. Di Remigio, R. M. Richard, J. F. Gonthier, A. M. James,
    H. R. McAlexander, A. Kumar, M. Saitow, X. Wang, B. P. Pritchard,
    P. Verma, H. F. Schaefer III, K. Patkowski, R. A. King, E. F. Valeev,
    F. A. Evangelista, J. M. Turney, T. D. Crawford, and C. D. Sherrill,
    J. Chem. Theory Comput. 13(7) pp 3185--3197 (2017).
    (doi: 10.1021/acs.jctc.7b00174)


                         Additional Contributions by
    P. Kraus, H. Kruse, M. H. Lechner, M. C. Schieber, and R. A. Shaw

    -----------------------------------------------------------------------


    Psi4 started on: Friday, 31 August 2018 05:27PM

    Process ID: 43343
    Host:       tianyuans-air.wireless.emory.edu
    PSIDATADIR: /Users/tianyuanzhang/Documents/Source/psi4_2018/psi4-bin-clang-debug/share/psi4
    Memory:     500.0 MiB
    Threads:    1
    
  ==> Input File <==

--------------------------------------------------------------------------
#! This tests the Adaptive Path-Integral FCI procedure with no prescreening
#! Generated using commit GITCOMMIT

import forte

molecule li2{
   Li
   Li 1 2.0000
}

set {
  basis sto-3g
  scf_type pk
  e_convergence 12
}

set forte {
  job_type test_ambit
}
energy('forte')
compare_values(0.0, get_variable("AMBIT MAX ERROR"), 10, "Ambit max error") #TEST
--------------------------------------------------------------------------

*** tstart() called on tianyuans-air.wireless.emory.edu
*** at Fri Aug 31 17:27:27 2018

   => Loading Basis Set <=

    Name: STO-3G
    Role: ORBITAL
    Keyword: BASIS
    atoms 1-2 entry LI         line    31 file /Users/tianyuanzhang/Documents/Source/psi4_2018/psi4-bin-clang-debug/share/psi4/basis/sto-3g.gbs 


         ---------------------------------------------------------
                                   SCF
            by Justin Turney, Rob Parrish, Andy Simmonett
                             and Daniel Smith
                              RHF Reference
                        1 Threads,    500 MiB Core
         ---------------------------------------------------------

  ==> Geometry <==

    Molecular point group: d2h
    Full point group: D_inf_h

    Geometry (in Angstrom), charge = 0, multiplicity = 1:

       Center              X                  Y                   Z               Mass       
    ------------   -----------------  -----------------  -----------------  -----------------
         LI           0.000000000000     0.000000000000    -1.000000000000     7.016004548000
         LI           0.000000000000     0.000000000000     1.000000000000     7.016004548000

  Running in d2h symmetry.

  Rotational constants: A = ************  B =      1.20137  C =      1.20137 [cm^-1]
  Rotational constants: A = ************  B =  36016.15432  C =  36016.15432 [MHz]
  Nuclear repulsion =    2.381297438654999

  Charge       = 0
  Multiplicity = 1
  Electrons    = 6
  Nalpha       = 3
  Nbeta        = 3

  ==> Algorithm <==

  SCF Algorithm Type is PK.
  DIIS enabled.
  MOM disabled.
  Fractional occupation disabled.
  Guess Type is SAD.
  Energy threshold   = 1.00e-12
  Density threshold  = 1.00e-08
  Integral threshold = 0.00e+00

  ==> Primary Basis <==

  Basis Set: STO-3G
    Blend: STO-3G
    Number of shells: 6
    Number of basis function: 10
    Number of Cartesian functions: 10
    Spherical Harmonics?: true
    Max angular momentum: 1

  ==> Pre-Iterations <==

   -------------------------------------------------------
    Irrep   Nso     Nmo     Nalpha   Nbeta   Ndocc  Nsocc
   -------------------------------------------------------
     Ag         3       3       0       0       0       0
     B1g        0       0       0       0       0       0
     B2g        1       1       0       0       0       0
     B3g        1       1       0       0       0       0
     Au         0       0       0       0       0       0
     B1u        3       3       0       0       0       0
     B2u        1       1       0       0       0       0
     B3u        1       1       0       0       0       0
   -------------------------------------------------------
    Total      10      10       3       3       3       0
   -------------------------------------------------------

  ==> Integral Setup <==

  Using in-core PK algorithm.
   Calculation information:
      Number of atoms:                   2
      Number of AO shells:               6
      Number of primitives:             18
      Number of atomic orbitals:        10
      Number of basis functions:        10

      Integral cutoff                 1.00e-12
      Number of threads:                 1

  Performing in-core PK
  Using 3080 doubles for integral storage.
  We computed 231 shell quartets total.
  Whereas there are 231 unique shell quartets.

  ==> DiskJK: Disk-Based J/K Matrices <==

    J tasked:                  Yes
    K tasked:                  Yes
    wK tasked:                  No
    Memory (MB):               375
    Schwarz Cutoff:          1E-12

    OpenMP threads:              1

  Minimum eigenvalue in the overlap matrix is 4.0289193593E-02.
  Using Symmetric Orthogonalization.

  SCF Guess: Superposition of Atomic Densities via on-the-fly atomic UHF.

  ==> Iterations <==

                        Total Energy        Delta E     RMS |[F,P]|

   @RHF iter   0:   -14.58573852603513   -1.45857e+01   6.38128e-02 
   @RHF iter   1:   -14.60879129784490   -2.30528e-02   3.90853e-03 
   @RHF iter   2:   -14.60956780431854   -7.76506e-04   1.49380e-03 DIIS
   @RHF iter   3:   -14.60974068519981   -1.72881e-04   2.15662e-04 DIIS
   @RHF iter   4:   -14.60974473694129   -4.05174e-06   4.32612e-06 DIIS
   @RHF iter   5:   -14.60974473887197   -1.93068e-09   1.41353e-07 DIIS
   @RHF iter   6:   -14.60974473887410   -2.12808e-12   3.63226e-09 DIIS
   @RHF iter   7:   -14.60974473887410   -5.32907e-15   1.73385e-11 DIIS
  Energy converged.


  ==> Post-Iterations <==

    Orbital Energies [Eh]
    ---------------------

    Doubly Occupied:                                                      

       1Ag    -2.340313     1B1u   -2.335347     2Ag    -0.163839  

    Virtual:                                                              

       2B1u    0.093646     1B2u    0.108933     1B3u    0.108933  
       3Ag     0.176245     1B2g    0.275579     1B3g    0.275579  
       3B1u    0.645556  

    Final Occupation by Irrep:
             Ag   B1g   B2g   B3g    Au   B1u   B2u   B3u 
    DOCC [     2,    0,    0,    0,    0,    1,    0,    0 ]

  @RHF Final Energy:   -14.60974473887410

   => Energetics <=

    Nuclear Repulsion Energy =              2.3812974386549994
    One-Electron Energy =                 -24.3030864505908895
    Two-Electron Energy =                   7.3120442730617867
    Total Energy =                        -14.6097447388741024

Computation Completed


Properties will be evaluated at   0.000000,   0.000000,   0.000000 [a0]

Properties computed using the SCF density matrix

  Nuclear Dipole Moment: [e a0]
     X:     0.0000      Y:     0.0000      Z:     0.0000

  Electronic Dipole Moment: [e a0]
     X:     0.0000      Y:     0.0000      Z:     0.0000

  Dipole Moment: [e a0]
     X:     0.0000      Y:     0.0000      Z:     0.0000     Total:     0.0000

  Dipole Moment: [D]
     X:     0.0000      Y:     0.0000      Z:     0.0000     Total:     0.0000


*** tstop() called on tianyuans-air.wireless.emory.edu at Fri Aug 31 17:27:27 2018
Module time:
	user time   =       0.54 seconds =       0.01 minutes
	system time =       0.02 seconds =       0.00 minutes
	total time  =          0 seconds =       0.00 minutes
Total time:
	user time   =       0.54 seconds =       0.01 minutes
	system time =       0.02 seconds =       0.00 minutes
	total time  =          0 seconds =       0.00 minutes
   => Loading Basis Set <=

    Name: STO-3G
    Role: ORBITAL
    Keyword: MINAO_BASIS
    atoms 1-2 entry LI         line    31 file /Users/tianyuanzhang/Documents/Source/psi4_2018/psi4-bin-clang-debug/share/psi4/basis/sto-3g.gbs 


Reading options from the FORTE block
Calling plugin forte.so.



  Forte
  ----------------------------------------------------------------------------
  A suite of quantum chemistry methods for strongly correlated electrons

    git branch: test_ambit - git commit: 97fcfe31

  Developed by:
    Francesco A. Evangelista, Chenyang Li, Kevin P. Hannon,
    Jeffrey B. Schriber, Tianyuan Zhang, Chenxi Cai
  ----------------------------------------------------------------------------

  Size of Determinant class: 16

  ==> MO Space Information <==

  -------------------------------------------------------------------------
                       Ag   B1g   B2g   B3g    Au   B1u   B2u   B3u   Sum
  -------------------------------------------------------------------------
    FROZEN_DOCC         0     0     0     0     0     0     0     0     0
    RESTRICTED_DOCC     0     0     0     0     0     0     0     0     0
    ACTIVE              3     0     1     1     0     3     1     1    10
    RESTRICTED_UOCC     0     0     0     0     0     0     0     0     0
    FROZEN_UOCC         0     0     0     0     0     0     0     0     0
    Total               3     0     1     1     0     3     1     1    10
  -------------------------------------------------------------------------

  ==> Integral Transformation <==

  Number of molecular orbitals:                    10
  Number of correlated molecular orbitals:         10
  Number of frozen occupied orbitals:               0
  Number of frozen unoccupied orbitals:             0
  Two-electron integral type:              Conventional


  Overall Conventional Integrals timings

	Presorting SO-basis two-electron integrals.
	Sorting File: SO Ints (nn|nn) nbuckets = 1
	Transforming the one-electron integrals and constructing Fock matrices
	Starting first half-transformation.
	Sorting half-transformed integrals.
	First half integral transformation complete.
	Starting second half-transformation.
	Two-electron integral transformation complete.

  Integral transformation done. 0.01141517 s
  Reading the two-electron integrals from disk
  Size of two-electron integrals:   0.000224 GB
  Timing for freezing core and virtual orbitals:              0.000 s.
  Conventional integrals take 0.05935755 s

==> TEST AMBIT <==

 Description                                          Max. error Result
 -----------------------------------------------------------------------------------
 8 permutations of C("ij") += A("ik") * B("kj")               8.881784e-16 Passed
 C("ij") = 2.0 * A("ij")                                      0.000000e+00 Passed
 C("ij") += 2.0 * A("ij")                                     0.000000e+00 Passed
 C("ij") -= 2.0 * A("ij")                                     0.000000e+00 Passed
 C("ij") *= 2.0                                               0.000000e+00 Passed
 C("ij") /= 2.0                                               0.000000e+00 Passed
 C("ij") = A("ik") * B("kj")                                  4.440892e-16 Passed
 C("ij") = A("ik") * B("jk")                                  4.440892e-16 Passed
 C("ij") += A("ik") * B("kj")                                 4.440892e-16 Passed
 C("ij") -= A("ik") * B("kj")                                 4.440892e-16 Passed
 C("ijkl") += A("ijab") * B("klab")                           7.105427e-15 Passed
 C("ij") += A("iabc") * B("jabc")                             1.278977e-13 Passed
 C("ikjl") += A("ijab") * B("klab")                           7.105427e-15 Passed
 C("ij") = A("ji")                                            0.000000e+00 Passed
 C("ijkl") = A("kilj")                                        0.000000e+00 Passed
 C("ijkl") = A("kijl")                                        0.000000e+00 Passed
 C("ij") = C("ji") exception expected                         0.000000e+00 Exception
 C("ilkj") += A("ibaj") * B("blak")                           8.881784e-15 Passed
 C("ljik") += A("bija") * B("lbak")                           1.065814e-14 Passed
 C("ij") -= A("ij") * B("ij")                                 0.000000e+00 Passed
 D("ij") += A("ij") * B("ij") * C("ij")                       0.000000e+00 Passed
 E("abcd") += A("ijab") * B("klcd") * C("jl") * D("ik")       1.080025e-12 Passed
 C("ij") = A("ij") + B("ij")                                  0.000000e+00 Passed
 D("ij") = A("ij") + B("ij") + C("ij")                        0.000000e+00 Passed
 C("ij") = A("ij") - 5.0 * B("ij")                            0.000000e+00 Passed
 D("ij") = A("ij") - B("ij") + 2.0 * C("ij")                  0.000000e+00 Passed
 D("ij") = A("ij") * (2.0 * B("ij") - C("ij"))                0.000000e+00 Passed
 D("ij") = (2.0 * B("ij") - C("ij")) * A("ij")                0.000000e+00 Passed
 F("ij") = D("kl") * (2.0 * g("ijkl") - g("ikjl"))            2.842171e-14 Passed
 C("ij") = 2.0 * (A("ij") - B("ij"))                          0.000000e+00 Passed
 C("ij") = - (A("ij") - B("ij"))                              0.000000e+00 Passed
 Diagonalization (not confirmed)                              0.000000e+00 Passed
 Diagonalization (not confirmed)                              0.000000e+00 Passed
 C^(-1/2) (not confirmed)                                     0.000000e+00 Passed
 double = A("ij")" * B("ij")                                  3.552714e-15 Passed
 double = A("ij") * B("ik") exception expected                0.000000e+00 Exception
 double = A("ij") * B("ij") exception expected                0.000000e+00 Exception
 double D = A("i,j") * (B("i,j") + C("i,j"))                  7.105427e-15 Passed
 double D = A("i,j") * B("j,k") * C("k,i")                    1.421085e-14 Passed
 double D = A("i,j") * B("j,k,l,m") * C("m,l,k,i")            2.273737e-12 Passed
 D("ij") = B("ik") * C("kl") * A("lj")                        8.881784e-16 Passed
 D4("ijkl") = A4("ijmn") * B2("km") * C2("ln")                3.552714e-15 Passed
 D4("ijkl") += A4("ijmn") * B2("km") * C2("ln")               3.552714e-15 Passed
 D4("ijkl") -= A4("ijmn") * B2("km") * C2("ln")               3.552714e-15 Passed
 Slice C2(1:5,0:4) = A2(0:4,2:6)                              0.000000e+00 Passed
 C("ijkl") += batched("j",A("ijab") * B("klab"))              1.776357e-15 Passed
 D4("ijkl") = batched("i",A4("ijmn") * B2("km") * C2("ln"))   3.552714e-15 Passed
 D4("ijkl") += batched("j",A4("ijmn") * B2("km") * C2("ln"))  3.552714e-15 Passed
 D4("ijkl") -= batched("kl",A4("ijmn") * B2("km") * C2("ln")) 3.552714e-15 Passed
 D4("ijkl") += batched("ijkl", A4("ijmn") * B2("km") * B2("ln")) 3.552714e-15 Passed
 C2("ijrs") = batched("r", 0.5 * A("abrs") * B("ijab"))       0.000000e+00 Passed
 C2("ijrs") = batched("r", 0.5 * A("abrs") * B("ijba"))       8.881784e-16 Passed
 -----------------------------------------------------------------------------------
 Tests: All passed
	Ambit max error...................................................PASSED

    Psi4 stopped on: Friday, 31 August 2018 05:27PM
    Psi4 wall time for execution: 0:00:01.19

*** Psi4 exiting successfully. Buy a developer a beer!
