
    -----------------------------------------------------------------------
          Psi4: An Open-Source Ab Initio Electronic Structure Package
                               Psi4 undefined 

                         Git: Rev {master} 45315cb dirty


    R. M. Parrish, L. A. Burns, D. G. A. Smith, A. C. Simmonett,
    A. E. DePrince III, E. G. Hohenstein, U. Bozkaya, A. Yu. Sokolov,
    R. Di Remigio, R. M. Richard, J. F. Gonthier, A. M. James,
    H. R. McAlexander, A. Kumar, M. Saitow, X. Wang, B. P. Pritchard,
    P. Verma, H. F. Schaefer III, K. Patkowski, R. A. King, E. F. Valeev,
    F. A. Evangelista, J. M. Turney, T. D. Crawford, and C. D. Sherrill,
    J. Chem. Theory Comput. 13(7) pp 3185--3197 (2017).
    (doi: 10.1021/acs.jctc.7b00174)


                         Additional Contributions by
    P. Kraus, H. Kruse, M. H. Lechner, M. C. Schieber, R. A. Shaw,
    A. Alenaizan, R. Galvelis, Z. L. Glick, S. Lehtola, and J. P. Misiewicz

    -----------------------------------------------------------------------


    Psi4 started on: Sunday, 09 August 2020 10:22PM

    Process ID: 20043
    Host:       DESKTOP-SQPD2D3
    PSIDATADIR: /home/mhuang/psi4_install/share/psi4
    Memory:     500.0 MiB
    Threads:    1
    
  ==> Input File <==

--------------------------------------------------------------------------
#! Generated using commit GITCOMMIT 
# GASSCF calculation 

import forte

refgasscf = -76.073064961664 #TEST 

memory 6000mb
#! 6-31G** H2O Test RASSCF Energy Point
##! will default to only singles and doubles in the active space
molecule h2o{
   O
   H  1 1.00
   H  1 1.00 2 103.1
      }

set global {
  basis 6-31g**
  e_convergence 10
  d_convergence 10
  r_convergence 10
  guess gwh
  scf_type pk
  reference rhf
}

set scf_type direct
set forte {
  active_space_solver aci
  ms 0.0
  multiplicity 1
  sigma 0.000
  nroot 1
  root_sym 0
  charge 0
  sci_enforce_spin_complete true
  e_convergence 6
  charge 0
  active_ref_type gas
  GAS1 [2,0,1,1]
  GAS2 [1,0,0,1]
  restricted_docc [1,0,0,0]
  restricted_uocc [8,2,3,5]
  GAS1MIN 6
  GAS2MAX 2
  job_type casscf
  casscf_ci_solver aci
  casscf_maxiter 200
  casscf_e_convergence 1e-10
}

escf ,wfn = energy('scf',return_wfn = True)
egasscf = energy('forte',ref_wfn = wfn)
compare_values(refgasscf, egasscf ,9, "GASSCF energy") #TEST

--------------------------------------------------------------------------

  Memory set to   5.588 GiB by Python driver.

*** tstart() called on DESKTOP-SQPD2D3
*** at Sun Aug  9 22:22:13 2020

   => Loading Basis Set <=

    Name: 6-31G**
    Role: ORBITAL
    Keyword: BASIS
    atoms 1   entry O          line   149 file /home/mhuang/psi4_install/share/psi4/basis/6-31gss.gbs 
    atoms 2-3 entry H          line    44 file /home/mhuang/psi4_install/share/psi4/basis/6-31gss.gbs 


         ---------------------------------------------------------
                                   SCF
               by Justin Turney, Rob Parrish, Andy Simmonett
                          and Daniel G. A. Smith
                              RHF Reference
                        1 Threads,   5722 MiB Core
         ---------------------------------------------------------

  ==> Geometry <==

    Molecular point group: c2v
    Full point group: C2v

    Geometry (in Angstrom), charge = 0, multiplicity = 1:

       Center              X                  Y                   Z               Mass       
    ------------   -----------------  -----------------  -----------------  -----------------
         O            0.000000000000     0.000000000000    -0.069592187400    15.994914619570
         H            0.000000000000    -0.783151105291     0.552239257834     1.007825032230
         H            0.000000000000     0.783151105291     0.552239257834     1.007825032230

  Running in c2v symmetry.

  Rotational constants: A =     24.35462  B =     13.63610  C =      8.74166 [cm^-1]
  Rotational constants: A = 730133.21529  B = 408800.04239  C = 262068.46393 [MHz]
  Nuclear repulsion =    8.804686653247025

  Charge       = 0
  Multiplicity = 1
  Electrons    = 10
  Nalpha       = 5
  Nbeta        = 5

  ==> Algorithm <==

  SCF Algorithm Type is DIRECT.
  DIIS enabled.
  MOM disabled.
  Fractional occupation disabled.
  Guess Type is GWH.
  Energy threshold   = 1.00e-10
  Density threshold  = 1.00e-10
  Integral threshold = 0.00e+00

  ==> Primary Basis <==

  Basis Set: 6-31G**
    Blend: 6-31G**
    Number of shells: 12
    Number of basis function: 25
    Number of Cartesian functions: 25
    Spherical Harmonics?: false
    Max angular momentum: 2

   => Loading Basis Set <=

    Name: (6-31G** AUX)
    Role: JKFIT
    Keyword: DF_BASIS_SCF
    atoms 1   entry O          line   221 file /home/mhuang/psi4_install/share/psi4/basis/cc-pvdz-jkfit.gbs 
    atoms 2-3 entry H          line    51 file /home/mhuang/psi4_install/share/psi4/basis/cc-pvdz-jkfit.gbs 

  Starting with a DF guess...

  ==> Pre-Iterations <==

   -------------------------------------------------------
    Irrep   Nso     Nmo     Nalpha   Nbeta   Ndocc  Nsocc
   -------------------------------------------------------
     A1        12      12       0       0       0       0
     A2         2       2       0       0       0       0
     B1         4       4       0       0       0       0
     B2         7       7       0       0       0       0
   -------------------------------------------------------
    Total      25      25       5       5       5       0
   -------------------------------------------------------

  ==> Integral Setup <==

  DFHelper Memory: AOs need 0.001 GiB; user supplied 4.191 GiB. Using in-core AOs.

  ==> MemDFJK: Density-Fitted J/K Matrices <==

    J tasked:                   Yes
    K tasked:                   Yes
    wK tasked:                   No
    OpenMP threads:               1
    Memory [MiB]:              4291
    Algorithm:                 Core
    Schwarz Cutoff:           1E-12
    Mask sparsity (%):       0.0000
    Fitting Condition:        1E-10

   => Auxiliary Basis Set <=

  Basis Set: (6-31G** AUX)
    Blend: CC-PVDZ-JKFIT
    Number of shells: 42
    Number of basis function: 131
    Number of Cartesian functions: 131
    Spherical Harmonics?: false
    Max angular momentum: 3

  Minimum eigenvalue in the overlap matrix is 2.3361254379E-02.
  Using Symmetric Orthogonalization.

  SCF Guess: Generalized Wolfsberg-Helmholtz.

  ==> Iterations <==

                           Total Energy        Delta E     RMS |[F,P]|

   @DF-RHF iter   1:   -74.69502194331288   -7.46950e+01   1.19380e-01 DIIS
   @DF-RHF iter   2:   -75.63883488360054   -9.43813e-01   7.21524e-02 DIIS
   @DF-RHF iter   3:   -76.01065330024157   -3.71818e-01   7.66497e-03 DIIS
   @DF-RHF iter   4:   -76.01705150838731   -6.39821e-03   1.07848e-03 DIIS
   @DF-RHF iter   5:   -76.01724771497869   -1.96207e-04   2.45196e-04 DIIS
   @DF-RHF iter   6:   -76.01725930217495   -1.15872e-05   5.17439e-05 DIIS
   @DF-RHF iter   7:   -76.01725996692429   -6.64749e-07   8.86755e-06 DIIS
   @DF-RHF iter   8:   -76.01725998300749   -1.60832e-08   1.68546e-06 DIIS
   @DF-RHF iter   9:   -76.01725998411105   -1.10356e-09   3.99731e-07 DIIS
   @DF-RHF iter  10:   -76.01725998416187   -5.08180e-11   4.32937e-08 DIIS
   @DF-RHF iter  11:   -76.01725998416215   -2.84217e-13   4.33252e-09 DIIS
   @DF-RHF iter  12:   -76.01725998416219   -4.26326e-14   4.75419e-10 DIIS
   @DF-RHF iter  13:   -76.01725998416219    0.00000e+00   4.32052e-11 DIIS

  DF guess converged.

  ==> DirectJK: Integral-Direct J/K Matrices <==

    J tasked:                  Yes
    K tasked:                  Yes
    wK tasked:                  No
    Integrals threads:           1
    Schwarz Cutoff:          1E-12

   @RHF iter  14:   -76.01729654450098   -7.60173e+01   1.19915e-05 DIIS
   @RHF iter  15:   -76.01729655577871   -1.12777e-08   1.64017e-06 DIIS
   @RHF iter  16:   -76.01729655606735   -2.88637e-10   4.89639e-07 DIIS
   @RHF iter  17:   -76.01729655608835   -2.10036e-11   1.68507e-07 DIIS
   @RHF iter  18:   -76.01729655609128   -2.92744e-12   4.58642e-08 DIIS
   @RHF iter  19:   -76.01729655609157   -2.84217e-13   5.21060e-09 DIIS
   @RHF iter  20:   -76.01729655609157    0.00000e+00   7.84812e-10 DIIS
   @RHF iter  21:   -76.01729655609158   -1.42109e-14   1.27029e-10 DIIS
   @RHF iter  22:   -76.01729655609158    0.00000e+00   2.82298e-11 DIIS
  Energy and wave function converged.


  ==> Post-Iterations <==

    Orbital Energies [Eh]
    ---------------------

    Doubly Occupied:                                                      

       1A1   -20.569000     2A1    -1.320609     1B2    -0.678724  
       3A1    -0.563930     1B1    -0.495004  

    Virtual:                                                              

       4A1     0.202466     2B2     0.292719     3B2     0.981164  
       5A1     1.056318     6A1     1.129179     2B1     1.168639  
       4B2     1.294985     7A1     1.413596     1A2     1.802875  
       8A1     1.806916     3B1     1.918871     9A1     2.513249  
       5B2     2.537822     6B2     2.713577     2A2     2.921065  
       4B1     2.947486    10A1     3.291755    11A1     3.620730  
       7B2     3.874917    12A1     4.077740  

    Final Occupation by Irrep:
             A1    A2    B1    B2 
    DOCC [     3,    0,    1,    1 ]

  @RHF Final Energy:   -76.01729655609158

   => Energetics <=

    Nuclear Repulsion Energy =              8.8046866532470247
    One-Electron Energy =                -122.3894315645718791
    Two-Electron Energy =                  37.5674483552332887
    Total Energy =                        -76.0172965560915657

Computation Completed


Properties will be evaluated at   0.000000,   0.000000,   0.000000 [a0]

Properties computed using the SCF density matrix

  Nuclear Dipole Moment: [e a0]
     X:     0.0000      Y:     0.0000      Z:     1.0351

  Electronic Dipole Moment: [e a0]
     X:     0.0000      Y:     0.0000      Z:    -0.1532

  Dipole Moment: [e a0]
     X:     0.0000      Y:     0.0000      Z:     0.8819     Total:     0.8819

  Dipole Moment: [D]
     X:     0.0000      Y:     0.0000      Z:     2.2414     Total:     2.2414


*** tstop() called on DESKTOP-SQPD2D3 at Sun Aug  9 22:22:14 2020
Module time:
	user time   =       0.61 seconds =       0.01 minutes
	system time =       0.17 seconds =       0.00 minutes
	total time  =          1 seconds =       0.02 minutes
Total time:
	user time   =       0.61 seconds =       0.01 minutes
	system time =       0.17 seconds =       0.00 minutes
	total time  =          1 seconds =       0.02 minutes

  Forte
  ----------------------------------------------------------------------------
  A suite of quantum chemistry methods for strongly correlated electrons

    git branch: gas-ci - git commit: f338f0a6

  Developed by:
    Francesco A. Evangelista, Chenyang Li, Kevin P. Hannon,
    Jeffrey B. Schriber, Tianyuan Zhang, Chenxi Cai,
    Nan He, Nicholas Stair, Shuhe Wang, Renke Huang
  ----------------------------------------------------------------------------

  Size of Determinant class: 128 bits
  Preparing forte objects from a psi4 Wavefunction object   => Loading Basis Set <=

    Name: STO-3G
    Role: ORBITAL
    Keyword: MINAO_BASIS
    atoms 1   entry O          line    81 file /home/mhuang/psi4_install/share/psi4/basis/sto-3g.gbs 
    atoms 2-3 entry H          line    19 file /home/mhuang/psi4_install/share/psi4/basis/sto-3g.gbs 


  Read options for space RESTRICTED_DOCC
  Read options for space GAS1
  Read options for space GAS2
  Read options for space RESTRICTED_UOCC
  Read options for space GAS1
  Read options for space GAS2
  Read options for space RESTRICTED_DOCC
  Read options for space RESTRICTED_UOCC

  ==> MO Space Information <==

  -------------------------------------------------
                       A1    A2    B1    B2   Sum
  -------------------------------------------------
    FROZEN_DOCC         0     0     0     0     0
    RESTRICTED_DOCC     1     0     0     0     1
    GAS1                2     0     1     1     4
    GAS2                1     0     0     1     2
    GAS3                0     0     0     0     0
    GAS4                0     0     0     0     0
    GAS5                0     0     0     0     0
    GAS6                0     0     0     0     0
    RESTRICTED_UOCC     8     2     3     5    18
    FROZEN_UOCC         0     0     0     0     0
    Total              12     2     4     7    25
  -------------------------------------------------
  Forte will use psi4 integrals

  ==> Integral Transformation <==

  Number of molecular orbitals:                    25
  Number of correlated molecular orbitals:         25
  Number of frozen occupied orbitals:               0
  Number of frozen unoccupied orbitals:             0
  Two-electron integral type:              Conventional


  Overall Conventional Integrals timings


  Computing Conventional Integrals	Presorting SO-basis two-electron integrals.
	Sorting File: SO Ints (nn|nn) nbuckets = 1
	Transforming the one-electron integrals and constructing Fock matrices
	Starting first half-transformation.
	Sorting half-transformed integrals.
	First half integral transformation complete.
	Starting second half-transformation.
	Two-electron integral transformation complete.

  Integral transformation done. 0.07449350 s
  Reading the two-electron integrals from disk
  Size of two-electron integrals:   0.008731 GB
  Timing for conventional integral transformation:            0.175 s.
  Timing for freezing core and virtual orbitals:              0.000 s.
  Conventional integrals take 0.17511420 s

                -----------------------------------------------
                  Complete Active Space Self Consistent Field
                                 Kevin Hannon
                -----------------------------------------------
  Using in-core PK algorithm.
   Calculation information:
      Number of atoms:                   3
      Number of AO shells:              12
      Number of primitives:             25
      Number of atomic orbitals:        25
      Number of basis functions:        25

      Integral cutoff                 1.00e-12
      Number of threads:                 1

  Performing in-core PK
  Using 105950 doubles for integral storage.
  We computed 3081 shell quartets total.
  Whereas there are 3081 unique shell quartets.


    JK takes 0.04690 s

  ==> CASSCF Iteration <==

  iter    ||g||           Delta_E            E_CASSCF       CONV_TYPE

  Transform Integrals takes 0.00922330 s.

  Performing a CAS with ACI

  ==> Summary of Active Space Solver Input <==

    Irrep.  Multi.(2ms)      N
    --------------------------
       A1      1  (  0)      1
    --------------------------
    N: number of roots
    ms: spin z component
    Total number of roots:   1
    --------------------------


-------------------------------------------------------------------------------
               Selected Configuration Interaction Excited States
  written by Jeffrey B. Schriber, Tianyuan Zhang and Francesco A. Evangelista
-------------------------------------------------------------------------------

  ==> Reference Information <==

  ==> Calculation Information <==

  -----------------------------------------------------------------
    Multiplicity                             1    
    Symmetry                                 0    
    Number of roots                          1    
    Ms                                       0
    Excited Algorithm                        NONE
  -----------------------------------------------------------------
  Using 1 threads
  Computing wavefunction for root 0

        ---------------------------------------------------------------
                      Adaptive Configuration Interaction
          written by Jeffrey B. Schriber and Francesco A. Evangelista
        ---------------------------------------------------------------

  ==> Reference Information <==

  There are 1 frozen orbitals.
  There are 6 active orbitals.

  ==> Calculation Information <==

  -----------------------------------------------------------------
    Multiplicity                             1    
    Symmetry                                 0    
    Number of roots                          1    
    Root used for properties                 0    
    Sigma (Eh)                               0.00e+00
    Gamma (Eh^(-1))                          1.00e+00
    Convergence threshold                    1.00e-09
    Ms                                       0
    Diagonalization algorithm                SPARSE
    Excited Algorithm                        NONE
    Project out spin contaminants            True
    Enforce spin completeness of basis       True
    Enforce complete aimed selection         True
  -----------------------------------------------------------------
  Number of active alpha electrons: 4
  Number of active beta electrons: 4
  Maximum reference space size: 1000
  The maximum number of electrons in GAS1 is 8 
  The minimum number of electrons in GAS1 is 6
  The maximum number of electrons in GAS2 is 2
  The minimum number of electrons in GAS2 is 0
  
  Possible electron occupations in the GAS 
  GAS1_A  GAS1_B  GAS2_A  GAS2_B  
     4       4       0       0    
     4       3       0       1    
     4       2       0       2    
     3       4       1       0    
     3       3       1       1    
     2       4       2       0    

  GAS Orbital Energies
  GAS   Energies    Orb 
  1  -1.320609273  0 
  1  -0.563930450  1 
  1  -0.495003944  3 
  1  -0.678724187  4 
  2   0.202465902  2 
  2   0.292719335  5 

  ---------------------------------- Cycle 0 -----------------------------------


  ==> Diagonalizing the Hamiltonian in the P space <==

  Initial P space dimension: 31
  Spin-complete dimension of the P space: 31 determinants

  ==> Computing Coupling Lists <==
  --------------------------------
        α          0.000423 s
        β          0.000391 s
        αα         0.000630 s
        ββ         0.000606 s
        αβ         0.001520 s
  --------------------------------

  Davidson-Liu solver algorithm using SigmaVectorSparseList sigma algorithm

  Performing diagonalization of the H matrix
  Time spent diagonalizing H:   0.007383 s

    P-space  CI Energy Root   0        = -76.029683013021 Eh =   0.0000 eV, S^2 = -0.000000


  ==> Finding the Q space <==

  Using SR screening algorithm
  Time spent forming F space:             0.001761
  Time spent merging thread F spaces:             0.000050
  size of hash: 0
  Time spent building sorting list: 0.000023
  Size of F space: 0
  Time spent building the model space: 0.002080
  Spin-complete dimension of the PQ space: 31

  ==> Diagonalizing the Hamiltonian in the P + Q space <==

  Number of reference roots: 1

  ==> Computing Coupling Lists <==
  --------------------------------
        α          0.000391 s
        β          0.000380 s
        αα         0.000848 s
        ββ         0.000645 s
        αβ         0.001520 s
  --------------------------------

  Davidson-Liu solver algorithm using SigmaVectorSparseList sigma algorithm

  Performing diagonalization of the H matrix
  Total time spent diagonalizing H:   0.007342 s

    PQ-space CI Energy Root   0        = -76.029683013021 Eh =   0.0000 eV, S^2 = -0.000000
    PQ-space CI Energy + EPT2 Root   0 = -76.029683013021 Eh =   0.0000 eV

  
  GAS Contribution Analysis  
  GAS contributions root 0: 
  GAS1_A    GASI_B    GAS2_A    GAS2_B        Cont  
     4         4         0         0        0.991468934  
     4         3         0         1        0.000332779  
     4         2         0         2        0.000335243  
     3         4         1         0        0.000332779  
     3         3         1         1        0.007195022  
     2         4         2         0        0.000335243  

           6                  2            0.007865507  
           7                  1            0.000665558  
           8                  0            0.991468934  


  ==> Pruning the Q space <==

  Cycle 0 took: 0.019761 s

  ---------------------------------- Cycle 1 -----------------------------------


  ==> Diagonalizing the Hamiltonian in the P space <==

  Initial P space dimension: 31
  Spin-complete dimension of the P space: 31 determinants

  ==> Computing Coupling Lists <==
  --------------------------------
        α          0.000391 s
        β          0.000375 s
        αα         0.000616 s
        ββ         0.000588 s
        αβ         0.001516 s
  --------------------------------

  Davidson-Liu solver algorithm using SigmaVectorSparseList sigma algorithm

  Performing diagonalization of the H matrix
  Time spent diagonalizing H:   0.007054 s

    P-space  CI Energy Root   0        = -76.029683013021 Eh =   0.0000 eV, S^2 = -0.000000


  ==> Finding the Q space <==

  Using SR screening algorithm
  Time spent forming F space:             0.001868
  Time spent merging thread F spaces:             0.000033
  size of hash: 0
  Time spent building sorting list: 0.000022
  Size of F space: 0
  Time spent building the model space: 0.002101
  Spin-complete dimension of the PQ space: 31

  ==> Diagonalizing the Hamiltonian in the P + Q space <==

  Number of reference roots: 1

  ==> Computing Coupling Lists <==
  --------------------------------
        α          0.000389 s
        β          0.000376 s
        αα         0.000619 s
        ββ         0.000587 s
        αβ         0.001523 s
  --------------------------------

  Davidson-Liu solver algorithm using SigmaVectorSparseList sigma algorithm

  Performing diagonalization of the H matrix
  Total time spent diagonalizing H:   0.007031 s

    PQ-space CI Energy Root   0        = -76.029683013021 Eh =   0.0000 eV, S^2 = -0.000000
    PQ-space CI Energy + EPT2 Root   0 = -76.029683013021 Eh =   0.0000 eV

  
  GAS Contribution Analysis  
  GAS contributions root 0: 
  GAS1_A    GASI_B    GAS2_A    GAS2_B        Cont  
     4         4         0         0        0.991468934  
     4         3         0         1        0.000332779  
     4         2         0         2        0.000335243  
     3         4         1         0        0.000332779  
     3         3         1         1        0.007195022  
     2         4         2         0        0.000335243  

           6                  2            0.007865507  
           7                  1            0.000665558  
           8                  0            0.991468934  

  ***** Calculation Converged *****

  ==> ACI Natural Orbitals <==


  ==> Computing Coupling Lists <==
  --------------------------------
        α          0.000714 s
        β          0.000449 s
        1B1     1.999783      1A1     1.999639      2A1     1.993312  
        1B2     1.991424      2B2     0.008564      3A1     0.007278  

  ==> Excited state solver summary <==

  Iterations required:                         1
  Dimension of optimized determinant space:    31

  * Selected-CI Energy Root   0        = -76.029683013021 Eh =   0.0000 eV
  * Selected-CI Energy Root   0 + EPT2 = -76.029683013021 Eh =   0.0000 eV

  ==> Wavefunction Information <==

  Most important contributions to root   0:
    0  -0.995725 0.991468934          30 |220220>
    1   0.047200 0.002227798          29 |220202>
    2  -0.028090 0.000789031          27 |2+-2-+>
    3  -0.028090 0.000789031          28 |2-+2+->
    4   0.026911 0.000724178          26 |202220>
    5  -0.018362 0.000337170          24 |+2-2-+>
    6  -0.018362 0.000337170          25 |-2+2+->
    7   0.018302 0.000334955          23 |222200>
    8   0.016443 0.000270374          21 |-+2220>
    9   0.016443 0.000270374          22 |+-2220>

  Saving information for root: 0

  ==> Energy Summary <==

    Multi.(2ms)  Irrep.  No.               Energy
    ---------------------------------------------
       1  (  0)    A1     0      -76.029683013021
    ---------------------------------------------
 Weight 1.000000 

  ==> Computing Coupling Lists <==
  --------------------------------
        α          0.000003 s
        β          0.000003 s
        αα         0.000003 s
        ββ         0.000003 s
        αβ         0.000003 s
  --------------------------------

  ==> Computing Coupling Lists <==
  --------------------------------
        α          0.000389 s
        β          0.000379 s
  1-RDM  took 0.001475 s (determinant)
        αα         0.000609 s
        ββ         0.000594 s
        αβ         0.001516 s
  --------------------------------
  2-RDMS took 0.003637 s (determinant)

 CAS took 0.053926 seconds.

 FormFockIntermediates took 0.00288330 s.


 FormOrbitalGradient took 0.00128560 s.

 FormDiagHessian took 0.00071250 s.

 Update function takes 0.00503050 s
    1 0.005567333414   -76.029683013021   -76.029683013021    0.1 s       ~

  Transform Integrals takes 0.00888170 s.

  Performing a CAS with ACI

  ==> Summary of Active Space Solver Input <==

    Irrep.  Multi.(2ms)      N
    --------------------------
       A1      1  (  0)      1
    --------------------------
    N: number of roots
    ms: spin z component
    Total number of roots:   1
    --------------------------


-------------------------------------------------------------------------------
               Selected Configuration Interaction Excited States
  written by Jeffrey B. Schriber, Tianyuan Zhang and Francesco A. Evangelista
-------------------------------------------------------------------------------

  ==> Reference Information <==

  ==> Calculation Information <==

  -----------------------------------------------------------------
    Multiplicity                             1    
    Symmetry                                 0    
    Number of roots                          1    
    Ms                                       0
    Excited Algorithm                        NONE
  -----------------------------------------------------------------
  Using 1 threads
  Computing wavefunction for root 0

        ---------------------------------------------------------------
                      Adaptive Configuration Interaction
          written by Jeffrey B. Schriber and Francesco A. Evangelista
        ---------------------------------------------------------------

  ==> Reference Information <==

  There are 1 frozen orbitals.
  There are 6 active orbitals.

  ==> Calculation Information <==

  -----------------------------------------------------------------
    Multiplicity                             1    
    Symmetry                                 0    
    Number of roots                          1    
    Root used for properties                 0    
    Sigma (Eh)                               0.00e+00
    Gamma (Eh^(-1))                          1.00e+00
    Convergence threshold                    1.00e-09
    Ms                                       0
    Diagonalization algorithm                SPARSE
    Excited Algorithm                        NONE
    Project out spin contaminants            True
    Enforce spin completeness of basis       True
    Enforce complete aimed selection         True
  -----------------------------------------------------------------
  Number of active alpha electrons: 4
  Number of active beta electrons: 4
  Maximum reference space size: 1000
  The maximum number of electrons in GAS1 is 8 
  The minimum number of electrons in GAS1 is 6
  The maximum number of electrons in GAS2 is 2
  The minimum number of electrons in GAS2 is 0
  
  Possible electron occupations in the GAS 
  GAS1_A  GAS1_B  GAS2_A  GAS2_B  
     4       4       0       0    
     4       3       0       1    
     4       2       0       2    
     3       4       1       0    
     3       3       1       1    
     2       4       2       0    

  GAS Orbital Energies
  GAS   Energies    Orb 
  1  -1.320609273  0 
  1  -0.563930450  1 
  1  -0.495003944  3 
  1  -0.678724187  4 
  2   0.202465902  2 
  2   0.292719335  5 

  ---------------------------------- Cycle 0 -----------------------------------


  ==> Diagonalizing the Hamiltonian in the P space <==

  Initial P space dimension: 31
  Spin-complete dimension of the P space: 31 determinants

  ==> Computing Coupling Lists <==
  --------------------------------
        α          0.000392 s
        β          0.000382 s
        αα         0.000616 s
        ββ         0.000631 s
        αβ         0.001634 s
  --------------------------------

  Davidson-Liu solver algorithm using SigmaVectorSparseList sigma algorithm

  Performing diagonalization of the H matrix
  Time spent diagonalizing H:   0.007161 s

    P-space  CI Energy Root   0        = -76.068167190795 Eh =   0.0000 eV, S^2 = 0.000000


  ==> Finding the Q space <==

  Using SR screening algorithm
  Time spent forming F space:             0.001698
  Time spent merging thread F spaces:             0.000030
  size of hash: 0
  Time spent building sorting list: 0.000021
  Size of F space: 0
  Time spent building the model space: 0.001917
  Spin-complete dimension of the PQ space: 31

  ==> Diagonalizing the Hamiltonian in the P + Q space <==

  Number of reference roots: 1

  ==> Computing Coupling Lists <==
  --------------------------------
        α          0.000369 s
        β          0.000360 s
        αα         0.000584 s
        ββ         0.000553 s
        αβ         0.001530 s
  --------------------------------

  Davidson-Liu solver algorithm using SigmaVectorSparseList sigma algorithm

  Performing diagonalization of the H matrix
  Total time spent diagonalizing H:   0.006788 s

    PQ-space CI Energy Root   0        = -76.068167190795 Eh =   0.0000 eV, S^2 = 0.000000
    PQ-space CI Energy + EPT2 Root   0 = -76.068167190795 Eh =   0.0000 eV

  
  GAS Contribution Analysis  
  GAS contributions root 0: 
  GAS1_A    GASI_B    GAS2_A    GAS2_B        Cont  
     4         4         0         0        0.973566165  
     4         3         0         1        0.000262291  
     4         2         0         2        0.000799230  
     3         4         1         0        0.000262291  
     3         3         1         1        0.024310792  
     2         4         2         0        0.000799230  

           6                  2            0.025909252  
           7                  1            0.000524583  
           8                  0            0.973566165  


  ==> Pruning the Q space <==

  Cycle 0 took: 0.018282 s

  ---------------------------------- Cycle 1 -----------------------------------


  ==> Diagonalizing the Hamiltonian in the P space <==

  Initial P space dimension: 31
  Spin-complete dimension of the P space: 31 determinants

  ==> Computing Coupling Lists <==
  --------------------------------
        α          0.000367 s
        β          0.000357 s
        αα         0.000585 s
        ββ         0.000556 s
        αβ         0.001437 s
  --------------------------------

  Davidson-Liu solver algorithm using SigmaVectorSparseList sigma algorithm

  Performing diagonalization of the H matrix
  Time spent diagonalizing H:   0.006589 s

    P-space  CI Energy Root   0        = -76.068167190795 Eh =   0.0000 eV, S^2 = -0.000000


  ==> Finding the Q space <==

  Using SR screening algorithm
  Time spent forming F space:             0.001716
  Time spent merging thread F spaces:             0.000031
  size of hash: 0
  Time spent building sorting list: 0.000020
  Size of F space: 0
  Time spent building the model space: 0.001997
  Spin-complete dimension of the PQ space: 31

  ==> Diagonalizing the Hamiltonian in the P + Q space <==

  Number of reference roots: 1

  ==> Computing Coupling Lists <==
  --------------------------------
        α          0.000373 s
        β          0.000361 s
        αα         0.000579 s
        ββ         0.000554 s
        αβ         0.001439 s
  --------------------------------

  Davidson-Liu solver algorithm using SigmaVectorSparseList sigma algorithm

  Performing diagonalization of the H matrix
  Total time spent diagonalizing H:   0.006621 s

    PQ-space CI Energy Root   0        = -76.068167190795 Eh =   0.0000 eV, S^2 = -0.000000
    PQ-space CI Energy + EPT2 Root   0 = -76.068167190795 Eh =   0.0000 eV

  
  GAS Contribution Analysis  
  GAS contributions root 0: 
  GAS1_A    GASI_B    GAS2_A    GAS2_B        Cont  
     4         4         0         0        0.973566165  
     4         3         0         1        0.000262291  
     4         2         0         2        0.000799230  
     3         4         1         0        0.000262291  
     3         3         1         1        0.024310792  
     2         4         2         0        0.000799230  

           6                  2            0.025909252  
           7                  1            0.000524583  
           8                  0            0.973566165  

  ***** Calculation Converged *****

  ==> ACI Natural Orbitals <==


  ==> Computing Coupling Lists <==
  --------------------------------
        α          0.000369 s
        β          0.000423 s
        1B1     1.999316      1A1     1.998970      2A1     1.975929  
        1B2     1.973816      2B2     0.026261      3A1     0.025709  

  ==> Excited state solver summary <==

  Iterations required:                         1
  Dimension of optimized determinant space:    31

  * Selected-CI Energy Root   0        = -76.068167190795 Eh =   0.0000 eV
  * Selected-CI Energy Root   0 + EPT2 = -76.068167190795 Eh =   0.0000 eV

  ==> Wavefunction Information <==

  Most important contributions to root   0:
    0   0.986695 0.973566165          30 |220220>
    1  -0.080749 0.006520403          29 |220202>
    2  -0.053458 0.002857754          28 |202220>
    3   0.051377 0.002639584          27 |2+-2-+>
    4   0.051377 0.002639584          26 |2-+2+->
    5  -0.033621 0.001130374          24 |-+2220>
    6  -0.033621 0.001130374          25 |+-2220>
    7   0.032060 0.001027858          22 |+2-2-+>
    8   0.032060 0.001027858          23 |-2+2+->
    9  -0.031948 0.001020688          21 |222200>

  Saving information for root: 0

  ==> Energy Summary <==

    Multi.(2ms)  Irrep.  No.               Energy
    ---------------------------------------------
       1  (  0)    A1     0      -76.068167190795
    ---------------------------------------------
 Weight 1.000000 

  ==> Computing Coupling Lists <==
  --------------------------------
        α          0.000003 s
        β          0.000002 s
        αα         0.000002 s
        ββ         0.000003 s
        αβ         0.000003 s
  --------------------------------

  ==> Computing Coupling Lists <==
  --------------------------------
        α          0.000366 s
        β          0.000360 s
  1-RDM  took 0.001364 s (determinant)
        αα         0.000579 s
        ββ         0.000555 s
        αβ         0.001440 s
  --------------------------------
  2-RDMS took 0.003388 s (determinant)

 CAS took 0.049095 seconds.

 FormFockIntermediates took 0.00258220 s.


 FormOrbitalGradient took 0.00090880 s.

 FormDiagHessian took 0.00067400 s.

 Update function takes 0.00432210 s
    2 0.007398888137    -0.038484177775   -76.068167190795    0.1 s       ~

  Transform Integrals takes 0.00832920 s.

  Performing a CAS with ACI

  ==> Summary of Active Space Solver Input <==

    Irrep.  Multi.(2ms)      N
    --------------------------
       A1      1  (  0)      1
    --------------------------
    N: number of roots
    ms: spin z component
    Total number of roots:   1
    --------------------------


-------------------------------------------------------------------------------
               Selected Configuration Interaction Excited States
  written by Jeffrey B. Schriber, Tianyuan Zhang and Francesco A. Evangelista
-------------------------------------------------------------------------------

  ==> Reference Information <==

  ==> Calculation Information <==

  -----------------------------------------------------------------
    Multiplicity                             1    
    Symmetry                                 0    
    Number of roots                          1    
    Ms                                       0
    Excited Algorithm                        NONE
  -----------------------------------------------------------------
  Using 1 threads
  Computing wavefunction for root 0

        ---------------------------------------------------------------
                      Adaptive Configuration Interaction
          written by Jeffrey B. Schriber and Francesco A. Evangelista
        ---------------------------------------------------------------

  ==> Reference Information <==

  There are 1 frozen orbitals.
  There are 6 active orbitals.

  ==> Calculation Information <==

  -----------------------------------------------------------------
    Multiplicity                             1    
    Symmetry                                 0    
    Number of roots                          1    
    Root used for properties                 0    
    Sigma (Eh)                               0.00e+00
    Gamma (Eh^(-1))                          1.00e+00
    Convergence threshold                    1.00e-09
    Ms                                       0
    Diagonalization algorithm                SPARSE
    Excited Algorithm                        NONE
    Project out spin contaminants            True
    Enforce spin completeness of basis       True
    Enforce complete aimed selection         True
  -----------------------------------------------------------------
  Number of active alpha electrons: 4
  Number of active beta electrons: 4
  Maximum reference space size: 1000
  The maximum number of electrons in GAS1 is 8 
  The minimum number of electrons in GAS1 is 6
  The maximum number of electrons in GAS2 is 2
  The minimum number of electrons in GAS2 is 0
  
  Possible electron occupations in the GAS 
  GAS1_A  GAS1_B  GAS2_A  GAS2_B  
     4       4       0       0    
     4       3       0       1    
     4       2       0       2    
     3       4       1       0    
     3       3       1       1    
     2       4       2       0    

  GAS Orbital Energies
  GAS   Energies    Orb 
  1  -1.320609273  0 
  1  -0.563930450  1 
  1  -0.495003944  3 
  1  -0.678724187  4 
  2   0.202465902  2 
  2   0.292719335  5 

  ---------------------------------- Cycle 0 -----------------------------------


  ==> Diagonalizing the Hamiltonian in the P space <==

  Initial P space dimension: 31
  Spin-complete dimension of the P space: 31 determinants

  ==> Computing Coupling Lists <==
  --------------------------------
        α          0.000370 s
        β          0.000360 s
        αα         0.000577 s
        ββ         0.000560 s
        αβ         0.001538 s
  --------------------------------

  Davidson-Liu solver algorithm using SigmaVectorSparseList sigma algorithm

  Performing diagonalization of the H matrix
  Time spent diagonalizing H:   0.006801 s

    P-space  CI Energy Root   0        = -76.072192259958 Eh =   0.0000 eV, S^2 = -0.000000


  ==> Finding the Q space <==

  Using SR screening algorithm
  Time spent forming F space:             0.001718
  Time spent merging thread F spaces:             0.000031
  size of hash: 0
  Time spent building sorting list: 0.000020
  Size of F space: 0
  Time spent building the model space: 0.001937
  Spin-complete dimension of the PQ space: 31

  ==> Diagonalizing the Hamiltonian in the P + Q space <==

  Number of reference roots: 1

  ==> Computing Coupling Lists <==
  --------------------------------
        α          0.000369 s
        β          0.000360 s
        αα         0.000588 s
        ββ         0.000556 s
        αβ         0.001445 s
  --------------------------------

  Davidson-Liu solver algorithm using SigmaVectorSparseList sigma algorithm

  Performing diagonalization of the H matrix
  Total time spent diagonalizing H:   0.006630 s

    PQ-space CI Energy Root   0        = -76.072192259958 Eh =   0.0000 eV, S^2 = -0.000000
    PQ-space CI Energy + EPT2 Root   0 = -76.072192259958 Eh =   0.0000 eV

  
  GAS Contribution Analysis  
  GAS contributions root 0: 
  GAS1_A    GASI_B    GAS2_A    GAS2_B        Cont  
     4         4         0         0        0.973856196  
     4         3         0         1        0.000323091  
     4         2         0         2        0.000751524  
     3         4         1         0        0.000323091  
     3         3         1         1        0.023994573  
     2         4         2         0        0.000751524  

           6                  2            0.025497622  
           7                  1            0.000646182  
           8                  0            0.973856196  


  ==> Pruning the Q space <==

  Cycle 0 took: 0.017741 s

  ---------------------------------- Cycle 1 -----------------------------------


  ==> Diagonalizing the Hamiltonian in the P space <==

  Initial P space dimension: 31
  Spin-complete dimension of the P space: 31 determinants

  ==> Computing Coupling Lists <==
  --------------------------------
        α          0.000378 s
        β          0.000420 s
        αα         0.000581 s
        ββ         0.000553 s
        αβ         0.001719 s
  --------------------------------

  Davidson-Liu solver algorithm using SigmaVectorSparseList sigma algorithm

  Performing diagonalization of the H matrix
  Time spent diagonalizing H:   0.007075 s

    P-space  CI Energy Root   0        = -76.072192259958 Eh =   0.0000 eV, S^2 = 0.000000


  ==> Finding the Q space <==

  Using SR screening algorithm
  Time spent forming F space:             0.001798
  Time spent merging thread F spaces:             0.000056
  size of hash: 0
  Time spent building sorting list: 0.000024
  Size of F space: 0
  Time spent building the model space: 0.002104
  Spin-complete dimension of the PQ space: 31

  ==> Diagonalizing the Hamiltonian in the P + Q space <==

  Number of reference roots: 1

  ==> Computing Coupling Lists <==
  --------------------------------
        α          0.000557 s
        β          0.000514 s
        αα         0.001026 s
        ββ         0.000562 s
        αβ         0.001516 s
  --------------------------------

  Davidson-Liu solver algorithm using SigmaVectorSparseList sigma algorithm

  Performing diagonalization of the H matrix
  Total time spent diagonalizing H:   0.007848 s

    PQ-space CI Energy Root   0        = -76.072192259958 Eh =   0.0000 eV, S^2 = 0.000000
    PQ-space CI Energy + EPT2 Root   0 = -76.072192259958 Eh =   0.0000 eV

  
  GAS Contribution Analysis  
  GAS contributions root 0: 
  GAS1_A    GASI_B    GAS2_A    GAS2_B        Cont  
     4         4         0         0        0.973856196  
     4         3         0         1        0.000323091  
     4         2         0         2        0.000751524  
     3         4         1         0        0.000323091  
     3         3         1         1        0.023994573  
     2         4         2         0        0.000751524  

           6                  2            0.025497622  
           7                  1            0.000646182  
           8                  0            0.973856196  

  ***** Calculation Converged *****

  ==> ACI Natural Orbitals <==


  ==> Computing Coupling Lists <==
  --------------------------------
        α          0.000374 s
        β          0.000360 s
        1B1     1.999347      1A1     1.998894      2A1     1.976316  
        1B2     1.974267      2B2     0.026021      3A1     0.025155  

  ==> Excited state solver summary <==

  Iterations required:                         1
  Dimension of optimized determinant space:    31

  * Selected-CI Energy Root   0        = -76.072192259958 Eh =   0.0000 eV
  * Selected-CI Energy Root   0 + EPT2 = -76.072192259958 Eh =   0.0000 eV

  ==> Wavefunction Information <==

  Most important contributions to root   0:
    0   0.986842 0.973856196          30 |220220>
    1  -0.080235 0.006437672          29 |220202>
    2  -0.052805 0.002788373          28 |202220>
    3   0.050816 0.002582257          27 |2+-2-+>
    4   0.050816 0.002582257          26 |2-+2+->
    5  -0.033071 0.001093697          25 |-+2220>
    6  -0.033071 0.001093697          24 |+-2220>
    7   0.031729 0.001006728          22 |+2-2-+>
    8   0.031729 0.001006728          23 |-2+2+->
    9  -0.031290 0.000979066          21 |222200>

  Saving information for root: 0

  ==> Energy Summary <==

    Multi.(2ms)  Irrep.  No.               Energy
    ---------------------------------------------
       1  (  0)    A1     0      -76.072192259958
    ---------------------------------------------
 Weight 1.000000 

  ==> Computing Coupling Lists <==
  --------------------------------
        α          0.000003 s
        β          0.000002 s
        αα         0.000003 s
        ββ         0.000003 s
        αβ         0.000002 s
  --------------------------------

  ==> Computing Coupling Lists <==
  --------------------------------
        α          0.000370 s
        β          0.000427 s
  1-RDM  took 0.001476 s (determinant)
        αα         0.000587 s
        ββ         0.000566 s
        αβ         0.001520 s
  --------------------------------
  2-RDMS took 0.003535 s (determinant)

 CAS took 0.049849 seconds.

 FormFockIntermediates took 0.00262930 s.


 FormOrbitalGradient took 0.00095210 s.

 FormDiagHessian took 0.00075220 s.

 Update function takes 0.00449400 s
    3 0.002492225195    -0.004025069163   -76.072192259958    0.1 s       ~

  Transform Integrals takes 0.00856520 s.

  Performing a CAS with ACI

  ==> Summary of Active Space Solver Input <==

    Irrep.  Multi.(2ms)      N
    --------------------------
       A1      1  (  0)      1
    --------------------------
    N: number of roots
    ms: spin z component
    Total number of roots:   1
    --------------------------


-------------------------------------------------------------------------------
               Selected Configuration Interaction Excited States
  written by Jeffrey B. Schriber, Tianyuan Zhang and Francesco A. Evangelista
-------------------------------------------------------------------------------

  ==> Reference Information <==

  ==> Calculation Information <==

  -----------------------------------------------------------------
    Multiplicity                             1    
    Symmetry                                 0    
    Number of roots                          1    
    Ms                                       0
    Excited Algorithm                        NONE
  -----------------------------------------------------------------
  Using 1 threads
  Computing wavefunction for root 0

        ---------------------------------------------------------------
                      Adaptive Configuration Interaction
          written by Jeffrey B. Schriber and Francesco A. Evangelista
        ---------------------------------------------------------------

  ==> Reference Information <==

  There are 1 frozen orbitals.
  There are 6 active orbitals.

  ==> Calculation Information <==

  -----------------------------------------------------------------
    Multiplicity                             1    
    Symmetry                                 0    
    Number of roots                          1    
    Root used for properties                 0    
    Sigma (Eh)                               0.00e+00
    Gamma (Eh^(-1))                          1.00e+00
    Convergence threshold                    1.00e-09
    Ms                                       0
    Diagonalization algorithm                SPARSE
    Excited Algorithm                        NONE
    Project out spin contaminants            True
    Enforce spin completeness of basis       True
    Enforce complete aimed selection         True
  -----------------------------------------------------------------
  Number of active alpha electrons: 4
  Number of active beta electrons: 4
  Maximum reference space size: 1000
  The maximum number of electrons in GAS1 is 8 
  The minimum number of electrons in GAS1 is 6
  The maximum number of electrons in GAS2 is 2
  The minimum number of electrons in GAS2 is 0
  
  Possible electron occupations in the GAS 
  GAS1_A  GAS1_B  GAS2_A  GAS2_B  
     4       4       0       0    
     4       3       0       1    
     4       2       0       2    
     3       4       1       0    
     3       3       1       1    
     2       4       2       0    

  GAS Orbital Energies
  GAS   Energies    Orb 
  1  -1.320609273  0 
  1  -0.563930450  1 
  1  -0.495003944  3 
  1  -0.678724187  4 
  2   0.202465902  2 
  2   0.292719335  5 

  ---------------------------------- Cycle 0 -----------------------------------


  ==> Diagonalizing the Hamiltonian in the P space <==

  Initial P space dimension: 31
  Spin-complete dimension of the P space: 31 determinants

  ==> Computing Coupling Lists <==
  --------------------------------
        α          0.000377 s
        β          0.000360 s
        αα         0.000807 s
        ββ         0.000561 s
        αβ         0.001452 s
  --------------------------------

  Davidson-Liu solver algorithm using SigmaVectorSparseList sigma algorithm

  Performing diagonalization of the H matrix
  Time spent diagonalizing H:   0.006994 s

    P-space  CI Energy Root   0        = -76.072776204184 Eh =   0.0000 eV, S^2 = 0.000000


  ==> Finding the Q space <==

  Using SR screening algorithm
  Time spent forming F space:             0.001848
  Time spent merging thread F spaces:             0.000032
  size of hash: 0
  Time spent building sorting list: 0.000021
  Size of F space: 0
  Time spent building the model space: 0.002080
  Spin-complete dimension of the PQ space: 31

  ==> Diagonalizing the Hamiltonian in the P + Q space <==

  Number of reference roots: 1

  ==> Computing Coupling Lists <==
  --------------------------------
        α          0.000382 s
        β          0.000409 s
        αα         0.000601 s
        ββ         0.000556 s
        αβ         0.001580 s
  --------------------------------

  Davidson-Liu solver algorithm using SigmaVectorSparseList sigma algorithm

  Performing diagonalization of the H matrix
  Total time spent diagonalizing H:   0.006941 s

    PQ-space CI Energy Root   0        = -76.072776204184 Eh =   0.0000 eV, S^2 = 0.000000
    PQ-space CI Energy + EPT2 Root   0 = -76.072776204184 Eh =   0.0000 eV

  
  GAS Contribution Analysis  
  GAS contributions root 0: 
  GAS1_A    GASI_B    GAS2_A    GAS2_B        Cont  
     4         4         0         0        0.974425609  
     4         3         0         1        0.000265035  
     4         2         0         2        0.000724308  
     3         4         1         0        0.000265035  
     3         3         1         1        0.023595705  
     2         4         2         0        0.000724308  

           6                  2            0.025044322  
           7                  1            0.000530069  
           8                  0            0.974425609  


  ==> Pruning the Q space <==

  Cycle 0 took: 0.018610 s

  ---------------------------------- Cycle 1 -----------------------------------


  ==> Diagonalizing the Hamiltonian in the P space <==

  Initial P space dimension: 31
  Spin-complete dimension of the P space: 31 determinants

  ==> Computing Coupling Lists <==
  --------------------------------
        α          0.000373 s
        β          0.000395 s
        αα         0.000665 s
        ββ         0.000576 s
        αβ         0.001615 s
  --------------------------------

  Davidson-Liu solver algorithm using SigmaVectorSparseList sigma algorithm

  Performing diagonalization of the H matrix
  Time spent diagonalizing H:   0.007051 s

    P-space  CI Energy Root   0        = -76.072776204184 Eh =   0.0000 eV, S^2 = 0.000000


  ==> Finding the Q space <==

  Using SR screening algorithm
  Time spent forming F space:             0.001700
  Time spent merging thread F spaces:             0.000032
  size of hash: 0
  Time spent building sorting list: 0.000021
  Size of F space: 0
  Time spent building the model space: 0.001918
  Spin-complete dimension of the PQ space: 31

  ==> Diagonalizing the Hamiltonian in the P + Q space <==

  Number of reference roots: 1

  ==> Computing Coupling Lists <==
  --------------------------------
        α          0.000377 s
        β          0.000359 s
        αα         0.000597 s
        ββ         0.000564 s
        αβ         0.001514 s
  --------------------------------

  Davidson-Liu solver algorithm using SigmaVectorSparseList sigma algorithm

  Performing diagonalization of the H matrix
  Total time spent diagonalizing H:   0.006943 s

    PQ-space CI Energy Root   0        = -76.072776204184 Eh =   0.0000 eV, S^2 = 0.000000
    PQ-space CI Energy + EPT2 Root   0 = -76.072776204184 Eh =   0.0000 eV

  
  GAS Contribution Analysis  
  GAS contributions root 0: 
  GAS1_A    GASI_B    GAS2_A    GAS2_B        Cont  
     4         4         0         0        0.974425609  
     4         3         0         1        0.000265035  
     4         2         0         2        0.000724308  
     3         4         1         0        0.000265035  
     3         3         1         1        0.023595705  
     2         4         2         0        0.000724308  

           6                  2            0.025044322  
           7                  1            0.000530069  
           8                  0            0.974425609  

  ***** Calculation Converged *****

  ==> ACI Natural Orbitals <==


  ==> Computing Coupling Lists <==
  --------------------------------
        α          0.000379 s
        β          0.000362 s
        1B1     1.999368      1A1     1.998870      2A1     1.976790  
        1B2     1.974743      2B2     0.025648      3A1     0.024580  

  ==> Excited state solver summary <==

  Iterations required:                         1
  Dimension of optimized determinant space:    31

  * Selected-CI Energy Root   0        = -76.072776204184 Eh =   0.0000 eV
  * Selected-CI Energy Root   0 + EPT2 = -76.072776204184 Eh =   0.0000 eV

  ==> Wavefunction Information <==

  Most important contributions to root   0:
    0   0.987130 0.974425609          30 |220220>
    1  -0.079587 0.006334107          29 |220202>
    2  -0.052160 0.002720695          28 |202220>
    3   0.050363 0.002536433          27 |2-+2+->
    4   0.050363 0.002536433          26 |2+-2-+>
    5  -0.032539 0.001058788          25 |-+2220>
    6  -0.032539 0.001058788          24 |+-2220>
    7   0.031347 0.000982606          23 |-2+2+->
    8   0.031347 0.000982606          22 |+2-2-+>
    9  -0.030903 0.000954968          21 |222200>

  Saving information for root: 0

  ==> Energy Summary <==

    Multi.(2ms)  Irrep.  No.               Energy
    ---------------------------------------------
       1  (  0)    A1     0      -76.072776204184
    ---------------------------------------------
 Weight 1.000000 

  ==> Computing Coupling Lists <==
  --------------------------------
        α          0.000003 s
        β          0.000002 s
        αα         0.000003 s
        ββ         0.000003 s
        αβ         0.000003 s
  --------------------------------

  ==> Computing Coupling Lists <==
  --------------------------------
        α          0.000366 s
        β          0.000384 s
  1-RDM  took 0.001390 s (determinant)
        αα         0.000627 s
        ββ         0.000634 s
        αβ         0.001464 s
  --------------------------------
  2-RDMS took 0.003610 s (determinant)

 CAS took 0.050047 seconds.

 FormFockIntermediates took 0.00257310 s.


 FormOrbitalGradient took 0.00094460 s.

 FormDiagHessian took 0.00065300 s.

 Update function takes 0.00432840 s
    4 0.001065370192    -0.000583944226   -76.072776204184    0.1 s  DIIS ~

  Transform Integrals takes 0.00898220 s.

  Performing a CAS with ACI

  ==> Summary of Active Space Solver Input <==

    Irrep.  Multi.(2ms)      N
    --------------------------
       A1      1  (  0)      1
    --------------------------
    N: number of roots
    ms: spin z component
    Total number of roots:   1
    --------------------------


-------------------------------------------------------------------------------
               Selected Configuration Interaction Excited States
  written by Jeffrey B. Schriber, Tianyuan Zhang and Francesco A. Evangelista
-------------------------------------------------------------------------------

  ==> Reference Information <==

  ==> Calculation Information <==

  -----------------------------------------------------------------
    Multiplicity                             1    
    Symmetry                                 0    
    Number of roots                          1    
    Ms                                       0
    Excited Algorithm                        NONE
  -----------------------------------------------------------------
  Using 1 threads
  Computing wavefunction for root 0

        ---------------------------------------------------------------
                      Adaptive Configuration Interaction
          written by Jeffrey B. Schriber and Francesco A. Evangelista
        ---------------------------------------------------------------

  ==> Reference Information <==

  There are 1 frozen orbitals.
  There are 6 active orbitals.

  ==> Calculation Information <==

  -----------------------------------------------------------------
    Multiplicity                             1    
    Symmetry                                 0    
    Number of roots                          1    
    Root used for properties                 0    
    Sigma (Eh)                               0.00e+00
    Gamma (Eh^(-1))                          1.00e+00
    Convergence threshold                    1.00e-09
    Ms                                       0
    Diagonalization algorithm                SPARSE
    Excited Algorithm                        NONE
    Project out spin contaminants            True
    Enforce spin completeness of basis       True
    Enforce complete aimed selection         True
  -----------------------------------------------------------------
  Number of active alpha electrons: 4
  Number of active beta electrons: 4
  Maximum reference space size: 1000
  The maximum number of electrons in GAS1 is 8 
  The minimum number of electrons in GAS1 is 6
  The maximum number of electrons in GAS2 is 2
  The minimum number of electrons in GAS2 is 0
  
  Possible electron occupations in the GAS 
  GAS1_A  GAS1_B  GAS2_A  GAS2_B  
     4       4       0       0    
     4       3       0       1    
     4       2       0       2    
     3       4       1       0    
     3       3       1       1    
     2       4       2       0    

  GAS Orbital Energies
  GAS   Energies    Orb 
  1  -1.320609273  0 
  1  -0.563930450  1 
  1  -0.495003944  3 
  1  -0.678724187  4 
  2   0.202465902  2 
  2   0.292719335  5 

  ---------------------------------- Cycle 0 -----------------------------------


  ==> Diagonalizing the Hamiltonian in the P space <==

  Initial P space dimension: 31
  Spin-complete dimension of the P space: 31 determinants

  ==> Computing Coupling Lists <==
  --------------------------------
        α          0.000375 s
        β          0.000358 s
        αα         0.000599 s
        ββ         0.000567 s
        αβ         0.001440 s
  --------------------------------

  Davidson-Liu solver algorithm using SigmaVectorSparseList sigma algorithm

  Performing diagonalization of the H matrix
  Time spent diagonalizing H:   0.006813 s

    P-space  CI Energy Root   0        = -76.072942068303 Eh =   0.0000 eV, S^2 = 0.000000


  ==> Finding the Q space <==

  Using SR screening algorithm
  Time spent forming F space:             0.001767
  Time spent merging thread F spaces:             0.000036
  size of hash: 0
  Time spent building sorting list: 0.000022
  Size of F space: 0
  Time spent building the model space: 0.002026
  Spin-complete dimension of the PQ space: 31

  ==> Diagonalizing the Hamiltonian in the P + Q space <==

  Number of reference roots: 1

  ==> Computing Coupling Lists <==
  --------------------------------
        α          0.001512 s
        β          0.001483 s
        αα         0.002640 s
        ββ         0.002595 s
        αβ         0.006329 s
  --------------------------------

  Davidson-Liu solver algorithm using SigmaVectorSparseList sigma algorithm

  Performing diagonalization of the H matrix
  Total time spent diagonalizing H:   0.019202 s

    PQ-space CI Energy Root   0        = -76.072942068303 Eh =   0.0000 eV, S^2 = 0.000000
    PQ-space CI Energy + EPT2 Root   0 = -76.072942068303 Eh =   0.0000 eV

  
  GAS Contribution Analysis  
  GAS contributions root 0: 
  GAS1_A    GASI_B    GAS2_A    GAS2_B        Cont  
     4         4         0         0        0.974937203  
     4         3         0         1        0.000182035  
     4         2         0         2        0.000701183  
     3         4         1         0        0.000182035  
     3         3         1         1        0.023296361  
     2         4         2         0        0.000701183  

           6                  2            0.024698728  
           7                  1            0.000364069  
           8                  0            0.974937203  


  ==> Pruning the Q space <==

  Cycle 0 took: 0.030752 s

  ---------------------------------- Cycle 1 -----------------------------------


  ==> Diagonalizing the Hamiltonian in the P space <==

  Initial P space dimension: 31
  Spin-complete dimension of the P space: 31 determinants

  ==> Computing Coupling Lists <==
  --------------------------------
        α          0.000478 s
        β          0.000362 s
        αα         0.000597 s
        ββ         0.000564 s
        αβ         0.003668 s
  --------------------------------

  Davidson-Liu solver algorithm using SigmaVectorSparseList sigma algorithm

  Performing diagonalization of the H matrix
  Time spent diagonalizing H:   0.012015 s

    P-space  CI Energy Root   0        = -76.072942068303 Eh =   0.0000 eV, S^2 = 0.000000


  ==> Finding the Q space <==

  Using SR screening algorithm
  Time spent forming F space:             0.001780
  Time spent merging thread F spaces:             0.000034
  size of hash: 0
  Time spent building sorting list: 0.000022
  Size of F space: 0
  Time spent building the model space: 0.002026
  Spin-complete dimension of the PQ space: 31

  ==> Diagonalizing the Hamiltonian in the P + Q space <==

  Number of reference roots: 1

  ==> Computing Coupling Lists <==
  --------------------------------
        α          0.000374 s
        β          0.000378 s
        αα         0.000628 s
        ββ         0.000561 s
        αβ         0.001531 s
  --------------------------------

  Davidson-Liu solver algorithm using SigmaVectorSparseList sigma algorithm

  Performing diagonalization of the H matrix
  Total time spent diagonalizing H:   0.007039 s

    PQ-space CI Energy Root   0        = -76.072942068303 Eh =   0.0000 eV, S^2 = 0.000000
    PQ-space CI Energy + EPT2 Root   0 = -76.072942068303 Eh =   0.0000 eV

  
  GAS Contribution Analysis  
  GAS contributions root 0: 
  GAS1_A    GASI_B    GAS2_A    GAS2_B        Cont  
     4         4         0         0        0.974937203  
     4         3         0         1        0.000182035  
     4         2         0         2        0.000701183  
     3         4         1         0        0.000182035  
     3         3         1         1        0.023296361  
     2         4         2         0        0.000701183  

           6                  2            0.024698728  
           7                  1            0.000364069  
           8                  0            0.974937203  

  ***** Calculation Converged *****

  ==> ACI Natural Orbitals <==


  ==> Computing Coupling Lists <==
  --------------------------------
        α          0.000370 s
        β          0.000379 s
        1B1     1.999379      1A1     1.998833      2A1     1.977187  
        1B2     1.975118      2B2     0.025391      3A1     0.024092  

  ==> Excited state solver summary <==

  Iterations required:                         1
  Dimension of optimized determinant space:    31

  * Selected-CI Energy Root   0        = -76.072942068303 Eh =   0.0000 eV
  * Selected-CI Energy Root   0 + EPT2 = -76.072942068303 Eh =   0.0000 eV

  ==> Wavefunction Information <==

  Most important contributions to root   0:
    0   0.987389 0.974937203          30 |220220>
    1  -0.079127 0.006261086          29 |220202>
    2  -0.051673 0.002670089          28 |202220>
    3   0.050057 0.002505718          26 |2+-2-+>
    4   0.050057 0.002505718          27 |2-+2+->
    5  -0.032027 0.001025697          25 |+-2220>
    6  -0.032027 0.001025697          24 |-+2220>
    7   0.030930 0.000956686          23 |+2-2-+>
    8   0.030930 0.000956686          22 |-2+2+->
    9  -0.030566 0.000934284          21 |222200>

  Saving information for root: 0

  ==> Energy Summary <==

    Multi.(2ms)  Irrep.  No.               Energy
    ---------------------------------------------
       1  (  0)    A1     0      -76.072942068303
    ---------------------------------------------
 Weight 1.000000 

  ==> Computing Coupling Lists <==
  --------------------------------
        α          0.000004 s
        β          0.000002 s
        αα         0.000002 s
        ββ         0.000003 s
        αβ         0.000002 s
  --------------------------------

  ==> Computing Coupling Lists <==
  --------------------------------
        α          0.000370 s
        β          0.000372 s
  1-RDM  took 0.001496 s (determinant)
        αα         0.000668 s
        ββ         0.000625 s
        αβ         0.001471 s
  --------------------------------
  2-RDMS took 0.003713 s (determinant)

 CAS took 0.067757 seconds.

 FormFockIntermediates took 0.00265070 s.


 FormOrbitalGradient took 0.00097260 s.

 FormDiagHessian took 0.00065950 s.

 Update function takes 0.00445030 s
    5 0.000826742358    -0.000165864120   -76.072942068303    0.1 s  DIIS ~

  Transform Integrals takes 0.00983060 s.

  Performing a CAS with ACI

  ==> Summary of Active Space Solver Input <==

    Irrep.  Multi.(2ms)      N
    --------------------------
       A1      1  (  0)      1
    --------------------------
    N: number of roots
    ms: spin z component
    Total number of roots:   1
    --------------------------


-------------------------------------------------------------------------------
               Selected Configuration Interaction Excited States
  written by Jeffrey B. Schriber, Tianyuan Zhang and Francesco A. Evangelista
-------------------------------------------------------------------------------

  ==> Reference Information <==

  ==> Calculation Information <==

  -----------------------------------------------------------------
    Multiplicity                             1    
    Symmetry                                 0    
    Number of roots                          1    
    Ms                                       0
    Excited Algorithm                        NONE
  -----------------------------------------------------------------
  Using 1 threads
  Computing wavefunction for root 0

        ---------------------------------------------------------------
                      Adaptive Configuration Interaction
          written by Jeffrey B. Schriber and Francesco A. Evangelista
        ---------------------------------------------------------------

  ==> Reference Information <==

  There are 1 frozen orbitals.
  There are 6 active orbitals.

  ==> Calculation Information <==

  -----------------------------------------------------------------
    Multiplicity                             1    
    Symmetry                                 0    
    Number of roots                          1    
    Root used for properties                 0    
    Sigma (Eh)                               0.00e+00
    Gamma (Eh^(-1))                          1.00e+00
    Convergence threshold                    1.00e-09
    Ms                                       0
    Diagonalization algorithm                SPARSE
    Excited Algorithm                        NONE
    Project out spin contaminants            True
    Enforce spin completeness of basis       True
    Enforce complete aimed selection         True
  -----------------------------------------------------------------
  Number of active alpha electrons: 4
  Number of active beta electrons: 4
  Maximum reference space size: 1000
  The maximum number of electrons in GAS1 is 8 
  The minimum number of electrons in GAS1 is 6
  The maximum number of electrons in GAS2 is 2
  The minimum number of electrons in GAS2 is 0
  
  Possible electron occupations in the GAS 
  GAS1_A  GAS1_B  GAS2_A  GAS2_B  
     4       4       0       0    
     4       3       0       1    
     4       2       0       2    
     3       4       1       0    
     3       3       1       1    
     2       4       2       0    

  GAS Orbital Energies
  GAS   Energies    Orb 
  1  -1.320609273  0 
  1  -0.563930450  1 
  1  -0.495003944  3 
  1  -0.678724187  4 
  2   0.202465902  2 
  2   0.292719335  5 

  ---------------------------------- Cycle 0 -----------------------------------


  ==> Diagonalizing the Hamiltonian in the P space <==

  Initial P space dimension: 31
  Spin-complete dimension of the P space: 31 determinants

  ==> Computing Coupling Lists <==
  --------------------------------
        α          0.000438 s
        β          0.000367 s
        αα         0.000807 s
        ββ         0.000624 s
        αβ         0.001602 s
  --------------------------------

  Davidson-Liu solver algorithm using SigmaVectorSparseList sigma algorithm

  Performing diagonalization of the H matrix
  Time spent diagonalizing H:   0.013829 s

    P-space  CI Energy Root   0        = -76.072968517075 Eh =   0.0000 eV, S^2 = 0.000000


  ==> Finding the Q space <==

  Using SR screening algorithm
  Time spent forming F space:             0.005993
  Time spent merging thread F spaces:             0.000046
  size of hash: 0
  Time spent building sorting list: 0.000029
  Size of F space: 0
  Time spent building the model space: 0.006357
  Spin-complete dimension of the PQ space: 31

  ==> Diagonalizing the Hamiltonian in the P + Q space <==

  Number of reference roots: 1

  ==> Computing Coupling Lists <==
  --------------------------------
        α          0.000585 s
        β          0.000496 s
        αα         0.000683 s
        ββ         0.000586 s
        αβ         0.001566 s
  --------------------------------

  Davidson-Liu solver algorithm using SigmaVectorSparseList sigma algorithm

  Performing diagonalization of the H matrix
  Total time spent diagonalizing H:   0.007740 s

    PQ-space CI Energy Root   0        = -76.072968517075 Eh =   0.0000 eV, S^2 = 0.000000
    PQ-space CI Energy + EPT2 Root   0 = -76.072968517075 Eh =   0.0000 eV

  
  GAS Contribution Analysis  
  GAS contributions root 0: 
  GAS1_A    GASI_B    GAS2_A    GAS2_B        Cont  
     4         4         0         0        0.975014825  
     4         3         0         1        0.000139753  
     4         2         0         2        0.000701361  
     3         4         1         0        0.000139753  
     3         3         1         1        0.023302947  
     2         4         2         0        0.000701361  

           6                  2            0.024705669  
           7                  1            0.000279506  
           8                  0            0.975014825  


  ==> Pruning the Q space <==

  Cycle 0 took: 0.031063 s

  ---------------------------------- Cycle 1 -----------------------------------


  ==> Diagonalizing the Hamiltonian in the P space <==

  Initial P space dimension: 31
  Spin-complete dimension of the P space: 31 determinants

  ==> Computing Coupling Lists <==
  --------------------------------
        α          0.000396 s
        β          0.000495 s
        αα         0.000730 s
        ββ         0.000568 s
        αβ         0.001585 s
  --------------------------------

  Davidson-Liu solver algorithm using SigmaVectorSparseList sigma algorithm

  Performing diagonalization of the H matrix
  Time spent diagonalizing H:   0.010477 s

    P-space  CI Energy Root   0        = -76.072968517075 Eh =   0.0000 eV, S^2 = 0.000000


  ==> Finding the Q space <==

  Using SR screening algorithm
  Time spent forming F space:             0.001889
  Time spent merging thread F spaces:             0.000035
  size of hash: 0
  Time spent building sorting list: 0.000022
  Size of F space: 0
  Time spent building the model space: 0.002151
  Spin-complete dimension of the PQ space: 31

  ==> Diagonalizing the Hamiltonian in the P + Q space <==

  Number of reference roots: 1

  ==> Computing Coupling Lists <==
  --------------------------------
        α          0.000450 s
        β          0.000373 s
        αα         0.000678 s
        ββ         0.000618 s
        αβ         0.001665 s
  --------------------------------

  Davidson-Liu solver algorithm using SigmaVectorSparseList sigma algorithm

  Performing diagonalization of the H matrix
  Total time spent diagonalizing H:   0.007648 s

    PQ-space CI Energy Root   0        = -76.072968517075 Eh =   0.0000 eV, S^2 = 0.000000
    PQ-space CI Energy + EPT2 Root   0 = -76.072968517075 Eh =   0.0000 eV

  
  GAS Contribution Analysis  
  GAS contributions root 0: 
  GAS1_A    GASI_B    GAS2_A    GAS2_B        Cont  
     4         4         0         0        0.975014825  
     4         3         0         1        0.000139753  
     4         2         0         2        0.000701361  
     3         4         1         0        0.000139753  
     3         3         1         1        0.023302947  
     2         4         2         0        0.000701361  

           6                  2            0.024705669  
           7                  1            0.000279506  
           8                  0            0.975014825  

  ***** Calculation Converged *****

  ==> ACI Natural Orbitals <==


  ==> Computing Coupling Lists <==
  --------------------------------
        α          0.000420 s
        β          0.000452 s
        1B1     1.999378      1A1     1.998818      2A1     1.977211  
        1B2     1.975122      2B2     0.025421      3A1     0.024050  

  ==> Excited state solver summary <==

  Iterations required:                         1
  Dimension of optimized determinant space:    31

  * Selected-CI Energy Root   0        = -76.072968517075 Eh =   0.0000 eV
  * Selected-CI Energy Root   0 + EPT2 = -76.072968517075 Eh =   0.0000 eV

  ==> Wavefunction Information <==

  Most important contributions to root   0:
    0   0.987428 0.975014825          30 |220220>
    1  -0.079155 0.006265491          29 |220202>
    2  -0.051624 0.002664997          28 |202220>
    3   0.050088 0.002508838          26 |2-+2+->
    4   0.050088 0.002508838          27 |2+-2-+>
    5  -0.031950 0.001020780          24 |+-2220>
    6  -0.031950 0.001020780          25 |-+2220>
    7   0.030894 0.000954444          23 |-2+2+->
    8   0.030894 0.000954444          22 |+2-2-+>
    9  -0.030521 0.000931554          21 |222200>

  Saving information for root: 0

  ==> Energy Summary <==

    Multi.(2ms)  Irrep.  No.               Energy
    ---------------------------------------------
       1  (  0)    A1     0      -76.072968517075
    ---------------------------------------------
 Weight 1.000000 

  ==> Computing Coupling Lists <==
  --------------------------------
        α          0.000003 s
        β          0.000003 s
        αα         0.000003 s
        ββ         0.000003 s
        αβ         0.000003 s
  --------------------------------

  ==> Computing Coupling Lists <==
  --------------------------------
        α          0.000469 s
        β          0.000382 s
  1-RDM  took 0.001566 s (determinant)
        αα         0.000640 s
        ββ         0.000615 s
        αβ         0.001684 s
  --------------------------------
  2-RDMS took 0.003932 s (determinant)

 CAS took 0.069530 seconds.

 FormFockIntermediates took 0.00392690 s.


 FormOrbitalGradient took 0.00355860 s.

 FormDiagHessian took 0.00257700 s.

 Update function takes 0.01039780 s
    6 0.000647622165    -0.000026448772   -76.072968517075    0.1 s  DIIS ~

  Transform Integrals takes 0.01284220 s.

  Performing a CAS with ACI

  ==> Summary of Active Space Solver Input <==

    Irrep.  Multi.(2ms)      N
    --------------------------
       A1      1  (  0)      1
    --------------------------
    N: number of roots
    ms: spin z component
    Total number of roots:   1
    --------------------------


-------------------------------------------------------------------------------
               Selected Configuration Interaction Excited States
  written by Jeffrey B. Schriber, Tianyuan Zhang and Francesco A. Evangelista
-------------------------------------------------------------------------------

  ==> Reference Information <==

  ==> Calculation Information <==

  -----------------------------------------------------------------
    Multiplicity                             1    
    Symmetry                                 0    
    Number of roots                          1    
    Ms                                       0
    Excited Algorithm                        NONE
  -----------------------------------------------------------------
  Using 1 threads
  Computing wavefunction for root 0

        ---------------------------------------------------------------
                      Adaptive Configuration Interaction
          written by Jeffrey B. Schriber and Francesco A. Evangelista
        ---------------------------------------------------------------

  ==> Reference Information <==

  There are 1 frozen orbitals.
  There are 6 active orbitals.

  ==> Calculation Information <==

  -----------------------------------------------------------------
    Multiplicity                             1    
    Symmetry                                 0    
    Number of roots                          1    
    Root used for properties                 0    
    Sigma (Eh)                               0.00e+00
    Gamma (Eh^(-1))                          1.00e+00
    Convergence threshold                    1.00e-09
    Ms                                       0
    Diagonalization algorithm                SPARSE
    Excited Algorithm                        NONE
    Project out spin contaminants            True
    Enforce spin completeness of basis       True
    Enforce complete aimed selection         True
  -----------------------------------------------------------------
  Number of active alpha electrons: 4
  Number of active beta electrons: 4
  Maximum reference space size: 1000
  The maximum number of electrons in GAS1 is 8 
  The minimum number of electrons in GAS1 is 6
  The maximum number of electrons in GAS2 is 2
  The minimum number of electrons in GAS2 is 0
  
  Possible electron occupations in the GAS 
  GAS1_A  GAS1_B  GAS2_A  GAS2_B  
     4       4       0       0    
     4       3       0       1    
     4       2       0       2    
     3       4       1       0    
     3       3       1       1    
     2       4       2       0    

  GAS Orbital Energies
  GAS   Energies    Orb 
  1  -1.320609273  0 
[...]

  There are 1 frozen orbitals.
  There are 6 active orbitals.

  ==> Calculation Information <==

  -----------------------------------------------------------------
    Multiplicity                             1    
    Symmetry                                 0    
    Number of roots                          1    
    Root used for properties                 0    
    Sigma (Eh)                               0.00e+00
    Gamma (Eh^(-1))                          1.00e+00
    Convergence threshold                    1.00e-09
    Ms                                       0
    Diagonalization algorithm                SPARSE
    Excited Algorithm                        NONE
    Project out spin contaminants            True
    Enforce spin completeness of basis       True
    Enforce complete aimed selection         True
  -----------------------------------------------------------------
  Number of active alpha electrons: 4
  Number of active beta electrons: 4
  Maximum reference space size: 1000
  The maximum number of electrons in GAS1 is 8 
  The minimum number of electrons in GAS1 is 6
  The maximum number of electrons in GAS2 is 2
  The minimum number of electrons in GAS2 is 0
  
  Possible electron occupations in the GAS 
  GAS1_A  GAS1_B  GAS2_A  GAS2_B  
     4       4       0       0    
     4       3       0       1    
     4       2       0       2    
     3       4       1       0    
     3       3       1       1    
     2       4       2       0    

  GAS Orbital Energies
  GAS   Energies    Orb 
  1  -1.320609273  0 
  1  -0.563930450  1 
  1  -0.495003944  3 
  1  -0.678724187  4 
  2   0.202465902  2 
  2   0.292719335  5 

  ---------------------------------- Cycle 0 -----------------------------------


  ==> Diagonalizing the Hamiltonian in the P space <==

  Initial P space dimension: 31
  Spin-complete dimension of the P space: 31 determinants

  ==> Computing Coupling Lists <==
  --------------------------------
        α          0.000456 s
        β          0.000384 s
        αα         0.000633 s
        ββ         0.000587 s
        αβ         0.001615 s
  --------------------------------

  Davidson-Liu solver algorithm using SigmaVectorSparseList sigma algorithm

  Performing diagonalization of the H matrix
  Time spent diagonalizing H:   0.007270 s

    P-space  CI Energy Root   0        = -76.073064961664 Eh =   0.0000 eV, S^2 = 0.000000


  ==> Finding the Q space <==

  Using SR screening algorithm
  Time spent forming F space:             0.002077
  Time spent merging thread F spaces:             0.000040
  size of hash: 0
  Time spent building sorting list: 0.000033
  Size of F space: 0
  Time spent building the model space: 0.002398
  Spin-complete dimension of the PQ space: 31

  ==> Diagonalizing the Hamiltonian in the P + Q space <==

  Number of reference roots: 1

  ==> Computing Coupling Lists <==
  --------------------------------
        α          0.000419 s
        β          0.000383 s
        αα         0.000637 s
        ββ         0.000588 s
        αβ         0.001685 s
  --------------------------------

  Davidson-Liu solver algorithm using SigmaVectorSparseList sigma algorithm

  Performing diagonalization of the H matrix
  Total time spent diagonalizing H:   0.007276 s

    PQ-space CI Energy Root   0        = -76.073064961664 Eh =   0.0000 eV, S^2 = 0.000000
    PQ-space CI Energy + EPT2 Root   0 = -76.073064961664 Eh =   0.0000 eV

  
  GAS Contribution Analysis  
  GAS contributions root 0: 
  GAS1_A    GASI_B    GAS2_A    GAS2_B        Cont  
     4         4         0         0        0.961306808  
     4         3         0         1        0.006921107  
     4         2         0         2        0.000912174  
     3         4         1         0        0.006921107  
     3         3         1         1        0.023026630  
     2         4         2         0        0.000912174  

           6                  2            0.024850978  
           7                  1            0.013842214  
           8                  0            0.961306808  


  ==> Pruning the Q space <==

  Cycle 0 took: 0.019595 s

  ---------------------------------- Cycle 1 -----------------------------------


  ==> Diagonalizing the Hamiltonian in the P space <==

  Initial P space dimension: 31
  Spin-complete dimension of the P space: 31 determinants

  ==> Computing Coupling Lists <==
  --------------------------------
        α          0.000389 s
        β          0.000460 s
        αα         0.000614 s
        ββ         0.000605 s
        αβ         0.001565 s
  --------------------------------

  Davidson-Liu solver algorithm using SigmaVectorSparseList sigma algorithm

  Performing diagonalization of the H matrix
  Time spent diagonalizing H:   0.007249 s

    P-space  CI Energy Root   0        = -76.073064961664 Eh =   0.0000 eV, S^2 = 0.000000


  ==> Finding the Q space <==

  Using SR screening algorithm
  Time spent forming F space:             0.001793
  Time spent merging thread F spaces:             0.000032
  size of hash: 0
  Time spent building sorting list: 0.000021
  Size of F space: 0
  Time spent building the model space: 0.002018
  Spin-complete dimension of the PQ space: 31

  ==> Diagonalizing the Hamiltonian in the P + Q space <==

  Number of reference roots: 1

  ==> Computing Coupling Lists <==
  --------------------------------
        α          0.000392 s
        β          0.000378 s
        αα         0.000743 s
        ββ         0.000676 s
        αβ         0.001555 s
  --------------------------------

  Davidson-Liu solver algorithm using SigmaVectorSparseList sigma algorithm

  Performing diagonalization of the H matrix
  Total time spent diagonalizing H:   0.007353 s

    PQ-space CI Energy Root   0        = -76.073064961664 Eh =   0.0000 eV, S^2 = 0.000000
    PQ-space CI Energy + EPT2 Root   0 = -76.073064961664 Eh =   0.0000 eV

  
  GAS Contribution Analysis  
  GAS contributions root 0: 
  GAS1_A    GASI_B    GAS2_A    GAS2_B        Cont  
     4         4         0         0        0.961306808  
     4         3         0         1        0.006921107  
     4         2         0         2        0.000912174  
     3         4         1         0        0.006921107  
     3         3         1         1        0.023026630  
     2         4         2         0        0.000912174  

           6                  2            0.024850978  
           7                  1            0.013842214  
           8                  0            0.961306808  

  ***** Calculation Converged *****

  ==> ACI Natural Orbitals <==


  ==> Computing Coupling Lists <==
  --------------------------------
        α          0.000386 s
        β          0.000376 s
        1B1     1.999408      1A1     1.998835      2A1     1.977249  
        1B2     1.975131      2B2     0.025382      3A1     0.023994  

  ==> Excited state solver summary <==

  Iterations required:                         1
  Dimension of optimized determinant space:    31

  * Selected-CI Energy Root   0        = -76.073064961664 Eh =   0.0000 eV
  * Selected-CI Energy Root   0 + EPT2 = -76.073064961664 Eh =   0.0000 eV

  ==> Wavefunction Information <==

  Most important contributions to root   0:
    0   0.980463 0.961306808          30 |220220>
    1  -0.074640 0.005571158          29 |220202>
    2   0.065181 0.004248552          27 |2202+->
    3   0.065181 0.004248552          28 |2202-+>
    4   0.053278 0.002838501          26 |2+-2-+>
    5   0.053278 0.002838501          25 |2-+2+->
    6  -0.049718 0.002471876          24 |202220>
    7   0.043728 0.001912154          22 |2+-220>
    8   0.043728 0.001912154          23 |2-+220>
    9   0.032628 0.001064570          20 |-2+2+->

  Saving information for root: 0

  ==> Energy Summary <==

    Multi.(2ms)  Irrep.  No.               Energy
    ---------------------------------------------
       1  (  0)    A1     0      -76.073064961664
    ---------------------------------------------
 Weight 1.000000 

  ==> Computing Coupling Lists <==
  --------------------------------
        α          0.000003 s
        β          0.000003 s
        αα         0.000003 s
        ββ         0.000003 s
        αβ         0.000003 s
  --------------------------------

  ==> Computing Coupling Lists <==
  --------------------------------
        α          0.000406 s
        β          0.000381 s
  1-RDM  took 0.001531 s (determinant)
        αα         0.000640 s
        ββ         0.000595 s
        αβ         0.001669 s
  --------------------------------
  2-RDMS took 0.003796 s (determinant)

 CAS took 0.052287 seconds.

 FormFockIntermediates took 0.00277370 s.


 FormOrbitalGradient took 0.00093550 s.

 FormDiagHessian took 0.00068180 s.

 Update function takes 0.00452820 s
   49 0.000000436358    -0.000000001151   -76.073064961664    0.1 s  DIIS ~

  Transform Integrals takes 0.00927370 s.

  Performing a CAS with ACI

  ==> Summary of Active Space Solver Input <==

    Irrep.  Multi.(2ms)      N
    --------------------------
       A1      1  (  0)      1
    --------------------------
    N: number of roots
    ms: spin z component
    Total number of roots:   1
    --------------------------


-------------------------------------------------------------------------------
               Selected Configuration Interaction Excited States
  written by Jeffrey B. Schriber, Tianyuan Zhang and Francesco A. Evangelista
-------------------------------------------------------------------------------

  ==> Reference Information <==

  ==> Calculation Information <==

  -----------------------------------------------------------------
    Multiplicity                             1    
    Symmetry                                 0    
    Number of roots                          1    
    Ms                                       0
    Excited Algorithm                        NONE
  -----------------------------------------------------------------
  Using 1 threads
  Computing wavefunction for root 0

        ---------------------------------------------------------------
                      Adaptive Configuration Interaction
          written by Jeffrey B. Schriber and Francesco A. Evangelista
        ---------------------------------------------------------------

  ==> Reference Information <==

  There are 1 frozen orbitals.
  There are 6 active orbitals.

  ==> Calculation Information <==

  -----------------------------------------------------------------
    Multiplicity                             1    
    Symmetry                                 0    
    Number of roots                          1    
    Root used for properties                 0    
    Sigma (Eh)                               0.00e+00
    Gamma (Eh^(-1))                          1.00e+00
    Convergence threshold                    1.00e-09
    Ms                                       0
    Diagonalization algorithm                SPARSE
    Excited Algorithm                        NONE
    Project out spin contaminants            True
    Enforce spin completeness of basis       True
    Enforce complete aimed selection         True
  -----------------------------------------------------------------
  Number of active alpha electrons: 4
  Number of active beta electrons: 4
  Maximum reference space size: 1000
  The maximum number of electrons in GAS1 is 8 
  The minimum number of electrons in GAS1 is 6
  The maximum number of electrons in GAS2 is 2
  The minimum number of electrons in GAS2 is 0
  
  Possible electron occupations in the GAS 
  GAS1_A  GAS1_B  GAS2_A  GAS2_B  
     4       4       0       0    
     4       3       0       1    
     4       2       0       2    
     3       4       1       0    
     3       3       1       1    
     2       4       2       0    

  GAS Orbital Energies
  GAS   Energies    Orb 
  1  -1.320609273  0 
  1  -0.563930450  1 
  1  -0.495003944  3 
  1  -0.678724187  4 
  2   0.202465902  2 
  2   0.292719335  5 

  ---------------------------------- Cycle 0 -----------------------------------


  ==> Diagonalizing the Hamiltonian in the P space <==

  Initial P space dimension: 31
  Spin-complete dimension of the P space: 31 determinants

  ==> Computing Coupling Lists <==
  --------------------------------
        α          0.000396 s
        β          0.000379 s
        αα         0.000664 s
        ββ         0.000674 s
        αβ         0.001530 s
  --------------------------------

  Davidson-Liu solver algorithm using SigmaVectorSparseList sigma algorithm

  Performing diagonalization of the H matrix
  Time spent diagonalizing H:   0.007242 s

    P-space  CI Energy Root   0        = -76.073064961730 Eh =   0.0000 eV, S^2 = -0.000000


  ==> Finding the Q space <==

  Using SR screening algorithm
  Time spent forming F space:             0.002137
  Time spent merging thread F spaces:             0.000033
  size of hash: 0
  Time spent building sorting list: 0.000022
  Size of F space: 0
  Time spent building the model space: 0.002417
  Spin-complete dimension of the PQ space: 31

  ==> Diagonalizing the Hamiltonian in the P + Q space <==

  Number of reference roots: 1

  ==> Computing Coupling Lists <==
  --------------------------------
        α          0.000385 s
        β          0.000503 s
        αα         0.000590 s
        ββ         0.000560 s
        αβ         0.001548 s
  --------------------------------

  Davidson-Liu solver algorithm using SigmaVectorSparseList sigma algorithm

  Performing diagonalization of the H matrix
  Total time spent diagonalizing H:   0.007071 s

    PQ-space CI Energy Root   0        = -76.073064961730 Eh =   0.0000 eV, S^2 = -0.000000
    PQ-space CI Energy + EPT2 Root   0 = -76.073064961730 Eh =   0.0000 eV

  
  GAS Contribution Analysis  
  GAS contributions root 0: 
  GAS1_A    GASI_B    GAS2_A    GAS2_B        Cont  
     4         4         0         0        0.961282779  
     4         3         0         1        0.006932854  
     4         2         0         2        0.000912550  
     3         4         1         0        0.006932854  
     3         3         1         1        0.023026413  
     2         4         2         0        0.000912550  

           6                  2            0.024851513  
           7                  1            0.013865708  
           8                  0            0.961282779  


  ==> Pruning the Q space <==

  Cycle 0 took: 0.019422 s

  ---------------------------------- Cycle 1 -----------------------------------


  ==> Diagonalizing the Hamiltonian in the P space <==

  Initial P space dimension: 31
  Spin-complete dimension of the P space: 31 determinants

  ==> Computing Coupling Lists <==
  --------------------------------
        α          0.000371 s
        β          0.000371 s
        αα         0.000580 s
        ββ         0.000559 s
        αβ         0.001476 s
  --------------------------------

  Davidson-Liu solver algorithm using SigmaVectorSparseList sigma algorithm

  Performing diagonalization of the H matrix
  Time spent diagonalizing H:   0.006681 s

    P-space  CI Energy Root   0        = -76.073064961730 Eh =   0.0000 eV, S^2 = 0.000000


  ==> Finding the Q space <==

  Using SR screening algorithm
  Time spent forming F space:             0.001671
  Time spent merging thread F spaces:             0.000030
  size of hash: 0
  Time spent building sorting list: 0.000020
  Size of F space: 0
  Time spent building the model space: 0.001907
  Spin-complete dimension of the PQ space: 31

  ==> Diagonalizing the Hamiltonian in the P + Q space <==

  Number of reference roots: 1

  ==> Computing Coupling Lists <==
  --------------------------------
        α          0.000377 s
        β          0.000371 s
        αα         0.000667 s
        ββ         0.000556 s
        αβ         0.001458 s
  --------------------------------

  Davidson-Liu solver algorithm using SigmaVectorSparseList sigma algorithm

  Performing diagonalization of the H matrix
  Total time spent diagonalizing H:   0.006832 s

    PQ-space CI Energy Root   0        = -76.073064961730 Eh =   0.0000 eV, S^2 = 0.000000
    PQ-space CI Energy + EPT2 Root   0 = -76.073064961730 Eh =   0.0000 eV

  
  GAS Contribution Analysis  
  GAS contributions root 0: 
  GAS1_A    GASI_B    GAS2_A    GAS2_B        Cont  
     4         4         0         0        0.961282779  
     4         3         0         1        0.006932854  
     4         2         0         2        0.000912550  
     3         4         1         0        0.006932854  
     3         3         1         1        0.023026413  
     2         4         2         0        0.000912550  

           6                  2            0.024851513  
           7                  1            0.013865708  
           8                  0            0.961282779  

  ***** Calculation Converged *****

  ==> ACI Natural Orbitals <==


  ==> Computing Coupling Lists <==
  --------------------------------
        α          0.000366 s
        β          0.000356 s
        1B1     1.999408      1A1     1.998835      2A1     1.977249  
        1B2     1.975131      2B2     0.025382      3A1     0.023995  

  ==> Excited state solver summary <==

  Iterations required:                         1
  Dimension of optimized determinant space:    31

  * Selected-CI Energy Root   0        = -76.073064961730 Eh =   0.0000 eV
  * Selected-CI Energy Root   0 + EPT2 = -76.073064961730 Eh =   0.0000 eV

  ==> Wavefunction Information <==

  Most important contributions to root   0:
    0   0.980450 0.961282779          30 |220220>
    1  -0.074633 0.005570137          29 |220202>
    2   0.065231 0.004255027          28 |2202-+>
    3   0.065231 0.004255027          27 |2202+->
    4   0.053283 0.002839083          26 |2+-2-+>
    5   0.053283 0.002839083          25 |2-+2+->
    6  -0.049714 0.002471473          24 |202220>
    7   0.043774 0.001916126          23 |2+-220>
    8   0.043774 0.001916126          22 |2-+220>
    9   0.032631 0.001064773          20 |+2-2-+>

  Saving information for root: 0

  ==> Energy Summary <==

    Multi.(2ms)  Irrep.  No.               Energy
    ---------------------------------------------
       1  (  0)    A1     0      -76.073064961730
    ---------------------------------------------
 Weight 1.000000 

  ==> Computing Coupling Lists <==
  --------------------------------
        α          0.000003 s
        β          0.000002 s
        αα         0.000002 s
        ββ         0.000002 s
        αβ         0.000002 s
  --------------------------------

  ==> Computing Coupling Lists <==
  --------------------------------
        α          0.000471 s
        β          0.000360 s
  1-RDM  took 0.001473 s (determinant)
        αα         0.000574 s
        ββ         0.000565 s
        αβ         0.001446 s
  --------------------------------
  2-RDMS took 0.003508 s (determinant)

 CAS took 0.050266 seconds.

 FormFockIntermediates took 0.00258370 s.


 FormOrbitalGradient took 0.00086590 s.

 FormDiagHessian took 0.00073070 s.

 Update function takes 0.00432780 s
    50   0.000000418436   -0.000000000067   -76.073064961730    0.064608 s

  A miracle has come to pass: CASSCF iterations have converged.

 @ Final CASSCF Energy =  -76.073064961730083


  ==> Semi-canonicalize CASSCF Orbitals <==

    Building Fock matrix  ... Done.
    Diagonalizing block 0 ... Done.
    Diagonalizing block 1 ... Done.
    Diagonalizing block 2 ... Done.

  Time to prepare integrals:        0.202 seconds
  Time to run job          :        4.214 seconds
  Total                    :        4.214 seconds	GASSCF energy.....................................................PASSED

    Psi4 stopped on: Sunday, 09 August 2020 10:22PM
    Psi4 wall time for execution: 0:00:05.34

*** Psi4 exiting successfully. Buy a developer a beer!
