
    -----------------------------------------------------------------------
          Psi4: An Open-Source Ab Initio Electronic Structure Package
                               Psi4 undefined 

                         Git: Rev {master} 4dde4d8 


    D. G. A. Smith, L. A. Burns, A. C. Simmonett, R. M. Parrish,
    M. C. Schieber, R. Galvelis, P. Kraus, H. Kruse, R. Di Remigio,
    A. Alenaizan, A. M. James, S. Lehtola, J. P. Misiewicz, M. Scheurer,
    R. A. Shaw, J. B. Schriber, Y. Xie, Z. L. Glick, D. A. Sirianni,
    J. S. O'Brien, J. M. Waldrop, A. Kumar, E. G. Hohenstein,
    B. P. Pritchard, B. R. Brooks, H. F. Schaefer III, A. Yu. Sokolov,
    K. Patkowski, A. E. DePrince III, U. Bozkaya, R. A. King,
    F. A. Evangelista, J. M. Turney, T. D. Crawford, C. D. Sherrill,
    J. Chem. Phys. 152(18) 184108 (2020). https://doi.org/10.1063/5.0006002

                            Additional Code Authors
    E. T. Seidl, C. L. Janssen, E. F. Valeev, M. L. Leininger,
    J. F. Gonthier, R. M. Richard, H. R. McAlexander, M. Saitow, X. Wang,
    P. Verma, and M. H. Lechner

             Previous Authors, Complete List of Code Contributors,
                       and Citations for Specific Modules
    https://github.com/psi4/psi4/blob/master/codemeta.json
    https://github.com/psi4/psi4/graphs/contributors
    http://psicode.org/psi4manual/master/introduction.html#citing-psifour

    -----------------------------------------------------------------------


    Psi4 started on: Wednesday, 09 December 2020 03:57PM

    Process ID: 76909
    Host:       Yorks-Mac.local
    PSIDATADIR: /Users/york/src/psi4new/psi4/share/psi4
    Memory:     500.0 MiB
    Threads:    8
    
  ==> Input File <==

--------------------------------------------------------------------------
import forte

#refgs = -190.903043353085195
#refgs = -190.903043353414034
refgs = -190.903043353477869  # 2020-12-9 psi4@4dde4d8 after shell screening
#refex = -190.460579061322 # NB: previous value was: -190.460579057245468
#refex = -190.46057905898135
refex = -190.460579059045074  # 2020-12-9 psi4@4dde4d8 after shell screening
memory 1 gb

molecule acetone {
0   1
H   0.000000   2.136732  -0.112445
H   0.000000  -2.136732  -0.112445
H  -0.881334   1.333733  -1.443842
H   0.881334  -1.333733  -1.443842
H  -0.881334  -1.333733  -1.443842
H   0.881334   1.333733  -1.443842
C   0.000000   0.000000   0.000000
C   0.000000   1.287253  -0.795902
C   0.000000  -1.287253  -0.795902
O   0.000000   0.000000   1.227600
units angstrom
}

set globals {
  df_scf_guess     false
  scf_type         PK
  basis            3-21g
  docc             [8, 1, 2, 5]
  guess            GWH
  reference        RHF
  e_convergence    12
}

set forte{
  frozen_docc      [3, 0, 0, 1]
  restricted_docc  [4, 1, 1, 3]
  active           [2, 0, 2, 1]
  multiplicity      1
  root_sym          0
  nroot             1
  int_type          conventional
  active_space_solver   fci
}

energy('scf')
gs_energy = energy('forte')
compare_values(refgs, gs_energy, 10, "Ground state FCI energy") #TEST

set forte nroot 2
set forte root  1
energy('scf')
ex_energy = energy('forte')
compare_values(refex, ex_energy, 10, "Singlet Excited State FCI energy") #TEST

--------------------------------------------------------------------------

  Memory set to 953.674 MiB by Python driver.

Scratch directory: /Users/york/scratch/psi4/

*** tstart() called on Yorks-Mac.local
*** at Wed Dec  9 15:57:13 2020

   => Loading Basis Set <=

    Name: 3-21G
    Role: ORBITAL
    Keyword: BASIS
    atoms 1-6 entry H          line    21 file /Users/york/src/psi4new/psi4/share/psi4/basis/3-21g.gbs 
    atoms 7-9 entry C          line    68 file /Users/york/src/psi4new/psi4/share/psi4/basis/3-21g.gbs 
    atoms 10  entry O          line    90 file /Users/york/src/psi4new/psi4/share/psi4/basis/3-21g.gbs 


         ---------------------------------------------------------
                                   SCF
               by Justin Turney, Rob Parrish, Andy Simmonett
                          and Daniel G. A. Smith
                              RHF Reference
                        8 Threads,    953 MiB Core
         ---------------------------------------------------------

  ==> Geometry <==

    Molecular point group: c2v
    Full point group: C2v

    Geometry (in Angstrom), charge = 0, multiplicity = 1:

       Center              X                  Y                   Z               Mass       
    ------------   -----------------  -----------------  -----------------  -----------------
         H           -0.000000000000     2.136732000000    -0.017453203251     1.007825032230
         H            0.000000000000    -2.136732000000    -0.017453203251     1.007825032230
         H           -0.881334000000     1.333733000000    -1.348850203251     1.007825032230
         H            0.881334000000    -1.333733000000    -1.348850203251     1.007825032230
         H           -0.881334000000    -1.333733000000    -1.348850203251     1.007825032230
         H            0.881334000000     1.333733000000    -1.348850203251     1.007825032230
         C            0.000000000000     0.000000000000     0.094991796749    12.000000000000
         C           -0.000000000000     1.287253000000    -0.700910203251    12.000000000000
         C            0.000000000000    -1.287253000000    -0.700910203251    12.000000000000
         O            0.000000000000     0.000000000000     1.322591796749    15.994914619570

  Running in c2v symmetry.

  Rotational constants: A =      0.33485  B =      0.28440  C =      0.16310 [cm^-1]
  Rotational constants: A =  10038.42884  B =   8526.21460  C =   4889.72223 [MHz]
  Nuclear repulsion =  119.013265880613531

  Charge       = 0
  Multiplicity = 1
  Electrons    = 32
  Nalpha       = 16
  Nbeta        = 16

  ==> Algorithm <==

  SCF Algorithm Type is PK.
  DIIS enabled.
  MOM disabled.
  Fractional occupation disabled.
  Guess Type is GWH.
  Energy threshold   = 1.00e-12
  Density threshold  = 1.00e-06
  Integral threshold = 1.00e-12

  ==> Primary Basis <==

  Basis Set: 3-21G
    Blend: 3-21G
    Number of shells: 32
    Number of basis function: 48
    Number of Cartesian functions: 48
    Spherical Harmonics?: false
    Max angular momentum: 1

  ==> Integral Setup <==

  Using in-core PK algorithm.
   Calculation information:
      Number of atoms:                  10
      Number of AO shells:              32
      Number of primitives:             54
      Number of atomic orbitals:        48
      Number of basis functions:        48

      Integral cutoff                 1.00e-12
      Number of threads:                 8

  Performing in-core PK
  Using 1384152 doubles for integral storage.
  We computed 193845 shell quartets total.
  Whereas there are 139656 unique shell quartets.
    38.80 percent of shell quartets recomputed by reordering.

  ==> DiskJK: Disk-Based J/K Matrices <==

    J tasked:                  Yes
    K tasked:                  Yes
    wK tasked:                  No
    Memory [MiB]:              715
    Schwarz Cutoff:          1E-12

    OpenMP threads:              8

  Minimum eigenvalue in the overlap matrix is 1.5351576459E-02.
  Reciprocal condition number of the overlap matrix is 3.9476045993E-03.
    Using symmetric orthogonalization.

  ==> Pre-Iterations <==

  SCF Guess: Generalized Wolfsberg-Helmholtz.

   -------------------------------------------------------
    Irrep   Nso     Nmo     Nalpha   Nbeta   Ndocc  Nsocc
   -------------------------------------------------------
     A1        21      21       8       8       8       0
     A2         4       4       1       1       1       0
     B1         8       8       2       2       2       0
     B2        15      15       5       5       5       0
   -------------------------------------------------------
    Total      48      48      16      16      16       0
   -------------------------------------------------------

  ==> Iterations <==

                        Total Energy        Delta E     RMS |[F,P]|

   @RHF iter   1:  -187.27391668672124   -1.87274e+02   1.12539e-01 DIIS
   @RHF iter   2:  -180.35110686170947    6.92281e+00   1.03058e-01 DIIS
   @RHF iter   3:  -189.00974763065710   -8.65864e+00   7.17009e-02 DIIS
   @RHF iter   4:  -190.36715266800456   -1.35741e+00   3.48777e-02 DIIS
   @RHF iter   5:  -190.83292951829321   -4.65777e-01   9.44992e-03 DIIS
   @RHF iter   6:  -190.87826214788959   -4.53326e-02   3.45136e-03 DIIS
   @RHF iter   7:  -190.88536868011397   -7.10653e-03   1.16084e-03 DIIS
   @RHF iter   8:  -190.88604640876716   -6.77729e-04   4.28749e-04 DIIS
   @RHF iter   9:  -190.88629946823684   -2.53059e-04   1.44181e-04 DIIS
   @RHF iter  10:  -190.88631371520768   -1.42470e-05   1.90608e-05 DIIS
   @RHF iter  11:  -190.88631410873381   -3.93526e-07   2.23723e-06 DIIS
   @RHF iter  12:  -190.88631411398944   -5.25563e-09   2.76348e-07 DIIS
   @RHF iter  13:  -190.88631411404256   -5.31202e-11   5.21575e-08 DIIS
   @RHF iter  14:  -190.88631411404410   -1.53477e-12   7.78940e-09 DIIS
   @RHF iter  15:  -190.88631411404435   -2.55795e-13   9.99507e-10 DIIS
  Energy and wave function converged.


  ==> Post-Iterations <==

    Orbital Energies [Eh]
    ---------------------

    Doubly Occupied:                                                      

       1A1   -20.450989     2A1   -11.281277     1B2   -11.177732  
       3A1   -11.177294     4A1    -1.388891     5A1    -1.043786  
       2B2    -0.969681     6A1    -0.734892     3B2    -0.646172  
       7A1    -0.629084     1B1    -0.624178     1A2    -0.558976  
       8A1    -0.552685     4B2    -0.534387     2B1    -0.470571  
       5B2    -0.404374  

    Virtual:                                                              

       3B1     0.160939     9A1     0.258865    10A1     0.301619  
       6B2     0.325971     2A2     0.342360     4B1     0.346139  
       7B2     0.356770    11A1     0.391923     8B2     0.510611  
      12A1     0.576494    13A1     0.879713     5B1     0.932816  
       3A2     0.972850     9B2     0.992052    14A1     1.024501  
      10B2     1.096217    15A1     1.109551     6B1     1.135723  
      16A1     1.261667    11B2     1.269939     7B1     1.292353  
       4A2     1.345839    12B2     1.354285    17A1     1.358628  
      13B2     1.436649    18A1     1.715433    19A1     1.908962  
       8B1     1.928085    14B2     2.033953    20A1     2.122216  
      15B2     2.277183    21A1     3.542146  

    Final Occupation by Irrep:
             A1    A2    B1    B2 
    DOCC [     8,    1,    2,    5 ]

  @RHF Final Energy:  -190.88631411404435

   => Energetics <=

    Nuclear Repulsion Energy =            119.0132658806135311
    One-Electron Energy =                -494.5092184953809351
    Two-Electron Energy =                 184.6096385007230651
    Total Energy =                       -190.8863141140443531

Computation Completed


Properties will be evaluated at   0.000000,   0.000000,   0.000000 [a0]

Properties computed using the SCF density matrix

  Nuclear Dipole Moment: [e a0]
     X:     0.0000      Y:     0.0000      Z:    -5.0844

  Electronic Dipole Moment: [e a0]
     X:     0.0000      Y:     0.0000      Z:     3.8236

  Dipole Moment: [e a0]
     X:     0.0000      Y:     0.0000      Z:    -1.2608     Total:     1.2608

  Dipole Moment: [D]
     X:     0.0000      Y:     0.0000      Z:    -3.2045     Total:     3.2045


*** tstop() called on Yorks-Mac.local at Wed Dec  9 15:57:13 2020
Module time:
	user time   =       1.26 seconds =       0.02 minutes
	system time =       0.02 seconds =       0.00 minutes
	total time  =          0 seconds =       0.00 minutes
Total time:
	user time   =       1.26 seconds =       0.02 minutes
	system time =       0.02 seconds =       0.00 minutes
	total time  =          0 seconds =       0.00 minutes

Scratch directory: /Users/york/scratch/psi4/

  Forte
  ----------------------------------------------------------------------------
  A suite of quantum chemistry methods for strongly correlated electrons

    git branch: mcscf_rotation_printing - git commit: 87e7ba05

  Developed by:
    Francesco A. Evangelista, Chenyang Li, Kevin P. Hannon,
    Jeffrey B. Schriber, Tianyuan Zhang, Chenxi Cai,
    Nan He, Nicholas Stair, Shuhe Wang, Renke Huang
  ----------------------------------------------------------------------------

  Size of Determinant class: 256 bits
  Preparing forte objects from a psi4 Wavefunction object
  No reference wavefunction provided. Computing SCF orbitals with psi4

*** tstart() called on Yorks-Mac.local
*** at Wed Dec  9 15:57:13 2020

   => Loading Basis Set <=

    Name: 3-21G
    Role: ORBITAL
    Keyword: BASIS
    atoms 1-6 entry H          line    21 file /Users/york/src/psi4new/psi4/share/psi4/basis/3-21g.gbs 
    atoms 7-9 entry C          line    68 file /Users/york/src/psi4new/psi4/share/psi4/basis/3-21g.gbs 
    atoms 10  entry O          line    90 file /Users/york/src/psi4new/psi4/share/psi4/basis/3-21g.gbs 


         ---------------------------------------------------------
                                   SCF
               by Justin Turney, Rob Parrish, Andy Simmonett
                          and Daniel G. A. Smith
                              RHF Reference
                        8 Threads,    953 MiB Core
         ---------------------------------------------------------

  ==> Geometry <==

    Molecular point group: c2v
    Full point group: C2v

    Geometry (in Angstrom), charge = 0, multiplicity = 1:

       Center              X                  Y                   Z               Mass       
    ------------   -----------------  -----------------  -----------------  -----------------
         H           -0.000000000000     2.136732000000    -0.017453203251     1.007825032230
         H            0.000000000000    -2.136732000000    -0.017453203251     1.007825032230
         H           -0.881334000000     1.333733000000    -1.348850203251     1.007825032230
         H            0.881334000000    -1.333733000000    -1.348850203251     1.007825032230
         H           -0.881334000000    -1.333733000000    -1.348850203251     1.007825032230
         H            0.881334000000     1.333733000000    -1.348850203251     1.007825032230
         C            0.000000000000     0.000000000000     0.094991796749    12.000000000000
         C           -0.000000000000     1.287253000000    -0.700910203251    12.000000000000
         C            0.000000000000    -1.287253000000    -0.700910203251    12.000000000000
         O            0.000000000000     0.000000000000     1.322591796749    15.994914619570

  Running in c2v symmetry.

  Rotational constants: A =      0.33485  B =      0.28440  C =      0.16310 [cm^-1]
  Rotational constants: A =  10038.42884  B =   8526.21460  C =   4889.72223 [MHz]
  Nuclear repulsion =  119.013265880613531

  Charge       = 0
  Multiplicity = 1
  Electrons    = 32
  Nalpha       = 16
  Nbeta        = 16

  ==> Algorithm <==

  SCF Algorithm Type is PK.
  DIIS enabled.
  MOM disabled.
  Fractional occupation disabled.
  Guess Type is GWH.
  Energy threshold   = 1.00e-12
  Density threshold  = 1.00e-08
  Integral threshold = 1.00e-12

  ==> Primary Basis <==

  Basis Set: 3-21G
    Blend: 3-21G
    Number of shells: 32
    Number of basis function: 48
    Number of Cartesian functions: 48
    Spherical Harmonics?: false
    Max angular momentum: 1

  ==> Integral Setup <==

  Using in-core PK algorithm.
   Calculation information:
      Number of atoms:                  10
      Number of AO shells:              32
      Number of primitives:             54
      Number of atomic orbitals:        48
      Number of basis functions:        48

      Integral cutoff                 1.00e-12
      Number of threads:                 8

  Performing in-core PK
  Using 1384152 doubles for integral storage.
  We computed 193845 shell quartets total.
  Whereas there are 139656 unique shell quartets.
    38.80 percent of shell quartets recomputed by reordering.

  ==> DiskJK: Disk-Based J/K Matrices <==

    J tasked:                  Yes
    K tasked:                  Yes
    wK tasked:                  No
    Memory [MiB]:              715
    Schwarz Cutoff:          1E-12

    OpenMP threads:              8

  Minimum eigenvalue in the overlap matrix is 1.5351576459E-02.
  Reciprocal condition number of the overlap matrix is 3.9476045993E-03.
    Using symmetric orthogonalization.

  ==> Pre-Iterations <==

  SCF Guess: Generalized Wolfsberg-Helmholtz.

   -------------------------------------------------------
    Irrep   Nso     Nmo     Nalpha   Nbeta   Ndocc  Nsocc
   -------------------------------------------------------
     A1        21      21       8       8       8       0
     A2         4       4       1       1       1       0
     B1         8       8       2       2       2       0
     B2        15      15       5       5       5       0
   -------------------------------------------------------
    Total      48      48      16      16      16       0
   -------------------------------------------------------

  ==> Iterations <==

                        Total Energy        Delta E     RMS |[F,P]|

   @RHF iter   1:  -187.27391668672124   -1.87274e+02   1.12539e-01 DIIS
   @RHF iter   2:  -180.35110686170947    6.92281e+00   1.03058e-01 DIIS
   @RHF iter   3:  -189.00974763065710   -8.65864e+00   7.17009e-02 DIIS
   @RHF iter   4:  -190.36715266800456   -1.35741e+00   3.48777e-02 DIIS
   @RHF iter   5:  -190.83292951829321   -4.65777e-01   9.44992e-03 DIIS
   @RHF iter   6:  -190.87826214788959   -4.53326e-02   3.45136e-03 DIIS
   @RHF iter   7:  -190.88536868011397   -7.10653e-03   1.16084e-03 DIIS
   @RHF iter   8:  -190.88604640876716   -6.77729e-04   4.28749e-04 DIIS
   @RHF iter   9:  -190.88629946823684   -2.53059e-04   1.44181e-04 DIIS
   @RHF iter  10:  -190.88631371520768   -1.42470e-05   1.90608e-05 DIIS
   @RHF iter  11:  -190.88631410873381   -3.93526e-07   2.23723e-06 DIIS
   @RHF iter  12:  -190.88631411398944   -5.25563e-09   2.76348e-07 DIIS
   @RHF iter  13:  -190.88631411404256   -5.31202e-11   5.21575e-08 DIIS
   @RHF iter  14:  -190.88631411404410   -1.53477e-12   7.78940e-09 DIIS
   @RHF iter  15:  -190.88631411404435   -2.55795e-13   9.99507e-10 DIIS
  Energy and wave function converged.


  ==> Post-Iterations <==

    Orbital Energies [Eh]
    ---------------------

    Doubly Occupied:                                                      

       1A1   -20.450989     2A1   -11.281277     1B2   -11.177732  
       3A1   -11.177294     4A1    -1.388891     5A1    -1.043786  
       2B2    -0.969681     6A1    -0.734892     3B2    -0.646172  
       7A1    -0.629084     1B1    -0.624178     1A2    -0.558976  
       8A1    -0.552685     4B2    -0.534387     2B1    -0.470571  
       5B2    -0.404374  

    Virtual:                                                              

       3B1     0.160939     9A1     0.258865    10A1     0.301619  
       6B2     0.325971     2A2     0.342360     4B1     0.346139  
       7B2     0.356770    11A1     0.391923     8B2     0.510611  
      12A1     0.576494    13A1     0.879713     5B1     0.932816  
       3A2     0.972850     9B2     0.992052    14A1     1.024501  
      10B2     1.096217    15A1     1.109551     6B1     1.135723  
      16A1     1.261667    11B2     1.269939     7B1     1.292353  
       4A2     1.345839    12B2     1.354285    17A1     1.358628  
      13B2     1.436649    18A1     1.715433    19A1     1.908962  
       8B1     1.928085    14B2     2.033953    20A1     2.122216  
      15B2     2.277183    21A1     3.542146  

    Final Occupation by Irrep:
             A1    A2    B1    B2 
    DOCC [     8,    1,    2,    5 ]

  @RHF Final Energy:  -190.88631411404435

   => Energetics <=

    Nuclear Repulsion Energy =            119.0132658806135311
    One-Electron Energy =                -494.5092184953809351
    Two-Electron Energy =                 184.6096385007230651
    Total Energy =                       -190.8863141140443531

Computation Completed


Properties will be evaluated at   0.000000,   0.000000,   0.000000 [a0]

Properties computed using the SCF density matrix

  Nuclear Dipole Moment: [e a0]
     X:     0.0000      Y:     0.0000      Z:    -5.0844

  Electronic Dipole Moment: [e a0]
     X:     0.0000      Y:     0.0000      Z:     3.8236

  Dipole Moment: [e a0]
     X:     0.0000      Y:     0.0000      Z:    -1.2608     Total:     1.2608

  Dipole Moment: [D]
     X:     0.0000      Y:     0.0000      Z:    -3.2045     Total:     3.2045


*** tstop() called on Yorks-Mac.local at Wed Dec  9 15:57:13 2020
Module time:
	user time   =       1.88 seconds =       0.03 minutes
	system time =       0.02 seconds =       0.00 minutes
	total time  =          0 seconds =       0.00 minutes
Total time:
	user time   =       3.20 seconds =       0.05 minutes
	system time =       0.04 seconds =       0.00 minutes
	total time  =          0 seconds =       0.00 minutes

  Read options for space FROZEN_DOCC
  Read options for space RESTRICTED_DOCC
  Read options for space ACTIVE
  Read options for space FROZEN_DOCC
  Read options for space RESTRICTED_DOCC

  ==> MO Space Information <==

  -------------------------------------------------
                       A1    A2    B1    B2   Sum
  -------------------------------------------------
    FROZEN_DOCC         3     0     0     1     4
    RESTRICTED_DOCC     4     1     1     3     9
    GAS1                2     0     2     1     5
    GAS2                0     0     0     0     0
    GAS3                0     0     0     0     0
    GAS4                0     0     0     0     0
    GAS5                0     0     0     0     0
    GAS6                0     0     0     0     0
    RESTRICTED_UOCC    12     3     5    10    30
    FROZEN_UOCC         0     0     0     0     0
    Total              21     4     8    15    48
  -------------------------------------------------

  Forte Testing Orbital Orthonormality ...   => Loading Basis Set <=

    Name: 3-21G
    Role: ORBITAL
    Keyword: BASIS
    atoms 1-6 entry H          line    21 file /Users/york/src/psi4new/psi4/share/psi4/basis/3-21g.gbs 
    atoms 7-9 entry C          line    68 file /Users/york/src/psi4new/psi4/share/psi4/basis/3-21g.gbs 
    atoms 10  entry O          line    90 file /Users/york/src/psi4new/psi4/share/psi4/basis/3-21g.gbs 


  Done checking orbital orthonormality (OK).   => Loading Basis Set <=

    Name: STO-3G
    Role: ORBITAL
    Keyword: MINAO_BASIS
    atoms 1-6 entry H          line    19 file /Users/york/src/psi4new/psi4/share/psi4/basis/sto-3g.gbs 
    atoms 7-9 entry C          line    61 file /Users/york/src/psi4new/psi4/share/psi4/basis/sto-3g.gbs 
    atoms 10  entry O          line    81 file /Users/york/src/psi4new/psi4/share/psi4/basis/sto-3g.gbs 


  Forte will use psi4 integrals

  ==> Primary Basis Set Summary <==

  Basis Set: 3-21G
    Blend: 3-21G
    Number of shells: 32
    Number of basis function: 48
    Number of Cartesian functions: 48
    Spherical Harmonics?: false
    Max angular momentum: 1


  JK created using conventional PK integrals
  Using in-core PK algorithm.
   Calculation information:
      Number of atoms:                  10
      Number of AO shells:              32
      Number of primitives:             54
      Number of atomic orbitals:        48
      Number of basis functions:        48

      Integral cutoff                 1.00e-12
      Number of threads:                 8

  Performing in-core PK
  Using 1384152 doubles for integral storage.
  We computed 193845 shell quartets total.
  Whereas there are 139656 unique shell quartets.
    38.80 percent of shell quartets recomputed by reordering.

  ==> DiskJK: Disk-Based J/K Matrices <==

    J tasked:                  Yes
    K tasked:                  Yes
    wK tasked:                  No
    Memory [MiB]:              762
    Schwarz Cutoff:          1E-12

    OpenMP threads:              8



  ==> Integral Transformation <==

  Number of molecular orbitals:                         48
  Number of correlated molecular orbitals:              44
  Number of frozen occupied orbitals:                    4
  Number of frozen unoccupied orbitals:                  0
  Two-electron integral type:                 Conventional


  Computing Conventional Integrals	Presorting SO-basis two-electron integrals.
	Sorting File: SO Ints (nn|nn) nbuckets = 1
	Constructing frozen core operators
	Starting first half-transformation.
	Sorting half-transformed integrals.
	First half integral transformation complete.
	Starting second half-transformation.
	Two-electron integral transformation complete.

  Integral transformation done. 0.09181172 s
  Reading the two-electron integrals from disk
  Size of two-electron integrals:   0.118652 GB
  Timing for conventional integral transformation:            0.253 s.
  Frozen-core energy        -207.481736319328149 a.u.
  Timing for frozen one-body operator:                        0.002 s.
  Resorting integrals after freezing core.
  Timing for freezing core and virtual orbitals:              0.061 s.
  Timing for computing conventional integrals:                0.315 s.

  ==> Summary of Active Space Solver Input <==

    Irrep.  Multi.(2ms)      N
    --------------------------
       A1      1  (  0)      1
    --------------------------
    N: number of roots
    ms: spin z component
    Total number of roots:   1
    --------------------------


  ==> String Lists <==

  Number of alpha electrons     = 3
  Number of beta electrons      = 3
  Number of alpha strings       = 10
  Number of beta strings        = 10
  Number of alpha strings (N-3) = 1
  Number of beta strings (N-3)  = 1
  Timing for strings        =      0.000 s
  Timing for NN strings     =      0.000 s
  Timing for VO strings     =      0.000 s
  Timing for OO strings     =      0.000 s
  Timing for VVOO strings   =      0.000 s
  Timing for VOVO strings   =      0.000 s
  Timing for 1-hole strings =      0.000 s
  Timing for 2-hole strings =      0.000 s
  Timing for 3-hole strings =      0.000 s
  Total timing              =      0.000 s

  ==> FCI Solver <==

    Number of determinants                          28
    Symmetry                                         0
    Multiplicity                                     1
    Number of roots                                  1
    Target root                                      0
    Trial vectors per root                          10

  Allocating memory for the Hamiltonian algorithm. Size: 2 x 4 x 4.   Memory: 0.000000 GB
  Initial guess space is incomplete.
  Adding 1 determinant(s).

  ==> FCI Initial Guess <==

  ---------------------------------------------
    Root            Energy     <S^2>   Spin
  ---------------------------------------------
      0     -190.903039632183  0.000  singlet
      1     -190.653861026542  2.000  triplet
      2     -190.460481382033  0.000  singlet
      3     -190.377444991215  0.000  singlet
      4     -190.324610850373  2.000  triplet
      5     -190.304363943652  0.000  singlet
      6     -190.113373963007  0.000  singlet
      7     -190.067401022157  6.000  quintet
      8     -190.037956861038  2.000  triplet
      9     -190.018108918072  2.000  triplet
     10     -190.009405425584  0.000  singlet
     11     -189.972917146476  0.000  singlet
     12     -189.897776522675  2.000  triplet
     13     -189.876818170224  0.000  singlet
     14     -189.728595864166  2.000  triplet
     15     -189.707991624077  0.000  singlet
     16     -189.657061486857  0.000  singlet
     17     -189.588657357670  0.000  singlet
     18     -189.530442273296  0.000  singlet
     19     -189.432627974218  2.000  triplet
     20     -189.410629034542  0.000  singlet
  ---------------------------------------------
  Timing for initial guess  =      0.002 s

  Projecting out root 1
  Projecting out root 4
  Projecting out root 7
  Projecting out root 8
  Projecting out root 9
  Projecting out root 12
  Projecting out root 14
  Projecting out root 19

  ==> Diagonalizing Hamiltonian <==

  Energy   convergence: 1.00e-12
  Residual convergence: 1.00e-06
  -----------------------------------------------------
    Iter.      Avg. Energy       Delta_E     Res. Norm
  -----------------------------------------------------
      1     -190.903039632183  -1.909e+02  +2.908e-03
      2     -190.903043270449  -3.638e-06  +3.710e-04
      3     -190.903043351796  -8.135e-08  +4.755e-05
      4     -190.903043353363  -1.567e-09  +1.221e-05
      5     -190.903043353474  -1.110e-10  +2.430e-06
      6     -190.903043353478  -3.837e-12  +1.873e-07
      7     -190.903043353478  -2.842e-14  +4.263e-08
  -----------------------------------------------------
  The Davidson-Liu algorithm converged in 8 iterations.

  ==> Root No. 0 <==

    20 20 2     -0.98852086
    20 02 2      0.14606128

    Total Energy:      -190.903043353477869

  ==> Energy Summary <==

    Multi.(2ms)  Irrep.  No.               Energy
    ---------------------------------------------
       1  (  0)    A1     0     -190.903043353478
    ---------------------------------------------

  Time to prepare integrals:        0.442 seconds
  Time to run job          :        0.005 seconds
  Total                    :        0.005 seconds    Ground state FCI energy...............................................................PASSED

Scratch directory: /Users/york/scratch/psi4/

*** tstart() called on Yorks-Mac.local
*** at Wed Dec  9 15:57:14 2020

   => Loading Basis Set <=

    Name: 3-21G
    Role: ORBITAL
    Keyword: BASIS
    atoms 1-6 entry H          line    21 file /Users/york/src/psi4new/psi4/share/psi4/basis/3-21g.gbs 
    atoms 7-9 entry C          line    68 file /Users/york/src/psi4new/psi4/share/psi4/basis/3-21g.gbs 
    atoms 10  entry O          line    90 file /Users/york/src/psi4new/psi4/share/psi4/basis/3-21g.gbs 


         ---------------------------------------------------------
                                   SCF
               by Justin Turney, Rob Parrish, Andy Simmonett
                          and Daniel G. A. Smith
                              RHF Reference
                        8 Threads,    953 MiB Core
         ---------------------------------------------------------

  ==> Geometry <==

    Molecular point group: c2v
    Full point group: C2v

    Geometry (in Angstrom), charge = 0, multiplicity = 1:

       Center              X                  Y                   Z               Mass       
    ------------   -----------------  -----------------  -----------------  -----------------
         H           -0.000000000000     2.136732000000    -0.017453203251     1.007825032230
         H            0.000000000000    -2.136732000000    -0.017453203251     1.007825032230
         H           -0.881334000000     1.333733000000    -1.348850203251     1.007825032230
         H            0.881334000000    -1.333733000000    -1.348850203251     1.007825032230
         H           -0.881334000000    -1.333733000000    -1.348850203251     1.007825032230
         H            0.881334000000     1.333733000000    -1.348850203251     1.007825032230
         C            0.000000000000     0.000000000000     0.094991796749    12.000000000000
         C           -0.000000000000     1.287253000000    -0.700910203251    12.000000000000
         C            0.000000000000    -1.287253000000    -0.700910203251    12.000000000000
         O            0.000000000000     0.000000000000     1.322591796749    15.994914619570

  Running in c2v symmetry.

  Rotational constants: A =      0.33485  B =      0.28440  C =      0.16310 [cm^-1]
  Rotational constants: A =  10038.42884  B =   8526.21460  C =   4889.72223 [MHz]
  Nuclear repulsion =  119.013265880613531

  Charge       = 0
  Multiplicity = 1
  Electrons    = 32
  Nalpha       = 16
  Nbeta        = 16

  ==> Algorithm <==

  SCF Algorithm Type is PK.
  DIIS enabled.
  MOM disabled.
  Fractional occupation disabled.
  Guess Type is GWH.
  Energy threshold   = 1.00e-12
  Density threshold  = 1.00e-06
  Integral threshold = 1.00e-12

  ==> Primary Basis <==

  Basis Set: 3-21G
    Blend: 3-21G
    Number of shells: 32
    Number of basis function: 48
    Number of Cartesian functions: 48
    Spherical Harmonics?: false
    Max angular momentum: 1

  ==> Integral Setup <==

  Using in-core PK algorithm.
   Calculation information:
      Number of atoms:                  10
      Number of AO shells:              32
      Number of primitives:             54
      Number of atomic orbitals:        48
      Number of basis functions:        48

      Integral cutoff                 1.00e-12
      Number of threads:                 8

  Performing in-core PK
  Using 1384152 doubles for integral storage.
  We computed 193845 shell quartets total.
  Whereas there are 139656 unique shell quartets.
    38.80 percent of shell quartets recomputed by reordering.

  ==> DiskJK: Disk-Based J/K Matrices <==

    J tasked:                  Yes
    K tasked:                  Yes
    wK tasked:                  No
    Memory [MiB]:              715
    Schwarz Cutoff:          1E-12

    OpenMP threads:              8

  Minimum eigenvalue in the overlap matrix is 1.5351576459E-02.
  Reciprocal condition number of the overlap matrix is 3.9476045993E-03.
    Using symmetric orthogonalization.

  ==> Pre-Iterations <==

  SCF Guess: Generalized Wolfsberg-Helmholtz.

   -------------------------------------------------------
    Irrep   Nso     Nmo     Nalpha   Nbeta   Ndocc  Nsocc
   -------------------------------------------------------
     A1        21      21       8       8       8       0
     A2         4       4       1       1       1       0
     B1         8       8       2       2       2       0
     B2        15      15       5       5       5       0
   -------------------------------------------------------
    Total      48      48      16      16      16       0
   -------------------------------------------------------

  ==> Iterations <==

                        Total Energy        Delta E     RMS |[F,P]|

   @RHF iter   1:  -187.27391668672124   -1.87274e+02   1.12539e-01 DIIS
   @RHF iter   2:  -180.35110686170947    6.92281e+00   1.03058e-01 DIIS
   @RHF iter   3:  -189.00974763065710   -8.65864e+00   7.17009e-02 DIIS
   @RHF iter   4:  -190.36715266800456   -1.35741e+00   3.48777e-02 DIIS
   @RHF iter   5:  -190.83292951829321   -4.65777e-01   9.44992e-03 DIIS
   @RHF iter   6:  -190.87826214788959   -4.53326e-02   3.45136e-03 DIIS
   @RHF iter   7:  -190.88536868011397   -7.10653e-03   1.16084e-03 DIIS
   @RHF iter   8:  -190.88604640876716   -6.77729e-04   4.28749e-04 DIIS
   @RHF iter   9:  -190.88629946823684   -2.53059e-04   1.44181e-04 DIIS
   @RHF iter  10:  -190.88631371520768   -1.42470e-05   1.90608e-05 DIIS
   @RHF iter  11:  -190.88631410873381   -3.93526e-07   2.23723e-06 DIIS
   @RHF iter  12:  -190.88631411398944   -5.25563e-09   2.76348e-07 DIIS
   @RHF iter  13:  -190.88631411404256   -5.31202e-11   5.21575e-08 DIIS
   @RHF iter  14:  -190.88631411404410   -1.53477e-12   7.78940e-09 DIIS
   @RHF iter  15:  -190.88631411404435   -2.55795e-13   9.99507e-10 DIIS
  Energy and wave function converged.


  ==> Post-Iterations <==

    Orbital Energies [Eh]
    ---------------------

    Doubly Occupied:                                                      

       1A1   -20.450989     2A1   -11.281277     1B2   -11.177732  
       3A1   -11.177294     4A1    -1.388891     5A1    -1.043786  
       2B2    -0.969681     6A1    -0.734892     3B2    -0.646172  
       7A1    -0.629084     1B1    -0.624178     1A2    -0.558976  
       8A1    -0.552685     4B2    -0.534387     2B1    -0.470571  
       5B2    -0.404374  

    Virtual:                                                              

       3B1     0.160939     9A1     0.258865    10A1     0.301619  
       6B2     0.325971     2A2     0.342360     4B1     0.346139  
       7B2     0.356770    11A1     0.391923     8B2     0.510611  
      12A1     0.576494    13A1     0.879713     5B1     0.932816  
       3A2     0.972850     9B2     0.992052    14A1     1.024501  
      10B2     1.096217    15A1     1.109551     6B1     1.135723  
      16A1     1.261667    11B2     1.269939     7B1     1.292353  
       4A2     1.345839    12B2     1.354285    17A1     1.358628  
      13B2     1.436649    18A1     1.715433    19A1     1.908962  
       8B1     1.928085    14B2     2.033953    20A1     2.122216  
      15B2     2.277183    21A1     3.542146  

    Final Occupation by Irrep:
             A1    A2    B1    B2 
    DOCC [     8,    1,    2,    5 ]

  @RHF Final Energy:  -190.88631411404435

   => Energetics <=

    Nuclear Repulsion Energy =            119.0132658806135311
    One-Electron Energy =                -494.5092184953809351
    Two-Electron Energy =                 184.6096385007230651
    Total Energy =                       -190.8863141140443531

Computation Completed


Properties will be evaluated at   0.000000,   0.000000,   0.000000 [a0]

Properties computed using the SCF density matrix

  Nuclear Dipole Moment: [e a0]
     X:     0.0000      Y:     0.0000      Z:    -5.0844

  Electronic Dipole Moment: [e a0]
     X:     0.0000      Y:     0.0000      Z:     3.8236

  Dipole Moment: [e a0]
     X:     0.0000      Y:     0.0000      Z:    -1.2608     Total:     1.2608

  Dipole Moment: [D]
     X:     0.0000      Y:     0.0000      Z:    -3.2045     Total:     3.2045


*** tstop() called on Yorks-Mac.local at Wed Dec  9 15:57:14 2020
Module time:
	user time   =       2.23 seconds =       0.04 minutes
	system time =       0.04 seconds =       0.00 minutes
	total time  =          0 seconds =       0.00 minutes
Total time:
	user time   =       9.57 seconds =       0.16 minutes
	system time =       0.26 seconds =       0.00 minutes
	total time  =          1 seconds =       0.02 minutes

Scratch directory: /Users/york/scratch/psi4/

  Forte
  ----------------------------------------------------------------------------
  A suite of quantum chemistry methods for strongly correlated electrons

    git branch: mcscf_rotation_printing - git commit: 87e7ba05

  Developed by:
    Francesco A. Evangelista, Chenyang Li, Kevin P. Hannon,
    Jeffrey B. Schriber, Tianyuan Zhang, Chenxi Cai,
    Nan He, Nicholas Stair, Shuhe Wang, Renke Huang
  ----------------------------------------------------------------------------

  Size of Determinant class: 256 bits
  Preparing forte objects from a psi4 Wavefunction object
  No reference wavefunction provided. Computing SCF orbitals with psi4

*** tstart() called on Yorks-Mac.local
*** at Wed Dec  9 15:57:14 2020

   => Loading Basis Set <=

    Name: 3-21G
    Role: ORBITAL
    Keyword: BASIS
    atoms 1-6 entry H          line    21 file /Users/york/src/psi4new/psi4/share/psi4/basis/3-21g.gbs 
    atoms 7-9 entry C          line    68 file /Users/york/src/psi4new/psi4/share/psi4/basis/3-21g.gbs 
    atoms 10  entry O          line    90 file /Users/york/src/psi4new/psi4/share/psi4/basis/3-21g.gbs 


         ---------------------------------------------------------
                                   SCF
               by Justin Turney, Rob Parrish, Andy Simmonett
                          and Daniel G. A. Smith
                              RHF Reference
                        8 Threads,    953 MiB Core
         ---------------------------------------------------------

  ==> Geometry <==

    Molecular point group: c2v
    Full point group: C2v

    Geometry (in Angstrom), charge = 0, multiplicity = 1:

       Center              X                  Y                   Z               Mass       
    ------------   -----------------  -----------------  -----------------  -----------------
         H           -0.000000000000     2.136732000000    -0.017453203251     1.007825032230
         H            0.000000000000    -2.136732000000    -0.017453203251     1.007825032230
         H           -0.881334000000     1.333733000000    -1.348850203251     1.007825032230
         H            0.881334000000    -1.333733000000    -1.348850203251     1.007825032230
         H           -0.881334000000    -1.333733000000    -1.348850203251     1.007825032230
         H            0.881334000000     1.333733000000    -1.348850203251     1.007825032230
         C            0.000000000000     0.000000000000     0.094991796749    12.000000000000
         C           -0.000000000000     1.287253000000    -0.700910203251    12.000000000000
         C            0.000000000000    -1.287253000000    -0.700910203251    12.000000000000
         O            0.000000000000     0.000000000000     1.322591796749    15.994914619570

  Running in c2v symmetry.

  Rotational constants: A =      0.33485  B =      0.28440  C =      0.16310 [cm^-1]
  Rotational constants: A =  10038.42884  B =   8526.21460  C =   4889.72223 [MHz]
  Nuclear repulsion =  119.013265880613531

  Charge       = 0
  Multiplicity = 1
  Electrons    = 32
  Nalpha       = 16
  Nbeta        = 16

  ==> Algorithm <==

  SCF Algorithm Type is PK.
  DIIS enabled.
  MOM disabled.
  Fractional occupation disabled.
  Guess Type is GWH.
  Energy threshold   = 1.00e-12
  Density threshold  = 1.00e-08
  Integral threshold = 1.00e-12

  ==> Primary Basis <==

  Basis Set: 3-21G
    Blend: 3-21G
    Number of shells: 32
    Number of basis function: 48
    Number of Cartesian functions: 48
    Spherical Harmonics?: false
    Max angular momentum: 1

  ==> Integral Setup <==

  Using in-core PK algorithm.
   Calculation information:
      Number of atoms:                  10
      Number of AO shells:              32
      Number of primitives:             54
      Number of atomic orbitals:        48
      Number of basis functions:        48

      Integral cutoff                 1.00e-12
      Number of threads:                 8

  Performing in-core PK
  Using 1384152 doubles for integral storage.
  We computed 193845 shell quartets total.
  Whereas there are 139656 unique shell quartets.
    38.80 percent of shell quartets recomputed by reordering.

  ==> DiskJK: Disk-Based J/K Matrices <==

    J tasked:                  Yes
    K tasked:                  Yes
    wK tasked:                  No
    Memory [MiB]:              715
    Schwarz Cutoff:          1E-12

    OpenMP threads:              8

  Minimum eigenvalue in the overlap matrix is 1.5351576459E-02.
  Reciprocal condition number of the overlap matrix is 3.9476045993E-03.
    Using symmetric orthogonalization.

  ==> Pre-Iterations <==

  SCF Guess: Generalized Wolfsberg-Helmholtz.

   -------------------------------------------------------
    Irrep   Nso     Nmo     Nalpha   Nbeta   Ndocc  Nsocc
   -------------------------------------------------------
     A1        21      21       8       8       8       0
     A2         4       4       1       1       1       0
     B1         8       8       2       2       2       0
     B2        15      15       5       5       5       0
   -------------------------------------------------------
    Total      48      48      16      16      16       0
   -------------------------------------------------------

  ==> Iterations <==

                        Total Energy        Delta E     RMS |[F,P]|

   @RHF iter   1:  -187.27391668672124   -1.87274e+02   1.12539e-01 DIIS
   @RHF iter   2:  -180.35110686170947    6.92281e+00   1.03058e-01 DIIS
   @RHF iter   3:  -189.00974763065710   -8.65864e+00   7.17009e-02 DIIS
   @RHF iter   4:  -190.36715266800456   -1.35741e+00   3.48777e-02 DIIS
   @RHF iter   5:  -190.83292951829321   -4.65777e-01   9.44992e-03 DIIS
   @RHF iter   6:  -190.87826214788959   -4.53326e-02   3.45136e-03 DIIS
   @RHF iter   7:  -190.88536868011397   -7.10653e-03   1.16084e-03 DIIS
   @RHF iter   8:  -190.88604640876716   -6.77729e-04   4.28749e-04 DIIS
   @RHF iter   9:  -190.88629946823684   -2.53059e-04   1.44181e-04 DIIS
   @RHF iter  10:  -190.88631371520768   -1.42470e-05   1.90608e-05 DIIS
   @RHF iter  11:  -190.88631410873381   -3.93526e-07   2.23723e-06 DIIS
   @RHF iter  12:  -190.88631411398944   -5.25563e-09   2.76348e-07 DIIS
   @RHF iter  13:  -190.88631411404256   -5.31202e-11   5.21575e-08 DIIS
   @RHF iter  14:  -190.88631411404410   -1.53477e-12   7.78940e-09 DIIS
   @RHF iter  15:  -190.88631411404435   -2.55795e-13   9.99507e-10 DIIS
  Energy and wave function converged.


  ==> Post-Iterations <==

    Orbital Energies [Eh]
    ---------------------

    Doubly Occupied:                                                      

       1A1   -20.450989     2A1   -11.281277     1B2   -11.177732  
       3A1   -11.177294     4A1    -1.388891     5A1    -1.043786  
       2B2    -0.969681     6A1    -0.734892     3B2    -0.646172  
       7A1    -0.629084     1B1    -0.624178     1A2    -0.558976  
       8A1    -0.552685     4B2    -0.534387     2B1    -0.470571  
       5B2    -0.404374  

    Virtual:                                                              

       3B1     0.160939     9A1     0.258865    10A1     0.301619  
       6B2     0.325971     2A2     0.342360     4B1     0.346139  
       7B2     0.356770    11A1     0.391923     8B2     0.510611  
      12A1     0.576494    13A1     0.879713     5B1     0.932816  
       3A2     0.972850     9B2     0.992052    14A1     1.024501  
      10B2     1.096217    15A1     1.109551     6B1     1.135723  
      16A1     1.261667    11B2     1.269939     7B1     1.292353  
       4A2     1.345839    12B2     1.354285    17A1     1.358628  
      13B2     1.436649    18A1     1.715433    19A1     1.908962  
       8B1     1.928085    14B2     2.033953    20A1     2.122216  
      15B2     2.277183    21A1     3.542146  

    Final Occupation by Irrep:
             A1    A2    B1    B2 
    DOCC [     8,    1,    2,    5 ]

  @RHF Final Energy:  -190.88631411404435

   => Energetics <=

    Nuclear Repulsion Energy =            119.0132658806135311
    One-Electron Energy =                -494.5092184953809351
    Two-Electron Energy =                 184.6096385007230651
    Total Energy =                       -190.8863141140443531

Computation Completed


Properties will be evaluated at   0.000000,   0.000000,   0.000000 [a0]

Properties computed using the SCF density matrix

  Nuclear Dipole Moment: [e a0]
     X:     0.0000      Y:     0.0000      Z:    -5.0844

  Electronic Dipole Moment: [e a0]
     X:     0.0000      Y:     0.0000      Z:     3.8236

  Dipole Moment: [e a0]
     X:     0.0000      Y:     0.0000      Z:    -1.2608     Total:     1.2608

  Dipole Moment: [D]
     X:     0.0000      Y:     0.0000      Z:    -3.2045     Total:     3.2045


*** tstop() called on Yorks-Mac.local at Wed Dec  9 15:57:14 2020
Module time:
	user time   =       2.09 seconds =       0.03 minutes
	system time =       0.02 seconds =       0.00 minutes
	total time  =          0 seconds =       0.00 minutes
Total time:
	user time   =      11.73 seconds =       0.20 minutes
	system time =       0.28 seconds =       0.00 minutes
	total time  =          1 seconds =       0.02 minutes

  Read options for space FROZEN_DOCC
  Read options for space RESTRICTED_DOCC
  Read options for space ACTIVE
  Read options for space FROZEN_DOCC
  Read options for space RESTRICTED_DOCC

  ==> MO Space Information <==

  -------------------------------------------------
                       A1    A2    B1    B2   Sum
  -------------------------------------------------
    FROZEN_DOCC         3     0     0     1     4
    RESTRICTED_DOCC     4     1     1     3     9
    GAS1                2     0     2     1     5
    GAS2                0     0     0     0     0
    GAS3                0     0     0     0     0
    GAS4                0     0     0     0     0
    GAS5                0     0     0     0     0
    GAS6                0     0     0     0     0
    RESTRICTED_UOCC    12     3     5    10    30
    FROZEN_UOCC         0     0     0     0     0
    Total              21     4     8    15    48
  -------------------------------------------------

  Forte Testing Orbital Orthonormality ...   => Loading Basis Set <=

    Name: 3-21G
    Role: ORBITAL
    Keyword: BASIS
    atoms 1-6 entry H          line    21 file /Users/york/src/psi4new/psi4/share/psi4/basis/3-21g.gbs 
    atoms 7-9 entry C          line    68 file /Users/york/src/psi4new/psi4/share/psi4/basis/3-21g.gbs 
    atoms 10  entry O          line    90 file /Users/york/src/psi4new/psi4/share/psi4/basis/3-21g.gbs 


  Done checking orbital orthonormality (OK).   => Loading Basis Set <=

    Name: STO-3G
    Role: ORBITAL
    Keyword: MINAO_BASIS
    atoms 1-6 entry H          line    19 file /Users/york/src/psi4new/psi4/share/psi4/basis/sto-3g.gbs 
    atoms 7-9 entry C          line    61 file /Users/york/src/psi4new/psi4/share/psi4/basis/sto-3g.gbs 
    atoms 10  entry O          line    81 file /Users/york/src/psi4new/psi4/share/psi4/basis/sto-3g.gbs 


  Forte will use psi4 integrals

  ==> Primary Basis Set Summary <==

  Basis Set: 3-21G
    Blend: 3-21G
    Number of shells: 32
    Number of basis function: 48
    Number of Cartesian functions: 48
    Spherical Harmonics?: false
    Max angular momentum: 1


  JK created using conventional PK integrals
  Using in-core PK algorithm.
   Calculation information:
      Number of atoms:                  10
      Number of AO shells:              32
      Number of primitives:             54
      Number of atomic orbitals:        48
      Number of basis functions:        48

      Integral cutoff                 1.00e-12
      Number of threads:                 8

  Performing in-core PK
  Using 1384152 doubles for integral storage.
  We computed 193845 shell quartets total.
  Whereas there are 139656 unique shell quartets.
    38.80 percent of shell quartets recomputed by reordering.

  ==> DiskJK: Disk-Based J/K Matrices <==

    J tasked:                  Yes
    K tasked:                  Yes
    wK tasked:                  No
    Memory [MiB]:              762
    Schwarz Cutoff:          1E-12

    OpenMP threads:              8



  ==> Integral Transformation <==

  Number of molecular orbitals:                         48
  Number of correlated molecular orbitals:              44
  Number of frozen occupied orbitals:                    4
  Number of frozen unoccupied orbitals:                  0
  Two-electron integral type:                 Conventional


  Computing Conventional Integrals	Presorting SO-basis two-electron integrals.
	Sorting File: SO Ints (nn|nn) nbuckets = 1
	Constructing frozen core operators
	Starting first half-transformation.
	Sorting half-transformed integrals.
	First half integral transformation complete.
	Starting second half-transformation.
	Two-electron integral transformation complete.

  Integral transformation done. 0.06744724 s
  Reading the two-electron integrals from disk
  Size of two-electron integrals:   0.118652 GB
  Timing for conventional integral transformation:            0.206 s.
  Frozen-core energy        -207.481736319328149 a.u.
  Timing for frozen one-body operator:                        0.002 s.
  Resorting integrals after freezing core.
  Timing for freezing core and virtual orbitals:              0.034 s.
  Timing for computing conventional integrals:                0.241 s.

  ==> Summary of Active Space Solver Input <==

    Irrep.  Multi.(2ms)      N
    --------------------------
       A1      1  (  0)      2
    --------------------------
    N: number of roots
    ms: spin z component
    Total number of roots:   2
    --------------------------


  ==> String Lists <==

  Number of alpha electrons     = 3
  Number of beta electrons      = 3
  Number of alpha strings       = 10
  Number of beta strings        = 10
  Number of alpha strings (N-3) = 1
  Number of beta strings (N-3)  = 1
  Timing for strings        =      0.000 s
  Timing for NN strings     =      0.000 s
  Timing for VO strings     =      0.000 s
  Timing for OO strings     =      0.000 s
  Timing for VVOO strings   =      0.000 s
  Timing for VOVO strings   =      0.000 s
  Timing for 1-hole strings =      0.000 s
  Timing for 2-hole strings =      0.000 s
  Timing for 3-hole strings =      0.000 s
  Total timing              =      0.000 s

  ==> FCI Solver <==

    Number of determinants                          28
    Symmetry                                         0
    Multiplicity                                     1
    Number of roots                                  2
    Target root                                      1
    Trial vectors per root                          10

  Allocating memory for the Hamiltonian algorithm. Size: 2 x 4 x 4.   Memory: 0.000000 GB

  ==> FCI Initial Guess <==

  ---------------------------------------------
    Root            Energy     <S^2>   Spin
  ---------------------------------------------
      0     -190.903043353478  0.000  singlet
      1     -190.653945698250  2.000  triplet
      2     -190.460579059045  0.000  singlet
      3     -190.377611454043  0.000  singlet
      4     -190.324620537830  2.000  triplet
      5     -190.304439082861  0.000  singlet
      6     -190.113436347168  0.000  singlet
      7     -190.067401022157  6.000  quintet
      8     -190.038339763218  2.000  triplet
      9     -190.019059588956  2.000  triplet
     10     -190.009445725652  0.000  singlet
     11     -189.973030258252  0.000  singlet
     12     -189.897784209400  2.000  triplet
     13     -189.877479612720  0.000  singlet
     14     -189.804242073187  0.000  singlet
     15     -189.728599745817  2.000  triplet
     16     -189.709204506946  0.000  singlet
     17     -189.631314460279  0.000  singlet
     18     -189.534570925294  0.000  singlet
     19     -189.432687539119  2.000  triplet
     20     -189.413393118791  0.000  singlet
     21     -189.332054865299  2.000  triplet
     22     -189.289365557539  2.000  triplet
     23     -189.262702934324  0.000  singlet
     24     -189.192034340220  0.000  singlet
     25     -188.947067131751  0.000  singlet
     26     -188.611119318025  0.000  singlet
     27     -188.388852223666  0.000  singlet
  ---------------------------------------------
  Timing for initial guess  =      0.003 s

  Projecting out root 1
  Projecting out root 4
  Projecting out root 7
  Projecting out root 8
  Projecting out root 9
  Projecting out root 12
  Projecting out root 15
  Projecting out root 19
  Projecting out root 21
  Projecting out root 22

  ==> Diagonalizing Hamiltonian <==

  Energy   convergence: 1.00e-12
  Residual convergence: 1.00e-06
  -----------------------------------------------------
    Iter.      Avg. Energy       Delta_E     Res. Norm
  -----------------------------------------------------
      1     -190.681811206262  -1.907e+02  +4.609e-13
      2     -190.681811206262  +0.000e+00  +4.609e-13
  -----------------------------------------------------
  The Davidson-Liu algorithm converged in 3 iterations.

  ==> Root No. 0 <==

    20 20 2     -0.98852086
    20 02 2      0.14606128

    Total Energy:      -190.903043353478154

  ==> Root No. 1 <==

    20 ba 2      0.67853737
    20 ab 2      0.67853737
    20 02 2     -0.24728823
    20 22 0     -0.10002167

    Total Energy:      -190.460579059045074

  ==> Energy Summary <==

    Multi.(2ms)  Irrep.  No.               Energy
    ---------------------------------------------
       1  (  0)    A1     0     -190.903043353478
       1  (  0)    A1     1     -190.460579059045
    ---------------------------------------------

  Time to prepare integrals:        0.359 seconds
  Time to run job          :        0.006 seconds
  Total                    :        0.006 seconds    Singlet Excited State FCI energy......................................................PASSED

    Psi4 stopped on: Wednesday, 09 December 2020 03:57PM
    Psi4 wall time for execution: 0:00:02.19

*** Psi4 exiting successfully. Buy a developer a beer!
