
    -----------------------------------------------------------------------
          Psi4: An Open-Source Ab Initio Electronic Structure Package
                               Psi4 undefined 

                         Git: Rev {master} 35c91d5 


    D. G. A. Smith, L. A. Burns, A. C. Simmonett, R. M. Parrish,
    M. C. Schieber, R. Galvelis, P. Kraus, H. Kruse, R. Di Remigio,
    A. Alenaizan, A. M. James, S. Lehtola, J. P. Misiewicz, M. Scheurer,
    R. A. Shaw, J. B. Schriber, Y. Xie, Z. L. Glick, D. A. Sirianni,
    J. S. O'Brien, J. M. Waldrop, A. Kumar, E. G. Hohenstein,
    B. P. Pritchard, B. R. Brooks, H. F. Schaefer III, A. Yu. Sokolov,
    K. Patkowski, A. E. DePrince III, U. Bozkaya, R. A. King,
    F. A. Evangelista, J. M. Turney, T. D. Crawford, C. D. Sherrill,
    J. Chem. Phys. 152(18) 184108 (2020). https://doi.org/10.1063/5.0006002

                            Additional Code Authors
    E. T. Seidl, C. L. Janssen, E. F. Valeev, M. L. Leininger,
    J. F. Gonthier, R. M. Richard, H. R. McAlexander, M. Saitow, X. Wang,
    P. Verma, and M. H. Lechner

             Previous Authors, Complete List of Code Contributors,
                       and Citations for Specific Modules
    https://github.com/psi4/psi4/blob/master/codemeta.json
    https://github.com/psi4/psi4/graphs/contributors
    http://psicode.org/psi4manual/master/introduction.html#citing-psifour

    -----------------------------------------------------------------------


    Psi4 started on: Tuesday, 29 June 2021 07:41PM

    Process ID: 39241
    Host:       Yorks-Mac
    PSIDATADIR: /Users/york/src/psi4new/psi4/share/psi4
    Memory:     500.0 MiB
    Threads:    1
    
  ==> Input File <==

--------------------------------------------------------------------------
# Test the pi orbital selection of AOSubspace
# Same as AVAS-1 test with rotated xyz (plane normal: [1,1,1])

import forte

refscf = -113.87663391962522
reffci = -113.911667467206257

molecule {
0 1
C        0.346146295209737    0.126698337466632   -0.472844632676369
O       -0.346053592352928   -0.126664405871036    0.472717998223964
H        1.227335215970831   -0.489581944167415   -0.737753271803415
H        0.143281782803090    0.991262584630455   -1.134544367433545
noreorient
symmetry c1
}

set {
  basis cc-pvdz
  reference rhf
  scf_type pk
  e_convergence 12
}

set forte {
  subspace ["C(2p)", "O(2P)"]  # has to include all p orbitals
  subspace_pi_planes [["C", "O", "H"]]  # a list of planes
  avas true
  avas_diagonalize true
  avas_sigma 1.0
  active_space_solver fci
  restricted_docc [7]
  active [3]
}

Escf, wfn = energy('scf', return_wfn=True)
compare_values(refscf, variable("CURRENT ENERGY"), 9, "SCF energy")

energy('forte', ref_wfn=wfn)
compare_values(reffci, variable("CURRENT ENERGY"),9, "FCI energy")
--------------------------------------------------------------------------

Scratch directory: /Users/york/scratch/psi4/

*** tstart() called on Yorks-Mac
*** at Tue Jun 29 19:42:00 2021

   => Loading Basis Set <=

    Name: CC-PVDZ
    Role: ORBITAL
    Keyword: BASIS
    atoms 1   entry C          line   138 file /Users/york/src/psi4new/psi4/share/psi4/basis/cc-pvdz.gbs 
    atoms 2   entry O          line   198 file /Users/york/src/psi4new/psi4/share/psi4/basis/cc-pvdz.gbs 
    atoms 3-4 entry H          line    22 file /Users/york/src/psi4new/psi4/share/psi4/basis/cc-pvdz.gbs 


         ---------------------------------------------------------
                                   SCF
               by Justin Turney, Rob Parrish, Andy Simmonett
                          and Daniel G. A. Smith
                              RHF Reference
                        1 Threads,    500 MiB Core
         ---------------------------------------------------------

  ==> Geometry <==

    Molecular point group: c1
    Full point group: C1

    Geometry (in Angstrom), charge = 0, multiplicity = 1:

       Center              X                  Y                   Z               Mass       
    ------------   -----------------  -----------------  -----------------  -----------------
         C            0.346146295210     0.126698337467    -0.472844632676    12.000000000000
         O           -0.346053592353    -0.126664405871     0.472717998224    15.994914619570
         H            1.227335215971    -0.489581944167    -0.737753271803     1.007825032230
         H            0.143281782803     0.991262584631    -1.134544367434     1.007825032230

  Running in c1 symmetry.

  Rotational constants: A =      9.48896  B =      1.30683  C =      1.14863 [cm^-1]
  Rotational constants: A = 284471.93102  B =  39177.64207  C =  34435.20529 [MHz]
  Nuclear repulsion =   31.397403427550309

  Charge       = 0
  Multiplicity = 1
  Electrons    = 16
  Nalpha       = 8
  Nbeta        = 8

  ==> Algorithm <==

  SCF Algorithm Type is PK.
  DIIS enabled.
  MOM disabled.
  Fractional occupation disabled.
  Guess Type is SAD.
  Energy threshold   = 1.00e-12
  Density threshold  = 1.00e-06
  Integral threshold = 1.00e-12

  ==> Primary Basis <==

  Basis Set: CC-PVDZ
    Blend: CC-PVDZ
    Number of shells: 18
    Number of basis functions: 38
    Number of Cartesian functions: 40
    Spherical Harmonics?: true
    Max angular momentum: 2

  ==> Integral Setup <==

  Using in-core PK algorithm.
   Calculation information:
      Number of atoms:                   4
      Number of AO shells:              18
      Number of primitives:             54
      Number of atomic orbitals:        40
      Number of basis functions:        38

      Integral cutoff                 1.00e-12
      Number of threads:                 1

  Performing in-core PK
  Using 549822 doubles for integral storage.
  We computed 14706 shell quartets total.
  Whereas there are 14706 unique shell quartets.

  ==> DiskJK: Disk-Based J/K Matrices <==

    J tasked:                  Yes
    K tasked:                  Yes
    wK tasked:                  No
    Memory [MiB]:              375
    Schwarz Cutoff:          1E-12

    OpenMP threads:              1

  Minimum eigenvalue in the overlap matrix is 1.8903118096E-02.
  Reciprocal condition number of the overlap matrix is 4.7146450875E-03.
    Using symmetric orthogonalization.

  ==> Pre-Iterations <==

  SCF Guess: Superposition of Atomic Densities via on-the-fly atomic UHF (no occupation information).

   -------------------------
    Irrep   Nso     Nmo    
   -------------------------
     A         38      38 
   -------------------------
    Total      38      38
   -------------------------

  ==> Iterations <==

                        Total Energy        Delta E     RMS |[F,P]|

   @RHF iter SAD:  -113.15417572488403   -1.13154e+02   0.00000e+00 
   @RHF iter   1:  -113.81783400946425   -6.63658e-01   9.54871e-03 DIIS
   @RHF iter   2:  -113.84529363840105   -2.74596e-02   7.73644e-03 DIIS
   @RHF iter   3:  -113.87608474830752   -3.07911e-02   5.77270e-04 DIIS
   @RHF iter   4:  -113.87657192006584   -4.87172e-04   1.60139e-04 DIIS
   @RHF iter   5:  -113.87662083913554   -4.89191e-05   7.36677e-05 DIIS
   @RHF iter   6:  -113.87663293531249   -1.20962e-05   2.56357e-05 DIIS
   @RHF iter   7:  -113.87663388488576   -9.49573e-07   5.24107e-06 DIIS
   @RHF iter   8:  -113.87663391906753   -3.41818e-08   6.10390e-07 DIIS
   @RHF iter   9:  -113.87663391960857   -5.41036e-10   1.07125e-07 DIIS
   @RHF iter  10:  -113.87663391962489   -1.63283e-11   1.54980e-08 DIIS
   @RHF iter  11:  -113.87663391962526   -3.69482e-13   1.85604e-09 DIIS
  Energy and wave function converged.


  ==> Post-Iterations <==

    Orbital Energies [Eh]
    ---------------------

    Doubly Occupied:                                                      

       1A    -20.575821     2A    -11.345213     3A     -1.408135  
       4A     -0.863441     5A     -0.688531     6A     -0.648049  
       7A     -0.532174     8A     -0.434347  

    Virtual:                                                              

       9A      0.137729    10A      0.189112    11A      0.258168  
      12A      0.360798    13A      0.667845    14A      0.668651  
      15A      0.738723    16A      0.815650    17A      0.903640  
      18A      0.973084    19A      1.107483    20A      1.156071  
      21A      1.291844    22A      1.325179    23A      1.414519  
      24A      1.673164    25A      1.689023    26A      1.847823  
      27A      1.946380    28A      1.958874    29A      1.980407  
      30A      2.000790    31A      2.567994    32A      2.670689  
      33A      2.743469    34A      3.045824    35A      3.174407  
      36A      3.430055    37A      3.726999    38A      3.844490  

    Final Occupation by Irrep:
              A 
    DOCC [     8 ]

  @RHF Final Energy:  -113.87663391962526

   => Energetics <=

    Nuclear Repulsion Energy =             31.3974034275503087
    One-Electron Energy =                -217.5566522593993284
    Two-Electron Energy =                  72.2826149122237638
    Total Energy =                       -113.8766339196252630

Computation Completed


Properties will be evaluated at   0.000000,   0.000000,   0.000000 [a0]

Properties computed using the SCF density matrix

  Nuclear Dipole Moment: [e a0]
     X:     1.2832      Y:     0.4697      Z:    -1.7530

  Electronic Dipole Moment: [e a0]
     X:    -0.6808      Y:    -0.2492      Z:     0.9300

  Dipole Moment: [e a0]
     X:     0.6025      Y:     0.2205      Z:    -0.8230     Total:     1.0435

  Dipole Moment: [D]
     X:     1.5313      Y:     0.5605      Z:    -2.0918     Total:     2.6523


*** tstop() called on Yorks-Mac at Tue Jun 29 19:42:01 2021
Module time:
	user time   =       0.88 seconds =       0.01 minutes
	system time =       0.03 seconds =       0.00 minutes
	total time  =          1 seconds =       0.02 minutes
Total time:
	user time   =       0.88 seconds =       0.01 minutes
	system time =       0.03 seconds =       0.00 minutes
	total time  =          1 seconds =       0.02 minutes
    SCF energy............................................................................PASSED

Scratch directory: /Users/york/scratch/psi4/

 Data is an array -> call again
  Forte
  ----------------------------------------------------------------------------
  A suite of quantum chemistry methods for strongly correlated electrons

    git branch: avas_pi - git commit: 1b6a8050

  Developed by:
    Francesco A. Evangelista, Chenyang Li, Kevin P. Hannon,
    Jeffrey B. Schriber, Tianyuan Zhang, Chenxi Cai,
    Nan He, Nicholas Stair, Shuhe Wang, Renke Huang
  ----------------------------------------------------------------------------

  Size of Determinant class: 128 bits

  Preparing forte objects from a Psi4 Wavefunction object
  Read options for space RESTRICTED_DOCC
  Read options for space ACTIVE
  Read options for space RESTRICTED_DOCC

  ==> MO Space Information <==

  -------------------------------
                        A   Sum
  -------------------------------
    FROZEN_DOCC         0     0
    RESTRICTED_DOCC     7     7
    GAS1                3     3
    GAS2                0     0
    GAS3                0     0
    GAS4                0     0
    GAS5                0     0
    GAS6                0     0
    RESTRICTED_UOCC    28    28
    FROZEN_UOCC         0     0
    Total              38    38
  -------------------------------   => Loading Basis Set <=

    Name: CC-PVDZ
    Role: ORBITAL
    Keyword: BASIS
    atoms 1   entry C          line   138 file /Users/york/src/psi4new/psi4/share/psi4/basis/cc-pvdz.gbs 
    atoms 2   entry O          line   198 file /Users/york/src/psi4new/psi4/share/psi4/basis/cc-pvdz.gbs 
    atoms 3-4 entry H          line    22 file /Users/york/src/psi4new/psi4/share/psi4/basis/cc-pvdz.gbs 


  Checking orbital orthonormality against current geometry ... Done (OK)

   => Loading Basis Set <=

    Name: STO-3G
    Role: ORBITAL
    Keyword: MINAO_BASIS
    atoms 1   entry C          line    61 file /Users/york/src/psi4new/psi4/share/psi4/basis/sto-3g.gbs 
    atoms 2   entry O          line    81 file /Users/york/src/psi4new/psi4/share/psi4/basis/sto-3g.gbs 
    atoms 3-4 entry H          line    19 file /Users/york/src/psi4new/psi4/share/psi4/basis/sto-3g.gbs 



  ==> List of Planes Requested <==

    Plane  1
             C         O         H

  ==> List of Subspace Orbitals Requested <==
         C(2P)         O(2P)
  NOTE: Subspace orbitals may be truncated based on requested planes!

  ==> AO Basis Set Selected By Subspace <==

    =======================================
      AO  Atom  Label     Type  Coefficient
    ---------------------------------------
       2     1     C1      2PZ   5.7735E-01
       3     1     C1      2PX   5.7735E-01
       4     1     C1      2PY   5.7735E-01
       7     2     O1      2PZ   5.7735E-01
       8     2     O1      2PX   5.7735E-01
       9     2     O1      2PY   5.7735E-01
    ---------------------------------------
    Number of subspace orbitals:          2
    =======================================

  ==> Orbital Overlap with AO Subspace (> 1.00e-03) <==

    =======================
    Irrep   MO  <phi|P|phi>
    -----------------------
       A     7    0.970513
       A     9    0.851958
       A    14    0.112501
       A    21    0.041736
       A    23    0.006299
       A    27    0.001631
    ========================


                     --------------------------------------
                       Atomic Valence Active Space (AVAS)
                           Chenxi Cai and Chenyang Li
                     --------------------------------------


  ==> AVAS Options <==

    AVAS selection scheme                              SIGMA
    Diagonalize projected overlap matrices              TRUE
    AVAS sigma threshold (cumulative)              1.000e+00
    AVAS sigma direct cutoff                       1.000e+00
    Nonzero eigenvalue threshold                   1.000e-06
    Number of doubly occupied MOs                          8
    Number of singly occupied MOs                          0
    Number of unoccupied MOs                              30
    # Active AVAS MOs requested                            0
    # Active occupied AVAS MOs requested                   0
    # Active virtual AVAS MOs requested                    0

  Diagonalizing the doubly occupied projected overlap matrix ... Done
  Diagonalizing the unoccupied projected overlap matrix ........ Done
  Sum of eigenvalues: 1.98526975
  AVAS covers 100.00% of the subspace.

  ==> AVAS MOs Information <==

    ---------------------
                        A
    ---------------------
    DOCC INACTIVE       7
    DOCC ACTIVE         1
    SOCC ACTIVE         0
    UOCC ACTIVE         2
    UOCC INACTIVE      28
    ---------------------
    RESTRICTED_DOCC     7
    ACTIVE              3
    RESTRICTED_UOCC    28
    ---------------------

  ==> Atomic Valence MOs (Active Marked by *) <==

    ===============================
     Irrep    MO  Occ.  <phi|P|phi>
    -------------------------------
    *   A      0    2      0.970513
    *   A      8    0      0.992548
    *   A      9    0      0.022209
    ===============================

  ==> Semicanonicalize Subsets of Orbitals <==

  Canonicalizing orbital block INACTIVE DOCC ....... Done
  Canonicalizing orbital block ACTIVE DOCC ......... Done
  Canonicalizing orbital block ACTIVE UOCC ......... Done
  Canonicalizing orbital block INACTIVE UOCC ....... Done
  Forte will use psi4 integrals

  ==> Primary Basis Set Summary <==

  Basis Set: CC-PVDZ
    Blend: CC-PVDZ
    Number of shells: 18
    Number of basis functions: 38
    Number of Cartesian functions: 40
    Spherical Harmonics?: true
    Max angular momentum: 2


  JK created using conventional PK integrals
  Using in-core PK algorithm.
   Calculation information:
      Number of atoms:                   4
      Number of AO shells:              18
      Number of primitives:             54
      Number of atomic orbitals:        40
      Number of basis functions:        38

      Integral cutoff                 1.00e-12
      Number of threads:                 1

  Performing in-core PK
  Using 549822 doubles for integral storage.
  We computed 14706 shell quartets total.
  Whereas there are 14706 unique shell quartets.

  ==> DiskJK: Disk-Based J/K Matrices <==

    J tasked:                  Yes
    K tasked:                  Yes
    wK tasked:                  No
    Memory [MiB]:              400
    Schwarz Cutoff:          1E-12

    OpenMP threads:              1



  ==> Integral Transformation <==

  Number of molecular orbitals:                         38
  Number of correlated molecular orbitals:              38
  Number of frozen occupied orbitals:                    0
  Number of frozen unoccupied orbitals:                  0
  Two-electron integral type:                 Conventional


  Computing Conventional Integrals	Presorting SO-basis two-electron integrals.
	Sorting File: SO Ints (nn|nn) nbuckets = 1
	Constructing frozen core operators
	Starting first half-transformation.
	Sorting half-transformed integrals.
	First half integral transformation complete.
	Starting second half-transformation.
	Two-electron integral transformation complete.

  Integral transformation done. 0.16942636 s
  Reading the two-electron integrals from disk
  Size of two-electron integrals:   0.046606 GB
  Timing for conventional integral transformation:            0.690 s.
  Timing for freezing core and virtual orbitals:              0.000 s.
  Timing for computing conventional integrals:                0.690 s.

  ==> Summary of Active Space Solver Input <==

    Irrep.  Multi.(2ms)      N
    --------------------------
        A      1  (  0)      1
    --------------------------
    N: number of roots
    ms: spin z component
    Total number of roots:   1
    --------------------------


  ==> String Lists <==

  Number of alpha electrons     = 1
  Number of beta electrons      = 1
  Number of alpha strings       = 3
  Number of beta strings        = 3
  Timing for strings        =      0.000 s
  Timing for NN strings     =      0.000 s
  Timing for VO strings     =      0.000 s
  Timing for OO strings     =      0.000 s
  Timing for VVOO strings   =      0.000 s
  Timing for VOVO strings   =      0.000 s
  Timing for 1-hole strings =      0.000 s
  Timing for 2-hole strings =      0.000 s
  Timing for 3-hole strings =      0.000 s
  Total timing              =      0.000 s

  ==> FCI Solver <==

    Number of determinants                           9
    Symmetry                                         0
    Multiplicity                                     1
    Number of roots                                  1
    Target root                                      0
    Trial vectors per root                          10

  Allocating memory for the Hamiltonian algorithm. Size: 2 x 3 x 3.   Memory: 0.000000 GB

  ==> FCI Initial Guess <==

  ---------------------------------------------
    Root            Energy     <S^2>   Spin
  ---------------------------------------------
      0     -113.911667467207  0.000  singlet
      1     -113.659281651901  2.000  triplet
      2     -113.384062451506  0.000  singlet
      3     -113.011859852671  0.000  singlet
      4     -112.736727576400  2.000  triplet
      5     -112.536048708734  0.000  singlet
      6     -112.305200749312  2.000  triplet
      7     -112.078972129726  0.000  singlet
      8     -111.355214845345  0.000  singlet
  ---------------------------------------------
  Timing for initial guess  =      0.000 s

  Projecting out root 1
  Projecting out root 4
  Projecting out root 6

  ==> Diagonalizing Hamiltonian <==

  Energy   convergence: 1.00e-12
  Residual convergence: 1.00e-06
  -----------------------------------------------------
    Iter.      Avg. Energy       Delta_E     Res. Norm
  -----------------------------------------------------
      1     -113.911667467206  -1.139e+02  +1.112e-13
      2     -113.911667467206  +0.000e+00  +1.112e-13
  -----------------------------------------------------
  The Davidson-Liu algorithm converged in 3 iterations.

  ==> Root No. 0 <==

    200      0.98014601
    020     -0.18910986

    Total Energy:    -113.911667467206, <S^2>: -0.000000

  ==> Energy Summary <==

    Multi.(2ms)  Irrep.  No.               Energy      <S^2>
    --------------------------------------------------------
       1  (  0)     A     0     -113.911667467206  -0.000000
    --------------------------------------------------------

  Time to prepare integrals:        1.209 seconds
  Time to run job          :        0.001 seconds
  Total                    :        1.210 seconds
    FCI energy............................................................................PASSED

    Psi4 stopped on: Tuesday, 29 June 2021 07:42PM
    Psi4 wall time for execution: 0:00:03.67

*** Psi4 exiting successfully. Buy a developer a beer!
