
    -----------------------------------------------------------------------
          Psi4: An Open-Source Ab Initio Electronic Structure Package
                               Psi4 undefined 

                         Git: Rev {master} 8abcaf3 


    D. G. A. Smith, L. A. Burns, A. C. Simmonett, R. M. Parrish,
    M. C. Schieber, R. Galvelis, P. Kraus, H. Kruse, R. Di Remigio,
    A. Alenaizan, A. M. James, S. Lehtola, J. P. Misiewicz, M. Scheurer,
    R. A. Shaw, J. B. Schriber, Y. Xie, Z. L. Glick, D. A. Sirianni,
    J. S. O'Brien, J. M. Waldrop, A. Kumar, E. G. Hohenstein,
    B. P. Pritchard, B. R. Brooks, H. F. Schaefer III, A. Yu. Sokolov,
    K. Patkowski, A. E. DePrince III, U. Bozkaya, R. A. King,
    F. A. Evangelista, J. M. Turney, T. D. Crawford, C. D. Sherrill,
    J. Chem. Phys. 152(18) 184108 (2020). https://doi.org/10.1063/5.0006002

                            Additional Code Authors
    E. T. Seidl, C. L. Janssen, E. F. Valeev, M. L. Leininger,
    J. F. Gonthier, R. M. Richard, H. R. McAlexander, M. Saitow, X. Wang,
    P. Verma, and M. H. Lechner

             Previous Authors, Complete List of Code Contributors,
                       and Citations for Specific Modules
    https://github.com/psi4/psi4/blob/master/codemeta.json
    https://github.com/psi4/psi4/graphs/contributors
    http://psicode.org/psi4manual/master/introduction.html#citing-psifour

    -----------------------------------------------------------------------


    Psi4 started on: Thursday, 30 July 2020 10:26AM

    Process ID: 34598
    Host:       CHE-FEVANGE-01I (2)
    PSIDATADIR: /Users/fevange/Source/psi4/objdir-Debug/stage/share/psi4
    Memory:     500.0 MiB
    Threads:    1
    
  ==> Input File <==

--------------------------------------------------------------------------
#! Generated using commit GITCOMMIT

import forte

refEdsrg = -100.2173774849334
refRe    =    1.7342309621 # in Bohr

molecule HF{
  0 1
  F
  H  1 R
  R = 0.918
}

set globals{
  basis                    cc-pvdz
  reference                rhf
  d_convergence            6
  e_convergence            12
  restricted_docc          [2,0,1,1]
  active                   [2,0,0,0]
  maxiter                  100
  rms_disp_g_convergence   1.0e-6
  max_disp_g_convergence   2.0e-6
  rms_force_g_convergence  1.0e-8
  max_force_g_convergence  2.0e-8
  max_energy_g_convergence 1.0e-10
}

set forte{
  active_space_solver      fci
  correlation_solver       dsrg-mrpt2
  ref_type                 casscf
  frozen_docc              [1,0,0,0]
  restricted_docc          [1,0,1,1]
  active                   [2,0,0,0]
  root_sym                 0
  nroot                    1
  dsrg_s                   0.5
  active_space_solver      fci 
}

Eopt = optimize('forte',dertype=0)
mol  = psi4.get_active_molecule()
bond = abs(mol.z(0) - mol.z(1))
compare_values(refEdsrg,Eopt,10,"DSRG-MRPT2 energy at Re")
compare_values(bond,refRe,6,"Optimized bond length")
--------------------------------------------------------------------------

Scratch directory: /tmp/
gradient() will perform gradient computation by finite difference of analytic energies.

         ----------------------------------------------------------
                                   FINDIF
                     R. A. King and Jonathon Misiewicz
         ---------------------------------------------------------

  Using finite-differences of energies to determine gradients.
    Generating geometries for use with 3-point formula.
    Displacement size will be 5.00e-03.
    Number of atoms is 2.
    Number of symmetric SALCs is 1.
    Translations projected? 1. Rotations projected? 1.
    Number of geometries (including reference) is 3.

  //>>>>>>>>>>>>>>>>>>>>>>>>>>>>>>>>>>>//
  //    Loading displacement 1 of 3    //
  //<<<<<<<<<<<<<<<<<<<<<<<<<<<<<<<<<<<//

Scratch directory: /tmp/

  Forte
  ----------------------------------------------------------------------------
  A suite of quantum chemistry methods for strongly correlated electrons

    git branch: master - git commit: f19bbc59

  Developed by:
    Francesco A. Evangelista, Chenyang Li, Kevin P. Hannon,
    Jeffrey B. Schriber, Tianyuan Zhang, Chenxi Cai,
    Nan He, Nicholas Stair, Shuhe Wang, Renke Huang
  ----------------------------------------------------------------------------

  Size of Determinant class: 256 bits
  Preparing forte objects from a psi4 Wavefunction object
  No reference wavefunction provided. Computing CASSCF orbitals with psi4

*** tstart() called on CHE-FEVANGE-01I (2)
*** at Thu Jul 30 10:26:53 2020

   => Loading Basis Set <=

    Name: CC-PVDZ
    Role: ORBITAL
    Keyword: BASIS
    atoms 1 entry F          line   228 file /Users/fevange/Source/psi4/objdir-Debug/stage/share/psi4/basis/cc-pvdz.gbs 
    atoms 2 entry H          line    22 file /Users/fevange/Source/psi4/objdir-Debug/stage/share/psi4/basis/cc-pvdz.gbs 


         ---------------------------------------------------------
                                   SCF
               by Justin Turney, Rob Parrish, Andy Simmonett
                          and Daniel G. A. Smith
                              RHF Reference
                        1 Threads,    500 MiB Core
         ---------------------------------------------------------

  ==> Geometry <==

    Molecular point group: c2v
    Full point group: C_inf_v

    Geometry (in Angstrom), charge = 0, multiplicity = 1:

       Center              X                  Y                   Z               Mass       
    ------------   -----------------  -----------------  -----------------  -----------------
         F            0.000000000000     0.000000000000    -0.046244767908    18.998403162730
         H            0.000000000000     0.000000000000     0.871755232092     1.007825032230

  Running in c2v symmetry.

  Rotational constants: A = ************  B =     20.90134  C =     20.90134 [cm^-1]
  Rotational constants: A = ************  B = 626606.38281  C = 626606.38281 [MHz]
  Nuclear repulsion =    5.188011869313725

  Charge       = 0
  Multiplicity = 1
  Electrons    = 10
  Nalpha       = 5
  Nbeta        = 5

  ==> Algorithm <==

  SCF Algorithm Type is DF.
  DIIS enabled.
  MOM disabled.
  Fractional occupation disabled.
  Guess Type is SAD.
  Energy threshold   = 1.00e-12
  Density threshold  = 1.00e-06
  Integral threshold = 0.00e+00

  ==> Primary Basis <==

  Basis Set: CC-PVDZ
    Blend: CC-PVDZ
    Number of shells: 9
    Number of basis function: 19
    Number of Cartesian functions: 20
    Spherical Harmonics?: true
    Max angular momentum: 2

   => Loading Basis Set <=

    Name: (CC-PVDZ AUX)
    Role: JKFIT
    Keyword: DF_BASIS_SCF
    atoms 1 entry F          line   271 file /Users/fevange/Source/psi4/objdir-Debug/stage/share/psi4/basis/cc-pvdz-jkfit.gbs 
    atoms 2 entry H          line    51 file /Users/fevange/Source/psi4/objdir-Debug/stage/share/psi4/basis/cc-pvdz-jkfit.gbs 

  ==> Integral Setup <==

  DFHelper Memory: AOs need 0.000 GiB; user supplied 0.366 GiB. Using in-core AOs.

  ==> MemDFJK: Density-Fitted J/K Matrices <==

    J tasked:                   Yes
    K tasked:                   Yes
    wK tasked:                   No
    OpenMP threads:               1
    Memory [MiB]:               375
    Algorithm:                 Core
    Schwarz Cutoff:           1E-12
    Mask sparsity (%):       0.0000
    Fitting Condition:        1E-10

   => Auxiliary Basis Set <=

  Basis Set: (CC-PVDZ AUX)
    Blend: CC-PVDZ-JKFIT
    Number of shells: 33
    Number of basis function: 93
    Number of Cartesian functions: 106
    Spherical Harmonics?: true
    Max angular momentum: 3

  Minimum eigenvalue in the overlap matrix is 4.9245911000E-02.
  Reciprocal condition number of the overlap matrix is 1.7143236087E-02.
    Using symmetric orthogonalization.

  ==> Pre-Iterations <==

  SCF Guess: Superposition of Atomic Densities via on-the-fly atomic UHF (no occupation information).

   -------------------------
    Irrep   Nso     Nmo    
   -------------------------
     A1        10      10 
     A2         1       1 
     B1         4       4 
     B2         4       4 
   -------------------------
    Total      19      19
   -------------------------

  ==> Iterations <==

                           Total Energy        Delta E     RMS |[F,P]|

   @DF-RHF iter SAD:   -99.61657154912726   -9.96166e+01   0.00000e+00 
   @DF-RHF iter   1:   -99.98228027916221   -3.65709e-01   2.70225e-02 DIIS
   @DF-RHF iter   2:  -100.01105998656514   -2.87797e-02   1.47255e-02 DIIS
   @DF-RHF iter   3:  -100.01913136313124   -8.07138e-03   1.49027e-03 DIIS
   @DF-RHF iter   4:  -100.01934313621051   -2.11773e-04   4.16554e-04 DIIS
   @DF-RHF iter   5:  -100.01936120953056   -1.80733e-05   7.82737e-05 DIIS
   @DF-RHF iter   6:  -100.01936206591820   -8.56388e-07   8.56239e-06 DIIS
   @DF-RHF iter   7:  -100.01936207561923   -9.70103e-09   6.06711e-07 DIIS
   @DF-RHF iter   8:  -100.01936207565248   -3.32534e-11   6.45357e-08 DIIS
   @DF-RHF iter   9:  -100.01936207565272   -2.41585e-13   6.16031e-09 DIIS
  Energy and wave function converged.


  ==> Post-Iterations <==

    Orbital Energies [Eh]
    ---------------------

    Doubly Occupied:                                                      

       1A1   -26.278149     2A1    -1.583103     3A1    -0.746800  
       1B2    -0.628787     1B1    -0.628787  

    Virtual:                                                              

       4A1     0.183628     5A1     0.809069     2B1     1.411709  
       2B2     1.411709     6A1     1.416110     3B1     1.604786  
       3B2     1.604786     7A1     2.134364     8A1     2.496362  
       1A2     4.004901     9A1     4.004901     4B1     4.280006  
       4B2     4.280006    10A1     5.055099  

    Final Occupation by Irrep:
             A1    A2    B1    B2 
    DOCC [     3,    0,    1,    1 ]

  @DF-RHF Final Energy:  -100.01936207565272

   => Energetics <=

    Nuclear Repulsion Energy =              5.1880118693137254
    One-Electron Energy =                -150.6834968206406700
    Two-Electron Energy =                  45.4761228756742213
    Total Energy =                       -100.0193620756527224

Computation Completed


Properties will be evaluated at   0.000000,   0.000000,   0.000000 [a0]

Properties computed using the SCF density matrix

  Nuclear Dipole Moment: [e a0]
     X:     0.0000      Y:     0.0000      Z:     0.8609

  Electronic Dipole Moment: [e a0]
     X:     0.0000      Y:     0.0000      Z:    -0.0929

  Dipole Moment: [e a0]
     X:     0.0000      Y:     0.0000      Z:     0.7679     Total:     0.7679

  Dipole Moment: [D]
     X:     0.0000      Y:     0.0000      Z:     1.9519     Total:     1.9519


*** tstop() called on CHE-FEVANGE-01I (2) at Thu Jul 30 10:26:53 2020
Module time:
	user time   =       0.85 seconds =       0.01 minutes
	system time =       0.02 seconds =       0.00 minutes
	total time  =          0 seconds =       0.00 minutes
Total time:
	user time   =       0.85 seconds =       0.01 minutes
	system time =       0.02 seconds =       0.00 minutes
	total time  =          0 seconds =       0.00 minutes
 MINTS: Wrapper to libmints.
   by Justin Turney

   Calculation information:
      Number of threads:                 1
      Number of atoms:                   2
      Number of AO shells:               9
      Number of SO shells:               9
      Number of primitives:             27
      Number of atomic orbitals:        20
      Number of basis functions:        19

      Number of irreps:                  4
      Integral cutoff                 1.00e-12
      Number of functions per irrep: [  10    1    4    4 ]

 OEINTS: Overlap, kinetic, potential, dipole, and quadrupole integrals
         stored in file 35.

      Computing two-electron integrals...done
      Computed 4125 non-zero two-electron integrals.
        Stored in file 33.

 MINTS: Wrapper to libmints.
   by Justin Turney

   Calculation information:
      Number of threads:                 1
      Number of atoms:                   2
      Number of AO shells:               9
      Number of SO shells:               9
      Number of primitives:             27
      Number of atomic orbitals:        20
      Number of basis functions:        19

      Number of irreps:                  4
      Integral cutoff                 1.00e-12
      Number of functions per irrep: [  10    1    4    4 ]

 OEINTS: Overlap, kinetic, potential, dipole, and quadrupole integrals
         stored in file 35.

      Computing two-electron integrals...done
      Computed 4125 non-zero two-electron integrals.
        Stored in file 33.


         ---------------------------------------------------------
                Multi-Configurational Self-Consistent Field
                            (a 'D E T C I' module)

                 Daniel G. A. Smith, C. David Sherrill, and
                              Matt L. Leininger
         ---------------------------------------------------------


   ==> Parameters <==

    EX LEVEL       =        2      H0 BLOCKSIZE  =     1000
    VAL EX LEVEL   =        0      H0 GUESS SIZE =     1000
    H0COUPLINGSIZE =        0      H0 COUPLING   =       NO
    MAXITER        =       12      NUM PRINT     =       20
    NUM ROOTS      =        1      ICORE         =        1
    PRINT LVL      =        1      FCI           =      YES
    R CONV         = 1.00e-07      MIXED         =      YES
    E CONV         = 1.00e-12      MIXED4        =      YES
    R4S            =       NO      REPL OTF      =       NO
    DIAG METHOD    =      SEM      FOLLOW ROOT   =        0
    PRECONDITIONER = DAVIDSON      UPDATE        = DAVIDSON
    S              =   0.0000      Ms0           =      YES
    GUESS VECTOR   =  H0BLOCK      OPENTYPE      =     NONE
    COLLAPSE SIZE  =        1      HD AVG        = EVANGELISTI
    MAX NUM VECS   =       13      REF SYM       =     AUTO
    IOPEN        =       NO

    EX ALLOW       =  1  1 
    STATE AVERAGE  =  0(1.00) 

   ==> CI Orbital and Space information <==

   ------------------------------------------------------
               Space    Total    A1    A2    B1    B2
   ------------------------------------------------------
                 Nso       19    10     1     4     4
                 Nmo       19    10     1     4     4
               Ndocc        5     3     0     1     1
               Nsocc        0     0     0     0     0
   ------------------------------------------------------
                        MCSCF Spaces
   ------------------------------------------------------
         Frozen DOCC        0     0     0     0     0
     Restricted DOCC        4     2     0     1     1
              Active        2     2     0     0     0
     Restricted UOCC       13     6     1     3     3
         Frozen UOCC        0     0     0     0     0
   ------------------------------------------------------

   ==> Setting up CI strings <==

    There are 2 alpha and 2 beta strings
    The CI space requires 4 (4.00E+00) determinants and 1 blocks

   ==> Setting up MCSCF integrals <==

  Using in-core PK algorithm.
   Calculation information:
      Number of atoms:                   2
      Number of AO shells:               9
      Number of primitives:             27
      Number of atomic orbitals:        20
      Number of basis functions:        19

      Integral cutoff                 1.00e-12
      Number of threads:                 1

  Performing in-core PK
  Using 36290 doubles for integral storage.
  We computed 1035 shell quartets total.
  Whereas there are 1035 unique shell quartets.

  ==> DiskJK: Disk-Based J/K Matrices <==

    J tasked:                  Yes
    K tasked:                  Yes
    wK tasked:                  No
    Memory [MiB]:              400
    Schwarz Cutoff:          1E-12

    OpenMP threads:              1


   ==> Starting MCSCF iterations <==

        Iter         Total Energy       Delta E   Orb RMS    CI RMS  NCI NORB
   @MCSCF  1:   -100.020339646455   -9.7757e-04  1.68e-03  6.17e-14    1    1  Initial CI
      Warning! Maxstep = 0.92, scaling to 0.50
   @MCSCF  2:   -100.034323181224   -1.3984e-02  1.32e-02  1.27e-14    3    1  TS
   @MCSCF  3:   -100.041844021443   -7.5208e-03  6.44e-03  1.50e-14    2    1  TS
   @MCSCF  4:   -100.042727359398   -8.8334e-04  1.96e-03  1.69e-14    2    1  TS, DIIS
   @MCSCF  5:   -100.042886287232   -1.5893e-04  7.96e-04  2.06e-14    2    1  TS, DIIS
   @MCSCF  6:   -100.042943933033   -5.7646e-05  5.55e-04  2.30e-14    2    1  TS, DIIS
   @MCSCF  7:   -100.042955386905   -1.1454e-05  2.97e-04  2.14e-14    2    1  TS, DIIS
   @MCSCF  8:   -100.042959841109   -4.4542e-06  7.06e-05  2.36e-14    2    1  TS, DIIS
   @MCSCF  9:   -100.042959952916   -1.1181e-07  2.05e-05  2.32e-14    2    1  TS, DIIS
   @MCSCF 10:   -100.042959959708   -6.7928e-09  8.54e-06  2.61e-14    2    1  TS, DIIS

          @MCSCF has converged!

   @MCSCF Final Energy: -100.042959959708384

   Computing CI Semicanonical Orbitals

   ==> Energetics <==

    SCF energy =         -100.019362075652722
    Total MCSCF energy = -100.042959959708384

   ==> MCSCF root 0 information <==

    MCSCF Root 0 energy =  -100.042959959708440

   Active Space Natural occupation numbers:

        A1   1.979322        A1   0.020678

   The 4 most important determinants:

    *   1   -0.994800  (    0,    0)  3A1X 
    *   2    0.101663  (    1,    1)  4A1X 
    *   3   -0.004377  (    0,    1)  3A1A 4A1B 
    *   4   -0.004377  (    1,    0)  3A1B 4A1A 



Properties will be evaluated at   0.000000,   0.000000,   0.000000 [a0]

Properties computed using the CASSCF density matrix

  Nuclear Dipole Moment: [e a0]
     X:     0.0000      Y:     0.0000      Z:     0.8609

  Electronic Dipole Moment: [e a0]
     X:     0.0000      Y:     0.0000      Z:    -0.1403

  Dipole Moment: [e a0]
     X:     0.0000      Y:     0.0000      Z:     0.7206     Total:     0.7206

  Dipole Moment: [D]
     X:     0.0000      Y:     0.0000      Z:     1.8316     Total:     1.8316

   => Loading Basis Set <=

    Name: STO-3G
    Role: ORBITAL
    Keyword: MINAO_BASIS
    atoms 1 entry F          line    91 file /Users/fevange/Source/psi4/objdir-Debug/stage/share/psi4/basis/sto-3g.gbs 
    atoms 2 entry H          line    19 file /Users/fevange/Source/psi4/objdir-Debug/stage/share/psi4/basis/sto-3g.gbs 


  Read options for space FROZEN_DOCC
  Read options for space RESTRICTED_DOCC
  Read options for space ACTIVE

  ==> MO Space Information <==

  -------------------------------------------------
                       A1    A2    B1    B2   Sum
  -------------------------------------------------
    FROZEN_DOCC         1     0     0     0     1
    RESTRICTED_DOCC     1     0     1     1     3
    ACTIVE              2     0     0     0     2
    RESTRICTED_UOCC     6     1     3     3    13
    FROZEN_UOCC         0     0     0     0     0
    Total              10     1     4     4    19
  -------------------------------------------------
  Forte will use psi4 integrals

  ==> Integral Transformation <==

  Number of molecular orbitals:                    19
  Number of correlated molecular orbitals:         18
  Number of frozen occupied orbitals:               1
  Number of frozen unoccupied orbitals:             0
  Two-electron integral type:              Conventional


  Overall Conventional Integrals timings


  Computing Conventional Integrals	Presorting SO-basis two-electron integrals.
	Sorting File: SO Ints (nn|nn) nbuckets = 1
	Transforming the one-electron integrals and constructing Fock matrices
	Starting first half-transformation.
	Sorting half-transformed integrals.
	First half integral transformation complete.
	Starting second half-transformation.
	Two-electron integral transformation complete.

  Integral transformation done. 0.02365210 s
  Reading the two-electron integrals from disk
  Size of two-electron integrals:   0.002913 GB
  Timing for conventional integral transformation:            0.176 s.
  Building frozen-core operator using PK integrals
  Using in-core PK algorithm.
   Calculation information:
      Number of atoms:                   2
      Number of AO shells:               9
      Number of primitives:             27
      Number of atomic orbitals:        20
      Number of basis functions:        19

      Integral cutoff                 1.00e-12
      Number of threads:                 1

  Performing in-core PK
  Using 36290 doubles for integral storage.
  We computed 1035 shell quartets total.
  Whereas there are 1035 unique shell quartets.


  Frozen-core energy            -76.630334141633 a.u.
  Timing for frozen one-body operator:                        0.200 s.
  Resorting integrals after freezing core.
  Timing for freezing core and virtual orbitals:              0.252 s.
  Conventional integrals take 0.42833879 s

  ==> Summary of Active Space Solver Input <==

    Irrep.  Multi.(2ms)      N
    --------------------------
       A1      1  (  0)      1
    --------------------------
    N: number of roots
    ms: spin z component
    Total number of roots:   1
    --------------------------


  ==> String Lists <==

  Number of alpha electrons     = 1
  Number of beta electrons      = 1
  Number of alpha strings       = 2
  Number of beta strings        = 2
  Timing for strings        =      0.000 s
  Timing for NN strings     =      0.000 s
  Timing for VO strings     =      0.000 s
  Timing for OO strings     =      0.000 s
  Timing for VVOO strings   =      0.000 s
  Timing for VOVO strings   =      0.000 s
  Timing for 1-hole strings =      0.000 s
  Timing for 2-hole strings =      0.000 s
  Timing for 3-hole strings =      0.000 s
  Total timing              =      0.000 s

  ==> FCI Solver <==

    Number of determinants                           4
    Symmetry                                         0
    Multiplicity                                     1
    Number of roots                                  1
    Target root                                      0
    Trial vectors per root                          10

  Allocating memory for the Hamiltonian algorithm. Size: 2 x 2 x 2.   Memory: 0.000000 GB

  ==> FCI Initial Guess <==

  ---------------------------------------------
    Root            Energy     <S^2>   Spin
  ---------------------------------------------
      0     -100.042959959708  0.000  singlet
      1      -99.154359477284  2.000  triplet
      2      -98.693045721227  0.000  singlet
      3      -97.718095315705  0.000  singlet
  ---------------------------------------------
  Timing for initial guess  =      0.003 s

  Projecting out root 1

  ==> Diagonalizing Hamiltonian <==

  Energy   convergence: 1.00e-12
  Residual convergence: 1.00e-06
  -----------------------------------------------------
    Iter.      Avg. Energy       Delta_E     Res. Norm
  -----------------------------------------------------
      1     -100.042959959708  -1.000e+02  +5.135e-14
      2     -100.042959959708  +0.000e+00  +5.135e-14
  -----------------------------------------------------
  The Davidson-Liu algorithm converged in 3 iterations.

  ==> Root No. 0 <==

    20     -0.99479966
    02      0.10166277

    Total Energy:      -100.042959959708469

  ==> Energy Summary <==

    Multi.(2ms)  Irrep.  No.               Energy
    ---------------------------------------------
       1  (  0)    A1     0     -100.042959959708
    ---------------------------------------------

  ==> Computing RDMs for Root No. 0 <==

    Timing for 1-RDM: 0.000 s
    Timing for 2-RDM: 0.000 s
    Timing for 3-RDM: 0.000 s

  ==> NATURAL ORBITALS <==

        1A1     1.979322      2A1     0.020678  


       -----------------------------------------------------------------
                            Semi-Canonical Orbitals
         Chenyang Li, Jeffrey B. Schriber and Francesco A. Evangelista
       -----------------------------------------------------------------

  Took 0.000286 s to build Fock matrix

  ==> Checking Fock Matrix Diagonal Blocks <==

    Off-Diag. Elements       Max           2-Norm
    ------------------------------------------------
    Fa actv              0.0000000000   0.0000000000
    Fb actv              0.0000000000   0.0000000000
    ------------------------------------------------
    Fa core              0.0000000000   0.0000000000
    Fb core              0.0000000000   0.0000000000
    ------------------------------------------------
    Fa virt              0.0000000000   0.0000000000
    Fb virt              0.0000000000   0.0000000000
    ------------------------------------------------
  Orbitals are already semicanonicalized.

  ==> Multireference Driven Similarity Renormalization Group <==

    Reading DSRG options ............................ Done
    Setting ambit MO space .......................... Done
    Preparing tensors for density cumulants ......... Done
    Building Fock matrix ............................ Done

              ----------------------------------------------------
                    MR-DSRG Second-Order Perturbation Theory
                Chenyang Li, Kevin Hannon, Francesco Evangelista
              ----------------------------------------------------

    References:
      u-DSRG-MRPT2:    J. Chem. Theory Comput. 2015, 11, 2097.
      (pr-)DSRG-MRPT2: J. Chem. Phys. 2017, 146, 124132.

  ==> Calculation Information <==

    ntamp                                                 15
    flow parameter                                 5.000e-01
    taylor expansion threshold                     1.000e-03
    intruder_tamp                                  1.000e-01
    int_type                                    CONVENTIONAL
    source operator                                 STANDARD
    reference relaxation                                NONE
    state_type                                STATE-SPECIFIC
    form Hbar3                                         FALSE

  ==> Checking Semicanonical Orbitals <==

    Abs. max of Fock core, active, virtual blocks (Fij, i != j)
                  core          active         virtual
    --------------------------------------------------
    Fα    0.0000000000    0.0000000000    0.0000000000
    Fβ    0.0000000000    0.0000000000    0.0000000000
    --------------------------------------------------

    1-Norm of Fock core, active, virtual blocks (Fij, i != j)
                  core          active         virtual
    --------------------------------------------------
    Fα    0.0000000000    0.0000000000    0.0000000000
    Fβ    0.0000000000    0.0000000000    0.0000000000
    --------------------------------------------------

    Orbitals are semi-canonicalized.

  ==> Computing DSRG-MRPT2 ... <==

    Computing T2 amplitudes                  ...  Done. Timing        0.002953 s
    Computing T1 amplitudes                  ...  Done. Timing        0.006696 s
    Renormalizing two-electron integrals     ...  Done. Timing        0.002475 s
    Renormalizing Fock matrix elements       ...  Done. Timing        0.017840 s
    Computing <[F, T1]>                      ...  Done. Timing        0.001440 s
    Computing <[F, T2]>                      ...  Done. Timing        0.013411 s
    Computing <[V, T1]>                      ...  Done. Timing        0.016678 s
    Computing <[V, T2]> (C_2)^4              ...  Done. Timing        0.118337 s
    Computing <[V, T2]> C_4 (C_2)^2 HH       ...  Done. Timing        0.014645 s
    Computing <[V, T2]> C_4 (C_2)^2 PP       ...  Done. Timing        0.019957 s
    Computing <[V, T2]> C_4 (C_2)^2 PH       ...  Done. Timing        0.366567 s
    Computing <[V, T2]> C_6 C_2              ...  Done. Timing        0.100563 s

  ==> Excitation Amplitudes Summary <==

    Active Indices:    1    2 
    Largest T1 amplitudes for spin case A:
       i       a                  i       a                  i       a               
    --------------------------------------------------------------------------------
    [  2       6    ]-0.196561 [  2       5    ] 0.103247 [  0       1    ]-0.081419 
    [  2       8    ] 0.081112 [  2       3    ] 0.058977 [  2       4    ] 0.050142 
    [  1       4    ]-0.004663 [  1       6    ] 0.003371 [  1       5    ]-0.002657 
    [  0       2    ]-0.000871 [  1       3    ]-0.000129 [  1       8    ]-0.000128 
    [ 14      15    ]-0.000072 [ 10      11    ]-0.000072 [  0       5    ]-0.000065 
    --------------------------------------------------------------------------------
    Norm of T1A vector: (nonzero elements: 23)                    0.261797508932283.
    --------------------------------------------------------------------------------
    Largest T1 amplitudes for spin case B:
       _       _                  _       _                  _       _               
       i       a                  i       a                  i       a               
    --------------------------------------------------------------------------------
    [  2       6    ]-0.196561 [  2       5    ] 0.103247 [  0       1    ]-0.081419 
    [  2       8    ] 0.081112 [  2       3    ] 0.058977 [  2       4    ] 0.050142 
    [  1       4    ]-0.004663 [  1       6    ] 0.003371 [  1       5    ]-0.002657 
    [  0       2    ]-0.000871 [  1       3    ]-0.000129 [  1       8    ]-0.000128 
    [ 14      15    ]-0.000072 [ 10      11    ]-0.000072 [  0       5    ]-0.000065 
    --------------------------------------------------------------------------------
    Norm of T1B vector: (nonzero elements: 23)                    0.261797508932283.
    --------------------------------------------------------------------------------
    Largest T2 amplitudes for spin case AA:
       i   j   a   b              i   j   a   b              i   j   a   b           
    --------------------------------------------------------------------------------
    [  1  14   1  15]-0.062826 [  1  10   1  11]-0.062826 [  2  14   2  15]-0.053327 
    [  2  10   2  11]-0.053327 [  2  10   2  12]-0.041591 [  2  14   2  16]-0.041591 
    [  1   2   2   6] 0.034786 [  1  10   1  12]-0.032694 [  1  14   1  16]-0.032694 
    [  0   1   1   4] 0.032494 [  1  10   2  11] 0.031222 [  1  14   2  15] 0.031222 
    [  1   2   1   6]-0.029213 [ 10  14  11  15]-0.026967 [  1   2   1   5] 0.026697 
    --------------------------------------------------------------------------------
    Norm of T2AA vector: (nonzero elements: 1008)                 0.386982162987040.
    --------------------------------------------------------------------------------
    Largest T2 amplitudes for spin case AB:
           _       _                  _       _                  _       _           
       i   j   a   b              i   j   a   b              i   j   a   b           
    --------------------------------------------------------------------------------
    [  1  14   1  15]-0.061158 [  1  10   1  11]-0.061158 [  2  14   2  15]-0.059024 
    [  2  10   2  11]-0.059024 [  1   1   1   4]-0.056377 [  2  10   2  12]-0.048901 
    [  2  14   2  16]-0.048901 [  0   0   1   1]-0.045768 [  1  10   1  12]-0.045579 
    [  1  14   1  16]-0.045579 [  1   2   1   6]-0.044678 [  2   2   1   4] 0.039889 
    [  1   2   2   4]-0.039546 [ 14  14  15  15]-0.039347 [ 10  10  11  11]-0.039347 
    --------------------------------------------------------------------------------
    Norm of T2AB vector: (nonzero elements: 1487)                 0.399376254914555.
    --------------------------------------------------------------------------------
    Largest T2 amplitudes for spin case BB:
       _   _   _   _              _   _   _   _              _   _   _   _           
       i   j   a   b              i   j   a   b              i   j   a   b           
    --------------------------------------------------------------------------------
    [  1  14   1  15]-0.062826 [  1  10   1  11]-0.062826 [  2  14   2  15]-0.053327 
    [  2  10   2  11]-0.053327 [  2  10   2  12]-0.041591 [  2  14   2  16]-0.041591 
    [  1   2   2   6] 0.034786 [  1  10   1  12]-0.032694 [  1  14   1  16]-0.032694 
    [  0   1   1   4] 0.032494 [  1  10   2  11] 0.031222 [  1  14   2  15] 0.031222 
    [  1   2   1   6]-0.029213 [ 10  14  11  15]-0.026967 [  1   2   1   5] 0.026697 
    --------------------------------------------------------------------------------
    Norm of T2BB vector: (nonzero elements: 1008)                 0.386982162987040.
    --------------------------------------------------------------------------------

  ==> Possible Intruders <==

    T1 amplitudes larger than 0.1000 for spin case A:
        Amplitude         Value                  Denominator              
    ----------------------------------------------------------------------
    [  2       6    ]   -0.19656148 (  0.797530 -   2.374730 =  -1.577200)
    [  2       5    ]    0.10324661 (  0.797530 -   2.104478 =  -1.306949)
    ----------------------------------------------------------------------
    T1 amplitudes larger than 0.1000 for spin case B:
        Amplitude         Value                  Denominator              
    ----------------------------------------------------------------------
    [  2       6    ]   -0.19656148 (  0.797530 -   2.374730 =  -1.577200)
    [  2       5    ]    0.10324661 (  0.797530 -   2.104478 =  -1.306949)
    ----------------------------------------------------------------------
    T2 amplitudes larger than 0.1000 for spin case AA: NULL
    T2 amplitudes larger than 0.1000 for spin case AB: NULL
    T2 amplitudes larger than 0.1000 for spin case BB: NULL

  ==> DSRG-MRPT2 Energy Summary <==

    E0 (reference)                 =   -100.042959959708469
    <[F, T1]>                      =     -0.004300250260300
    <[F, T2]>                      =      0.004429994946493
    <[V, T1]>                      =      0.003721376481151
    <[V, T2]> (C_2)^4              =     -0.191839747375253
    <[V, T2]> C_4 (C_2)^2 HH       =      0.000790766047353
    <[V, T2]> C_4 (C_2)^2 PP       =      0.003400911423160
    <[V, T2]> C_4 (C_2)^2 PH       =      0.009677143854129
    <[V, T2]> C_6 C_2              =     -0.000297624292415
    <[V, T2]>                      =     -0.178268550343026
    DSRG-MRPT2 correlation energy  =     -0.174417429175683
    DSRG-MRPT2 total energy        =   -100.217377388884145
    max(T1)                        =      0.196561479476549
    max(T2)                        =      0.062825868878846
    ||T1||                         =      0.370237587727526
    ||T2||                         =      0.968254078689348

  Energy took      0.695 s


  ==> Total Timings (s) for Computing Commutators <==

             [H1, T1]    [H1, T2]    [H2, T1]    [H2, T2]
    -----------------------------------------------------
    -> C0       0.001       0.013       0.017       0.620
    -> C1       0.000       0.000       0.000       0.000
    -> C2                   0.000       0.000       0.000
    -----------------------------------------------------


  Time to prepare integrals:        0.445 seconds
  Time to run job          :        0.879 seconds
  Total                    :        0.879 seconds
  //>>>>>>>>>>>>>>>>>>>>>>>>>>>>>>>>>>>//
  //    Loading displacement 2 of 3    //
  //<<<<<<<<<<<<<<<<<<<<<<<<<<<<<<<<<<<//

Scratch directory: /tmp/

  Forte
  ----------------------------------------------------------------------------
  A suite of quantum chemistry methods for strongly correlated electrons

    git branch: master - git commit: f19bbc59

  Developed by:
    Francesco A. Evangelista, Chenyang Li, Kevin P. Hannon,
    Jeffrey B. Schriber, Tianyuan Zhang, Chenxi Cai,
    Nan He, Nicholas Stair, Shuhe Wang, Renke Huang
  ----------------------------------------------------------------------------

  Size of Determinant class: 256 bits
  Preparing forte objects from a psi4 Wavefunction object
  No reference wavefunction provided. Computing CASSCF orbitals with psi4

*** tstart() called on CHE-FEVANGE-01I (2)
*** at Thu Jul 30 10:26:56 2020

   => Loading Basis Set <=

    Name: CC-PVDZ
    Role: ORBITAL
    Keyword: BASIS
    atoms 1 entry F          line   228 file /Users/fevange/Source/psi4/objdir-Debug/stage/share/psi4/basis/cc-pvdz.gbs 
    atoms 2 entry H          line    22 file /Users/fevange/Source/psi4/objdir-Debug/stage/share/psi4/basis/cc-pvdz.gbs 


         ---------------------------------------------------------
                                   SCF
               by Justin Turney, Rob Parrish, Andy Simmonett
                          and Daniel G. A. Smith
                              RHF Reference
                        1 Threads,    500 MiB Core
         ---------------------------------------------------------

  ==> Geometry <==

    Molecular point group: c2v
    Full point group: C_inf_v

    Geometry (in Angstrom), charge = 0, multiplicity = 1:

       Center              X                  Y                   Z               Mass       
    ------------   -----------------  -----------------  -----------------  -----------------
         F            0.000000000000     0.000000000000    -0.046381013528    18.998403162730
         H            0.000000000000     0.000000000000     0.874323583870     1.007825032230

  Running in c2v symmetry.

  Rotational constants: A = ************  B =     20.77872  C =     20.77872 [cm^-1]
  Rotational constants: A = ************  B = 622930.43972  C = 622930.43972 [MHz]
  Nuclear repulsion =    5.172771928684158

  Charge       = 0
  Multiplicity = 1
  Electrons    = 10
  Nalpha       = 5
  Nbeta        = 5

  ==> Algorithm <==

  SCF Algorithm Type is DF.
  DIIS enabled.
  MOM disabled.
  Fractional occupation disabled.
  Guess Type is SAD.
  Energy threshold   = 1.00e-12
  Density threshold  = 1.00e-06
  Integral threshold = 0.00e+00

  ==> Primary Basis <==

  Basis Set: CC-PVDZ
    Blend: CC-PVDZ
    Number of shells: 9
    Number of basis function: 19
    Number of Cartesian functions: 20
    Spherical Harmonics?: true
    Max angular momentum: 2

   => Loading Basis Set <=

    Name: (CC-PVDZ AUX)
    Role: JKFIT
    Keyword: DF_BASIS_SCF
    atoms 1 entry F          line   271 file /Users/fevange/Source/psi4/objdir-Debug/stage/share/psi4/basis/cc-pvdz-jkfit.gbs 
    atoms 2 entry H          line    51 file /Users/fevange/Source/psi4/objdir-Debug/stage/share/psi4/basis/cc-pvdz-jkfit.gbs 

  ==> Integral Setup <==

  DFHelper Memory: AOs need 0.000 GiB; user supplied 0.366 GiB. Using in-core AOs.

  ==> MemDFJK: Density-Fitted J/K Matrices <==

    J tasked:                   Yes
    K tasked:                   Yes
    wK tasked:                   No
    OpenMP threads:               1
    Memory [MiB]:               375
    Algorithm:                 Core
    Schwarz Cutoff:           1E-12
    Mask sparsity (%):       0.0000
    Fitting Condition:        1E-10

   => Auxiliary Basis Set <=

  Basis Set: (CC-PVDZ AUX)
    Blend: CC-PVDZ-JKFIT
    Number of shells: 33
    Number of basis function: 93
    Number of Cartesian functions: 106
    Spherical Harmonics?: true
    Max angular momentum: 3

  Minimum eigenvalue in the overlap matrix is 4.9592636764E-02.
  Reciprocal condition number of the overlap matrix is 1.7278072360E-02.
    Using symmetric orthogonalization.

  ==> Pre-Iterations <==

  SCF Guess: Superposition of Atomic Densities via on-the-fly atomic UHF (no occupation information).

   -------------------------
    Irrep   Nso     Nmo    
   -------------------------
     A1        10      10 
     A2         1       1 
     B1         4       4 
     B2         4       4 
   -------------------------
    Total      19      19
   -------------------------

  ==> Iterations <==

                           Total Energy        Delta E     RMS |[F,P]|

   @DF-RHF iter SAD:   -99.61456112649998   -9.96146e+01   0.00000e+00 
   @DF-RHF iter   1:   -99.98201122792153   -3.67450e-01   2.70412e-02 DIIS
   @DF-RHF iter   2:  -100.01088602186196   -2.88748e-02   1.47734e-02 DIIS
   @DF-RHF iter   3:  -100.01901199417263   -8.12597e-03   1.49797e-03 DIIS
   @DF-RHF iter   4:  -100.01922721952538   -2.15225e-04   4.20792e-04 DIIS
   @DF-RHF iter   5:  -100.01924571984740   -1.85003e-05   7.88614e-05 DIIS
   @DF-RHF iter   6:  -100.01924659100129   -8.71154e-07   8.59546e-06 DIIS
   @DF-RHF iter   7:  -100.01924660077445   -9.77316e-09   6.08340e-07 DIIS
   @DF-RHF iter   8:  -100.01924660080788   -3.34239e-11   6.49821e-08 DIIS
   @DF-RHF iter   9:  -100.01924660080823   -3.55271e-13   6.21001e-09 DIIS
  Energy and wave function converged.


  ==> Post-Iterations <==

    Orbital Energies [Eh]
    ---------------------

    Doubly Occupied:                                                      

       1A1   -26.278196     2A1    -1.582152     3A1    -0.745722  
       1B2    -0.628518     1B1    -0.628518  

    Virtual:                                                              

       4A1     0.183050     5A1     0.806414     2B1     1.410792  
       2B2     1.410792     6A1     1.417034     3B2     1.605106  
       3B1     1.605106     7A1     2.134626     8A1     2.488931  
       9A1     4.005172     1A2     4.005172     4B2     4.277398  
       4B1     4.277398    10A1     5.051229  

    Final Occupation by Irrep:
             A1    A2    B1    B2 
    DOCC [     3,    0,    1,    1 ]

  @DF-RHF Final Energy:  -100.01924660080823

   => Energetics <=

    Nuclear Repulsion Energy =              5.1727719286841580
    One-Electron Energy =                -150.6578245623960584
    Two-Electron Energy =                  45.4658060329036573
    Total Energy =                       -100.0192466008082306

Computation Completed


Properties will be evaluated at   0.000000,   0.000000,   0.000000 [a0]

Properties computed using the SCF density matrix

  Nuclear Dipole Moment: [e a0]
     X:     0.0000      Y:     0.0000      Z:     0.8634

  Electronic Dipole Moment: [e a0]
     X:     0.0000      Y:     0.0000      Z:    -0.0933

  Dipole Moment: [e a0]
     X:     0.0000      Y:     0.0000      Z:     0.7701     Total:     0.7701

  Dipole Moment: [D]
     X:     0.0000      Y:     0.0000      Z:     1.9573     Total:     1.9573


*** tstop() called on CHE-FEVANGE-01I (2) at Thu Jul 30 10:26:57 2020
Module time:
	user time   =       0.78 seconds =       0.01 minutes
	system time =       0.02 seconds =       0.00 minutes
	total time  =          1 seconds =       0.02 minutes
Total time:
	user time   =       3.87 seconds =       0.06 minutes
	system time =       0.28 seconds =       0.00 minutes
	total time  =          4 seconds =       0.07 minutes
 MINTS: Wrapper to libmints.
   by Justin Turney

   Calculation information:
      Number of threads:                 1
      Number of atoms:                   2
      Number of AO shells:               9
      Number of SO shells:               9
      Number of primitives:             27
      Number of atomic orbitals:        20
      Number of basis functions:        19

      Number of irreps:                  4
      Integral cutoff                 1.00e-12
      Number of functions per irrep: [  10    1    4    4 ]

 OEINTS: Overlap, kinetic, potential, dipole, and quadrupole integrals
         stored in file 35.

      Computing two-electron integrals...done
      Computed 4125 non-zero two-electron integrals.
        Stored in file 33.

 MINTS: Wrapper to libmints.
   by Justin Turney

   Calculation information:
      Number of threads:                 1
      Number of atoms:                   2
      Number of AO shells:               9
      Number of SO shells:               9
      Number of primitives:             27
      Number of atomic orbitals:        20
      Number of basis functions:        19

      Number of irreps:                  4
      Integral cutoff                 1.00e-12
      Number of functions per irrep: [  10    1    4    4 ]

 OEINTS: Overlap, kinetic, potential, dipole, and quadrupole integrals
         stored in file 35.

      Computing two-electron integrals...done
      Computed 4125 non-zero two-electron integrals.
        Stored in file 33.


         ---------------------------------------------------------
                Multi-Configurational Self-Consistent Field
                            (a 'D E T C I' module)

                 Daniel G. A. Smith, C. David Sherrill, and
                              Matt L. Leininger
         ---------------------------------------------------------


   ==> Parameters <==

    EX LEVEL       =        2      H0 BLOCKSIZE  =     1000
    VAL EX LEVEL   =        0      H0 GUESS SIZE =     1000
    H0COUPLINGSIZE =        0      H0 COUPLING   =       NO
    MAXITER        =       12      NUM PRINT     =       20
    NUM ROOTS      =        1      ICORE         =        1
    PRINT LVL      =        1      FCI           =      YES
    R CONV         = 1.00e-07      MIXED         =      YES
    E CONV         = 1.00e-12      MIXED4        =      YES
    R4S            =       NO      REPL OTF      =       NO
    DIAG METHOD    =      SEM      FOLLOW ROOT   =        0
    PRECONDITIONER = DAVIDSON      UPDATE        = DAVIDSON
    S              =   0.0000      Ms0           =      YES
    GUESS VECTOR   =  H0BLOCK      OPENTYPE      =     NONE
    COLLAPSE SIZE  =        1      HD AVG        = EVANGELISTI
    MAX NUM VECS   =       13      REF SYM       =     AUTO
    IOPEN        =       NO

    EX ALLOW       =  1  1 
    STATE AVERAGE  =  0(1.00) 

   ==> CI Orbital and Space information <==

   ------------------------------------------------------
               Space    Total    A1    A2    B1    B2
   ------------------------------------------------------
                 Nso       19    10     1     4     4
                 Nmo       19    10     1     4     4
               Ndocc        5     3     0     1     1
               Nsocc        0     0     0     0     0
   ------------------------------------------------------
                        MCSCF Spaces
   ------------------------------------------------------
         Frozen DOCC        0     0     0     0     0
     Restricted DOCC        4     2     0     1     1
              Active        2     2     0     0     0
     Restricted UOCC       13     6     1     3     3
         Frozen UOCC        0     0     0     0     0
   ------------------------------------------------------

   ==> Setting up CI strings <==

    There are 2 alpha and 2 beta strings
    The CI space requires 4 (4.00E+00) determinants and 1 blocks

   ==> Setting up MCSCF integrals <==

  Using in-core PK algorithm.
   Calculation information:
      Number of atoms:                   2
      Number of AO shells:               9
      Number of primitives:             27
      Number of atomic orbitals:        20
      Number of basis functions:        19

      Integral cutoff                 1.00e-12
      Number of threads:                 1

  Performing in-core PK
  Using 36290 doubles for integral storage.
  We computed 1035 shell quartets total.
  Whereas there are 1035 unique shell quartets.

  ==> DiskJK: Disk-Based J/K Matrices <==

    J tasked:                  Yes
    K tasked:                  Yes
    wK tasked:                  No
    Memory [MiB]:              400
    Schwarz Cutoff:          1E-12

    OpenMP threads:              1


   ==> Starting MCSCF iterations <==

        Iter         Total Energy       Delta E   Orb RMS    CI RMS  NCI NORB
   @MCSCF  1:   -100.020252752591   -1.0062e-03  1.73e-03  7.14e-14    1    1  Initial CI
      Warning! Maxstep = 0.92, scaling to 0.50
   @MCSCF  2:   -100.034387552224   -1.4135e-02  1.33e-02  1.25e-14    3    1  TS
   @MCSCF  3:   -100.041860774585   -7.4732e-03  6.45e-03  1.57e-14    2    1  TS
   @MCSCF  4:   -100.042739038524   -8.7826e-04  1.96e-03  1.86e-14    2    1  TS, DIIS
   @MCSCF  5:   -100.042897046040   -1.5801e-04  7.98e-04  1.17e-14    2    1  TS, DIIS
   @MCSCF  6:   -100.042954307276   -5.7261e-05  5.55e-04  1.80e-14    2    1  TS, DIIS
   @MCSCF  7:   -100.042965785281   -1.1478e-05  2.95e-04  2.09e-14    2    1  TS, DIIS
   @MCSCF  8:   -100.042970134215   -4.3489e-06  7.01e-05  1.53e-14    2    1  TS, DIIS
   @MCSCF  9:   -100.042970243910   -1.0970e-07  2.01e-05  1.75e-14    2    1  TS, DIIS
   @MCSCF 10:   -100.042970250403   -6.4931e-09  8.37e-06  1.34e-14    2    1  TS, DIIS

          @MCSCF has converged!

   @MCSCF Final Energy: -100.042970250403400

   Computing CI Semicanonical Orbitals

   ==> Energetics <==

    SCF energy =         -100.019246600808231
    Total MCSCF energy = -100.042970250403400

   ==> MCSCF root 0 information <==

    MCSCF Root 0 energy =  -100.042970250403428

   Active Space Natural occupation numbers:

        A1   1.979085        A1   0.020915

   The 4 most important determinants:

    *   1   -0.994740  (    0,    0)  3A1X 
    *   2    0.102244  (    1,    1)  4A1X 
    *   3   -0.004447  (    0,    1)  3A1A 4A1B 
    *   4   -0.004447  (    1,    0)  3A1B 4A1A 



Properties will be evaluated at   0.000000,   0.000000,   0.000000 [a0]

Properties computed using the CASSCF density matrix

  Nuclear Dipole Moment: [e a0]
     X:     0.0000      Y:     0.0000      Z:     0.8634

  Electronic Dipole Moment: [e a0]
     X:     0.0000      Y:     0.0000      Z:    -0.1414

  Dipole Moment: [e a0]
     X:     0.0000      Y:     0.0000      Z:     0.7221     Total:     0.7221

  Dipole Moment: [D]
     X:     0.0000      Y:     0.0000      Z:     1.8353     Total:     1.8353

   => Loading Basis Set <=

    Name: STO-3G
    Role: ORBITAL
    Keyword: MINAO_BASIS
    atoms 1 entry F          line    91 file /Users/fevange/Source/psi4/objdir-Debug/stage/share/psi4/basis/sto-3g.gbs 
    atoms 2 entry H          line    19 file /Users/fevange/Source/psi4/objdir-Debug/stage/share/psi4/basis/sto-3g.gbs 


  Read options for space FROZEN_DOCC
  Read options for space RESTRICTED_DOCC
  Read options for space ACTIVE

  ==> MO Space Information <==

  -------------------------------------------------
                       A1    A2    B1    B2   Sum
  -------------------------------------------------
    FROZEN_DOCC         1     0     0     0     1
    RESTRICTED_DOCC     1     0     1     1     3
    ACTIVE              2     0     0     0     2
    RESTRICTED_UOCC     6     1     3     3    13
    FROZEN_UOCC         0     0     0     0     0
    Total              10     1     4     4    19
  -------------------------------------------------
  Forte will use psi4 integrals

  ==> Integral Transformation <==

  Number of molecular orbitals:                    19
  Number of correlated molecular orbitals:         18
  Number of frozen occupied orbitals:               1
  Number of frozen unoccupied orbitals:             0
  Two-electron integral type:              Conventional


  Overall Conventional Integrals timings


  Computing Conventional Integrals	Presorting SO-basis two-electron integrals.
	Sorting File: SO Ints (nn|nn) nbuckets = 1
	Transforming the one-electron integrals and constructing Fock matrices
	Starting first half-transformation.
	Sorting half-transformed integrals.
	First half integral transformation complete.
	Starting second half-transformation.
	Two-electron integral transformation complete.

  Integral transformation done. 0.04140802 s
  Reading the two-electron integrals from disk
  Size of two-electron integrals:   0.002913 GB
  Timing for conventional integral transformation:            0.192 s.
  Building frozen-core operator using PK integrals
  Using in-core PK algorithm.
   Calculation information:
      Number of atoms:                   2
      Number of AO shells:               9
      Number of primitives:             27
      Number of atomic orbitals:        20
      Number of basis functions:        19

      Integral cutoff                 1.00e-12
      Number of threads:                 1

  Performing in-core PK
  Using 36290 doubles for integral storage.
  We computed 1035 shell quartets total.
  Whereas there are 1035 unique shell quartets.


  Frozen-core energy            -76.626948558298 a.u.
  Timing for frozen one-body operator:                        0.181 s.
  Resorting integrals after freezing core.
  Timing for freezing core and virtual orbitals:              0.245 s.
  Conventional integrals take 0.43787445 s

  ==> Summary of Active Space Solver Input <==

    Irrep.  Multi.(2ms)      N
    --------------------------
       A1      1  (  0)      1
    --------------------------
    N: number of roots
    ms: spin z component
    Total number of roots:   1
    --------------------------


  ==> String Lists <==

  Number of alpha electrons     = 1
  Number of beta electrons      = 1
  Number of alpha strings       = 2
  Number of beta strings        = 2
  Timing for strings        =      0.000 s
  Timing for NN strings     =      0.000 s
  Timing for VO strings     =      0.000 s
  Timing for OO strings     =      0.000 s
  Timing for VVOO strings   =      0.000 s
  Timing for VOVO strings   =      0.000 s
  Timing for 1-hole strings =      0.000 s
  Timing for 2-hole strings =      0.000 s
  Timing for 3-hole strings =      0.000 s
  Total timing              =      0.000 s

  ==> FCI Solver <==

    Number of determinants                           4
    Symmetry                                         0
    Multiplicity                                     1
    Number of roots                                  1
    Target root                                      0
    Trial vectors per root                          10

  Allocating memory for the Hamiltonian algorithm. Size: 2 x 2 x 2.   Memory: 0.000000 GB

  ==> FCI Initial Guess <==

  ---------------------------------------------
    Root            Energy     <S^2>   Spin
  ---------------------------------------------
      0     -100.027730309774  0.000  singlet
      1      -99.145846874667  2.000  triplet
      2      -98.684767638619  0.000  singlet
      3      -97.716365973107  0.000  singlet
  ---------------------------------------------
  Timing for initial guess  =      0.000 s

  Projecting out root 1

  ==> Diagonalizing Hamiltonian <==

  Energy   convergence: 1.00e-12
  Residual convergence: 1.00e-06
  -----------------------------------------------------
    Iter.      Avg. Energy       Delta_E     Res. Norm
  -----------------------------------------------------
      1     -100.042970250403  -1.000e+02  +3.077e-14
      2     -100.042970250403  +0.000e+00  +3.077e-14
  -----------------------------------------------------
  The Davidson-Liu algorithm converged in 3 iterations.

  ==> Root No. 0 <==

    20      0.99473951
    02     -0.10224356

    Total Energy:      -100.042970250403414

  ==> Energy Summary <==

    Multi.(2ms)  Irrep.  No.               Energy
    ---------------------------------------------
       1  (  0)    A1     0     -100.042970250403
    ---------------------------------------------

  ==> Computing RDMs for Root No. 0 <==

    Timing for 1-RDM: 0.000 s
    Timing for 2-RDM: 0.000 s
    Timing for 3-RDM: 0.000 s

  ==> NATURAL ORBITALS <==

        1A1     1.979085      2A1     0.020915  


       -----------------------------------------------------------------
                            Semi-Canonical Orbitals
         Chenyang Li, Jeffrey B. Schriber and Francesco A. Evangelista
       -----------------------------------------------------------------

  Took 0.000270 s to build Fock matrix

  ==> Checking Fock Matrix Diagonal Blocks <==

    Off-Diag. Elements       Max           2-Norm
    ------------------------------------------------
    Fa actv              0.0000000000   0.0000000000
    Fb actv              0.0000000000   0.0000000000
    ------------------------------------------------
    Fa core              0.0000000000   0.0000000000
    Fb core              0.0000000000   0.0000000000
    ------------------------------------------------
    Fa virt              0.0000000000   0.0000000000
    Fb virt              0.0000000000   0.0000000000
    ------------------------------------------------
  Orbitals are already semicanonicalized.

  ==> Multireference Driven Similarity Renormalization Group <==

    Reading DSRG options ............................ Done
    Setting ambit MO space .......................... Done
    Preparing tensors for density cumulants ......... Done
    Building Fock matrix ............................ Done

              ----------------------------------------------------
                    MR-DSRG Second-Order Perturbation Theory
                Chenyang Li, Kevin Hannon, Francesco Evangelista
              ----------------------------------------------------

    References:
      u-DSRG-MRPT2:    J. Chem. Theory Comput. 2015, 11, 2097.
      (pr-)DSRG-MRPT2: J. Chem. Phys. 2017, 146, 124132.

  ==> Calculation Information <==

    ntamp                                                 15
    flow parameter                                 5.000e-01
    taylor expansion threshold                     1.000e-03
    intruder_tamp                                  1.000e-01
    int_type                                    CONVENTIONAL
    source operator                                 STANDARD
    reference relaxation                                NONE
    state_type                                STATE-SPECIFIC
    form Hbar3                                         FALSE

  ==> Checking Semicanonical Orbitals <==

    Abs. max of Fock core, active, virtual blocks (Fij, i != j)
                  core          active         virtual
    --------------------------------------------------
    Fα    0.0000000000    0.0000000000    0.0000000000
    Fβ    0.0000000000    0.0000000000    0.0000000000
    --------------------------------------------------

    1-Norm of Fock core, active, virtual blocks (Fij, i != j)
                  core          active         virtual
    --------------------------------------------------
    Fα    0.0000000000    0.0000000000    0.0000000000
    Fβ    0.0000000000    0.0000000000    0.0000000000
    --------------------------------------------------

    Orbitals are semi-canonicalized.

  ==> Computing DSRG-MRPT2 ... <==

    Computing T2 amplitudes                  ...  Done. Timing        0.003161 s
    Computing T1 amplitudes                  ...  Done. Timing        0.010869 s
    Renormalizing two-electron integrals     ...  Done. Timing        0.002228 s
    Renormalizing Fock matrix elements       ...  Done. Timing        0.034387 s
    Computing <[F, T1]>                      ...  Done. Timing        0.002510 s
    Computing <[F, T2]>                      ...  Done. Timing        0.005940 s
    Computing <[V, T1]>                      ...  Done. Timing        0.011419 s
    Computing <[V, T2]> (C_2)^4              ...  Done. Timing        1.239539 s
    Computing <[V, T2]> C_4 (C_2)^2 HH       ...  Done. Timing        0.009167 s
    Computing <[V, T2]> C_4 (C_2)^2 PP       ...  Done. Timing        0.013787 s
    Computing <[V, T2]> C_4 (C_2)^2 PH       ...  Done. Timing        0.193800 s
    Computing <[V, T2]> C_6 C_2              ...  Done. Timing        0.136294 s

  ==> Excitation Amplitudes Summary <==

    Active Indices:    1    2 
    Largest T1 amplitudes for spin case A:
       i       a                  i       a                  i       a               
    --------------------------------------------------------------------------------
    [  2       6    ] 0.194558 [  2       5    ] 0.104484 [  0       1    ]-0.081442 
    [  2       8    ] 0.080129 [  2       3    ]-0.057946 [  2       4    ]-0.050857 
    [  1       4    ] 0.004702 [  1       6    ]-0.003376 [  1       5    ]-0.002710 
    [  0       2    ]-0.000886 [  1       3    ] 0.000133 [  1       8    ]-0.000123 
    [ 10      11    ]-0.000071 [ 14      15    ]-0.000071 [  0       5    ]-0.000066 
    --------------------------------------------------------------------------------
    Norm of T1A vector: (nonzero elements: 23)                    0.260401554664390.
    --------------------------------------------------------------------------------
    Largest T1 amplitudes for spin case B:
       _       _                  _       _                  _       _               
       i       a                  i       a                  i       a               
    --------------------------------------------------------------------------------
    [  2       6    ] 0.194558 [  2       5    ] 0.104484 [  0       1    ]-0.081442 
    [  2       8    ] 0.080129 [  2       3    ]-0.057946 [  2       4    ]-0.050857 
    [  1       4    ] 0.004702 [  1       6    ]-0.003376 [  1       5    ]-0.002710 
    [  0       2    ]-0.000886 [  1       3    ] 0.000133 [  1       8    ]-0.000123 
    [ 10      11    ]-0.000071 [ 14      15    ]-0.000071 [  0       5    ]-0.000066 
    --------------------------------------------------------------------------------
    Norm of T1B vector: (nonzero elements: 23)                    0.260401554664390.
    --------------------------------------------------------------------------------
    Largest T2 amplitudes for spin case AA:
       i   j   a   b              i   j   a   b              i   j   a   b           
    --------------------------------------------------------------------------------
    [  1  10   1  11]-0.062591 [  1  14   1  15]-0.062591 [  2  10   2  11]-0.053020 
    [  2  14   2  15]-0.053020 [  2  14   2  16]-0.041771 [  2  10   2  12]-0.041771 
    [  1   2   2   6]-0.034728 [  1  14   1  16]-0.032965 [  1  10   1  12]-0.032965 
    [  0   1   1   4]-0.032426 [  1  10   2  11] 0.031264 [  1  14   2  15] 0.031264 
    [  1   2   1   6] 0.028884 [  1   2   1   5] 0.026959 [ 10  14  11  15]-0.026870 
    --------------------------------------------------------------------------------
    Norm of T2AA vector: (nonzero elements: 1008)                 0.386750823468369.
    --------------------------------------------------------------------------------
    Largest T2 amplitudes for spin case AB:
           _       _                  _       _                  _       _           
       i   j   a   b              i   j   a   b              i   j   a   b           
    --------------------------------------------------------------------------------
    [  1  10   1  11]-0.060858 [  1  14   1  15]-0.060858 [  2  10   2  11]-0.058671 
    [  2  14   2  15]-0.058671 [  1   1   1   4] 0.056306 [  2  14   2  16]-0.049092 
    [  2  10   2  12]-0.049092 [  0   0   1   1]-0.045998 [  1  14   1  16]-0.045766 
    [  1  10   1  12]-0.045766 [  1   2   1   6] 0.044269 [  2   2   1   4]-0.039681 
    [  1   2   2   4] 0.039605 [ 10  10  11  11]-0.039200 [ 14  14  15  15]-0.039200 
    --------------------------------------------------------------------------------
    Norm of T2AB vector: (nonzero elements: 1487)                 0.399152317459587.
    --------------------------------------------------------------------------------
    Largest T2 amplitudes for spin case BB:
       _   _   _   _              _   _   _   _              _   _   _   _           
       i   j   a   b              i   j   a   b              i   j   a   b           
    --------------------------------------------------------------------------------
    [  1  10   1  11]-0.062591 [  1  14   1  15]-0.062591 [  2  10   2  11]-0.053020 
    [  2  14   2  15]-0.053020 [  2  14   2  16]-0.041771 [  2  10   2  12]-0.041771 
    [  1   2   2   6]-0.034728 [  1  14   1  16]-0.032965 [  1  10   1  12]-0.032965 
    [  0   1   1   4]-0.032426 [  1  10   2  11] 0.031264 [  1  14   2  15] 0.031264 
    [  1   2   1   6] 0.028884 [  1   2   1   5] 0.026959 [ 10  14  11  15]-0.026870 
    --------------------------------------------------------------------------------
    Norm of T2BB vector: (nonzero elements: 1008)                 0.386750823468369.
    --------------------------------------------------------------------------------

  ==> Possible Intruders <==

    T1 amplitudes larger than 0.1000 for spin case A:
        Amplitude         Value                  Denominator              
    ----------------------------------------------------------------------
    [  2       6    ]    0.19455806 (  0.791797 -   2.369141 =  -1.577344)
    [  2       5    ]    0.10448380 (  0.791797 -   2.104210 =  -1.312413)
    ----------------------------------------------------------------------
    T1 amplitudes larger than 0.1000 for spin case B:
        Amplitude         Value                  Denominator              
    ----------------------------------------------------------------------
    [  2       6    ]    0.19455806 (  0.791797 -   2.369141 =  -1.577344)
    [  2       5    ]    0.10448380 (  0.791797 -   2.104210 =  -1.312413)
    ----------------------------------------------------------------------
    T2 amplitudes larger than 0.1000 for spin case AA: NULL
    T2 amplitudes larger than 0.1000 for spin case AB: NULL
    T2 amplitudes larger than 0.1000 for spin case BB: NULL

  ==> DSRG-MRPT2 Energy Summary <==

    E0 (reference)                 =   -100.042970250403428
    <[F, T1]>                      =     -0.004319794358588
    <[F, T2]>                      =      0.004461375084656
    <[V, T1]>                      =      0.003736694050681
    <[V, T2]> (C_2)^4              =     -0.191964049388433
    <[V, T2]> C_4 (C_2)^2 HH       =      0.000799072460649
    <[V, T2]> C_4 (C_2)^2 PP       =      0.003426791648370
    <[V, T2]> C_4 (C_2)^2 PH       =      0.009766349245213
    <[V, T2]> C_6 C_2              =     -0.000303718525704
    <[V, T2]>                      =     -0.178275554559905
    DSRG-MRPT2 correlation energy  =     -0.174397279783156
    DSRG-MRPT2 total energy        =   -100.217367530186579
    max(T1)                        =      0.194558057969685
    max(T2)                        =      0.062591095343887
    ||T1||                         =      0.368263410269419
    ||T2||                         =      0.967699689490681

  Energy took      1.704 s


  ==> Total Timings (s) for Computing Commutators <==

             [H1, T1]    [H1, T2]    [H2, T1]    [H2, T2]
    -----------------------------------------------------
    -> C0       0.003       0.006       0.011       1.593
    -> C1       0.000       0.000       0.000       0.000
    -> C2                   0.000       0.000       0.000
    -----------------------------------------------------


  Time to prepare integrals:        0.464 seconds
  Time to run job          :        1.740 seconds
  Total                    :        1.740 seconds
  //>>>>>>>>>>>>>>>>>>>>>>>>>>>>>>>>>>>//
  //    Loading displacement 3 of 3    //
  //<<<<<<<<<<<<<<<<<<<<<<<<<<<<<<<<<<<//

Scratch directory: /tmp/

  Forte
  ----------------------------------------------------------------------------
  A suite of quantum chemistry methods for strongly correlated electrons

    git branch: master - git commit: f19bbc59

  Developed by:
    Francesco A. Evangelista, Chenyang Li, Kevin P. Hannon,
    Jeffrey B. Schriber, Tianyuan Zhang, Chenxi Cai,
    Nan He, Nicholas Stair, Shuhe Wang, Renke Huang
  ----------------------------------------------------------------------------

  Size of Determinant class: 256 bits
  Preparing forte objects from a psi4 Wavefunction object
  No reference wavefunction provided. Computing CASSCF orbitals with psi4

*** tstart() called on CHE-FEVANGE-01I (2)
*** at Thu Jul 30 10:27:00 2020

   => Loading Basis Set <=

    Name: CC-PVDZ
    Role: ORBITAL
    Keyword: BASIS
    atoms 1 entry F          line   228 file /Users/fevange/Source/psi4/objdir-Debug/stage/share/psi4/basis/cc-pvdz.gbs 
    atoms 2 entry H          line    22 file /Users/fevange/Source/psi4/objdir-Debug/stage/share/psi4/basis/cc-pvdz.gbs 


         ---------------------------------------------------------
                                   SCF
               by Justin Turney, Rob Parrish, Andy Simmonett
                          and Daniel G. A. Smith
                              RHF Reference
                        1 Threads,    500 MiB Core
         ---------------------------------------------------------

  ==> Geometry <==

    Molecular point group: c2v
    Full point group: C_inf_v

    Geometry (in Angstrom), charge = 0, multiplicity = 1:

       Center              X                  Y                   Z               Mass       
    ------------   -----------------  -----------------  -----------------  -----------------
         F            0.000000000000     0.000000000000    -0.046108522288    18.998403162730
         H            0.000000000000     0.000000000000     0.869186880314     1.007825032230

  Running in c2v symmetry.

  Rotational constants: A = ************  B =     21.02504  C =     21.02504 [cm^-1]
  Rotational constants: A = ************  B = 630314.96004  C = 630314.96004 [MHz]
  Nuclear repulsion =    5.203341874645142

  Charge       = 0
  Multiplicity = 1
  Electrons    = 10
  Nalpha       = 5
  Nbeta        = 5

  ==> Algorithm <==

  SCF Algorithm Type is DF.
  DIIS enabled.
  MOM disabled.
  Fractional occupation disabled.
  Guess Type is SAD.
  Energy threshold   = 1.00e-12
  Density threshold  = 1.00e-06
  Integral threshold = 0.00e+00

  ==> Primary Basis <==

  Basis Set: CC-PVDZ
    Blend: CC-PVDZ
    Number of shells: 9
    Number of basis function: 19
    Number of Cartesian functions: 20
    Spherical Harmonics?: true
    Max angular momentum: 2

   => Loading Basis Set <=

    Name: (CC-PVDZ AUX)
    Role: JKFIT
    Keyword: DF_BASIS_SCF
    atoms 1 entry F          line   271 file /Users/fevange/Source/psi4/objdir-Debug/stage/share/psi4/basis/cc-pvdz-jkfit.gbs 
    atoms 2 entry H          line    51 file /Users/fevange/Source/psi4/objdir-Debug/stage/share/psi4/basis/cc-pvdz-jkfit.gbs 

  ==> Integral Setup <==

  DFHelper Memory: AOs need 0.000 GiB; user supplied 0.366 GiB. Using in-core AOs.

  ==> MemDFJK: Density-Fitted J/K Matrices <==

    J tasked:                   Yes
    K tasked:                   Yes
    wK tasked:                   No
    OpenMP threads:               1
    Memory [MiB]:               375
    Algorithm:                 Core
    Schwarz Cutoff:           1E-12
    Mask sparsity (%):       0.0000
    Fitting Condition:        1E-10

   => Auxiliary Basis Set <=

  Basis Set: (CC-PVDZ AUX)
    Blend: CC-PVDZ-JKFIT
    Number of shells: 33
    Number of basis function: 93
    Number of Cartesian functions: 106
    Spherical Harmonics?: true
    Max angular momentum: 3

  Minimum eigenvalue in the overlap matrix is 4.8900359561E-02.
  Reciprocal condition number of the overlap matrix is 1.7009073644E-02.
    Using symmetric orthogonalization.

  ==> Pre-Iterations <==

  SCF Guess: Superposition of Atomic Densities via on-the-fly atomic UHF (no occupation information).

   -------------------------
    Irrep   Nso     Nmo    
   -------------------------
     A1        10      10 
     A2         1       1 
     B1         4       4 
     B2         4       4 
   -------------------------
    Total      19      19
   -------------------------

  ==> Iterations <==

                           Total Energy        Delta E     RMS |[F,P]|

   @DF-RHF iter SAD:   -99.61857657830028   -9.96186e+01   0.00000e+00 
   @DF-RHF iter   1:   -99.98253118916894   -3.63955e-01   2.70042e-02 DIIS
   @DF-RHF iter   2:  -100.01121668979900   -2.86855e-02   1.46779e-02 DIIS
   @DF-RHF iter   3:  -100.01923415748253   -8.01747e-03   1.48264e-03 DIIS
   @DF-RHF iter   4:  -100.01944252653109   -2.08369e-04   4.12331e-04 DIIS
   @DF-RHF iter   5:  -100.01946017916663   -1.76526e-05   7.76825e-05 DIIS
   @DF-RHF iter   6:  -100.01946102082837   -8.41662e-07   8.52921e-06 DIIS
   @DF-RHF iter   7:  -100.01946103045682   -9.62845e-09   6.05065e-07 DIIS
   @DF-RHF iter   8:  -100.01946103048985   -3.30260e-11   6.40852e-08 DIIS
   @DF-RHF iter   9:  -100.01946103049021   -3.55271e-13   6.11111e-09 DIIS
  Energy and wave function converged.


  ==> Post-Iterations <==

    Orbital Energies [Eh]
    ---------------------

    Doubly Occupied:                                                      

       1A1   -26.278100     2A1    -1.584062     3A1    -0.747879  
       1B1    -0.629057     1B2    -0.629057  

    Virtual:                                                              

       4A1     0.184202     5A1     0.811746     2B2     1.412620  
       2B1     1.412620     6A1     1.415193     3B1     1.604476  
       3B2     1.604476     7A1     2.134097     8A1     2.503853  
       9A1     4.004629     1A2     4.004629     4B1     4.282630  
       4B2     4.282630    10A1     5.058965  

    Final Occupation by Irrep:
             A1    A2    B1    B2 
    DOCC [     3,    0,    1,    1 ]

  @DF-RHF Final Energy:  -100.01946103049021

   => Energetics <=

    Nuclear Repulsion Energy =              5.2033418746451421
    One-Electron Energy =                -150.7092939670273211
    Two-Electron Energy =                  45.4864910618919822
    Total Energy =                       -100.0194610304902056

Computation Completed


Properties will be evaluated at   0.000000,   0.000000,   0.000000 [a0]

Properties computed using the SCF density matrix

  Nuclear Dipole Moment: [e a0]
     X:     0.0000      Y:     0.0000      Z:     0.8583

  Electronic Dipole Moment: [e a0]
     X:     0.0000      Y:     0.0000      Z:    -0.0925

  Dipole Moment: [e a0]
     X:     0.0000      Y:     0.0000      Z:     0.7658     Total:     0.7658

  Dipole Moment: [D]
     X:     0.0000      Y:     0.0000      Z:     1.9465     Total:     1.9465


*** tstop() called on CHE-FEVANGE-01I (2) at Thu Jul 30 10:27:01 2020
Module time:
	user time   =       0.85 seconds =       0.01 minutes
	system time =       0.01 seconds =       0.00 minutes
	total time  =          1 seconds =       0.02 minutes
Total time:
	user time   =       8.35 seconds =       0.14 minutes
	system time =       0.53 seconds =       0.01 minutes
	total time  =          8 seconds =       0.13 minutes
 MINTS: Wrapper to libmints.
   by Justin Turney

   Calculation information:
      Number of threads:                 1
      Number of atoms:                   2
      Number of AO shells:               9
      Number of SO shells:               9
      Number of primitives:             27
      Number of atomic orbitals:        20
      Number of basis functions:        19

      Number of irreps:                  4
      Integral cutoff                 1.00e-12
      Number of functions per irrep: [  10    1    4    4 ]

 OEINTS: Overlap, kinetic, potential, dipole, and quadrupole integrals
         stored in file 35.

      Computing two-electron integrals...done
      Computed 4125 non-zero two-electron integrals.
        Stored in file 33.

 MINTS: Wrapper to libmints.
   by Justin Turney

   Calculation information:
      Number of threads:                 1
      Number of atoms:                   2
      Number of AO shells:               9
      Number of SO shells:               9
      Number of primitives:             27
      Number of atomic orbitals:        20
      Number of basis functions:        19

      Number of irreps:                  4
      Integral cutoff                 1.00e-12
      Number of functions per irrep: [  10    1    4    4 ]

 OEINTS: Overlap, kinetic, potential, dipole, and quadrupole integrals
         stored in file 35.

      Computing two-electron integrals...done
      Computed 4125 non-zero two-electron integrals.
        Stored in file 33.


         ---------------------------------------------------------
                Multi-Configurational Self-Consistent Field
                            (a 'D E T C I' module)

                 Daniel G. A. Smith, C. David Sherrill, and
                              Matt L. Leininger
         ---------------------------------------------------------


   ==> Parameters <==

    EX LEVEL       =        2      H0 BLOCKSIZE  =     1000
    VAL EX LEVEL   =        0      H0 GUESS SIZE =     1000
    H0COUPLINGSIZE =        0      H0 COUPLING   =       NO
    MAXITER        =       12      NUM PRINT     =       20
    NUM ROOTS      =        1      ICORE         =        1
    PRINT LVL      =        1      FCI           =      YES
    R CONV         = 1.00e-07      MIXED         =      YES
    E CONV         = 1.00e-12      MIXED4        =      YES
    R4S            =       NO      REPL OTF      =       NO
    DIAG METHOD    =      SEM      FOLLOW ROOT   =        0
    PRECONDITIONER = DAVIDSON      UPDATE        = DAVIDSON
    S              =   0.0000      Ms0           =      YES
    GUESS VECTOR   =  H0BLOCK      OPENTYPE      =     NONE
    COLLAPSE SIZE  =        1      HD AVG        = EVANGELISTI
    MAX NUM VECS   =       13      REF SYM       =     AUTO
    IOPEN        =       NO

    EX ALLOW       =  1  1 
    STATE AVERAGE  =  0(1.00) 

   ==> CI Orbital and Space information <==

   ------------------------------------------------------
               Space    Total    A1    A2    B1    B2
   ------------------------------------------------------
                 Nso       19    10     1     4     4
                 Nmo       19    10     1     4     4
               Ndocc        5     3     0     1     1
               Nsocc        0     0     0     0     0
   ------------------------------------------------------
                        MCSCF Spaces
   ------------------------------------------------------
         Frozen DOCC        0     0     0     0     0
     Restricted DOCC        4     2     0     1     1
              Active        2     2     0     0     0
     Restricted UOCC       13     6     1     3     3
         Frozen UOCC        0     0     0     0     0
   ------------------------------------------------------

   ==> Setting up CI strings <==

    There are 2 alpha and 2 beta strings
    The CI space requires 4 (4.00E+00) determinants and 1 blocks

   ==> Setting up MCSCF integrals <==

  Using in-core PK algorithm.
   Calculation information:
      Number of atoms:                   2
      Number of AO shells:               9
      Number of primitives:             27
      Number of atomic orbitals:        20
      Number of basis functions:        19

      Integral cutoff                 1.00e-12
      Number of threads:                 1

  Performing in-core PK
  Using 36290 doubles for integral storage.
  We computed 1035 shell quartets total.
  Whereas there are 1035 unique shell quartets.

  ==> DiskJK: Disk-Based J/K Matrices <==

    J tasked:                  Yes
    K tasked:                  Yes
    wK tasked:                  No
    Memory [MiB]:              400
    Schwarz Cutoff:          1E-12

    OpenMP threads:              1


   ==> Starting MCSCF iterations <==

        Iter         Total Energy       Delta E   Orb RMS    CI RMS  NCI NORB
   @MCSCF  1:   -100.020410729516   -9.4970e-04  1.64e-03  8.21e-14    1    1  Initial CI
      Warning! Maxstep = 0.93, scaling to 0.50
   @MCSCF  2:   -100.034243755409   -1.3833e-02  1.31e-02  1.17e-14    3    1  TS
   @MCSCF  3:   -100.041811390251   -7.5676e-03  6.44e-03  1.66e-14    2    1  TS
   @MCSCF  4:   -100.042699717240   -8.8833e-04  1.95e-03  2.01e-14    2    1  TS, DIIS
   @MCSCF  5:   -100.042859550666   -1.5983e-04  7.93e-04  2.23e-14    2    1  TS, DIIS
   @MCSCF  6:   -100.042917570147   -5.8019e-05  5.55e-04  2.28e-14    2    1  TS, DIIS
   @MCSCF  7:   -100.042928997888   -1.1428e-05  2.99e-04  2.04e-14    2    1  TS, DIIS
[...]
    N: number of roots
    ms: spin z component
    Total number of roots:   1
    --------------------------


  ==> String Lists <==

  Number of alpha electrons     = 1
  Number of beta electrons      = 1
  Number of alpha strings       = 2
  Number of beta strings        = 2
  Timing for strings        =      0.000 s
  Timing for NN strings     =      0.000 s
  Timing for VO strings     =      0.000 s
  Timing for OO strings     =      0.000 s
  Timing for VVOO strings   =      0.000 s
  Timing for VOVO strings   =      0.000 s
  Timing for 1-hole strings =      0.000 s
  Timing for 2-hole strings =      0.000 s
  Timing for 3-hole strings =      0.000 s
  Total timing              =      0.000 s

  ==> FCI Solver <==

    Number of determinants                           4
    Symmetry                                         0
    Multiplicity                                     1
    Number of roots                                  1
    Target root                                      0
    Trial vectors per root                          10

  Allocating memory for the Hamiltonian algorithm. Size: 2 x 2 x 2.   Memory: 0.000000 GB

  ==> FCI Initial Guess <==

  ---------------------------------------------
    Root            Energy     <S^2>   Spin
  ---------------------------------------------
      0     -100.059877806858  0.000  singlet
      1      -99.163798169197  2.000  triplet
      2      -98.702226496117  0.000  singlet
      3      -97.719978192762  0.000  singlet
  ---------------------------------------------
  Timing for initial guess  =      0.000 s

  Projecting out root 1

  ==> Diagonalizing Hamiltonian <==

  Energy   convergence: 1.00e-12
  Residual convergence: 1.00e-06
  -----------------------------------------------------
    Iter.      Avg. Energy       Delta_E     Res. Norm
  -----------------------------------------------------
      1     -100.042929969386  -1.000e+02  +4.013e-14
      2     -100.042929969386  +0.000e+00  +4.013e-14
  -----------------------------------------------------
  The Davidson-Liu algorithm converged in 3 iterations.

  ==> Root No. 0 <==

    20      0.99486539
    02     -0.10102407

    Total Energy:      -100.042929969385568

  ==> Energy Summary <==

    Multi.(2ms)  Irrep.  No.               Energy
    ---------------------------------------------
       1  (  0)    A1     0     -100.042929969386
    ---------------------------------------------

  ==> Computing RDMs for Root No. 0 <==

    Timing for 1-RDM: 0.000 s
    Timing for 2-RDM: 0.000 s
    Timing for 3-RDM: 0.000 s

  ==> NATURAL ORBITALS <==

        1A1     1.979581      2A1     0.020419  


       -----------------------------------------------------------------
                            Semi-Canonical Orbitals
         Chenyang Li, Jeffrey B. Schriber and Francesco A. Evangelista
       -----------------------------------------------------------------

  Took 0.000251 s to build Fock matrix

  ==> Checking Fock Matrix Diagonal Blocks <==

    Off-Diag. Elements       Max           2-Norm
    ------------------------------------------------
    Fa actv              0.0000000000   0.0000000000
    Fb actv              0.0000000000   0.0000000000
    ------------------------------------------------
    Fa core              0.0000000000   0.0000000000
    Fb core              0.0000000000   0.0000000000
    ------------------------------------------------
    Fa virt              0.0000000000   0.0000000000
    Fb virt              0.0000000000   0.0000000000
    ------------------------------------------------
  Orbitals are already semicanonicalized.

  ==> Multireference Driven Similarity Renormalization Group <==

    Reading DSRG options ............................ Done
    Setting ambit MO space .......................... Done
    Preparing tensors for density cumulants ......... Done
    Building Fock matrix ............................ Done

              ----------------------------------------------------
                    MR-DSRG Second-Order Perturbation Theory
                Chenyang Li, Kevin Hannon, Francesco Evangelista
              ----------------------------------------------------

    References:
      u-DSRG-MRPT2:    J. Chem. Theory Comput. 2015, 11, 2097.
      (pr-)DSRG-MRPT2: J. Chem. Phys. 2017, 146, 124132.

  ==> Calculation Information <==

    ntamp                                                 15
    flow parameter                                 5.000e-01
    taylor expansion threshold                     1.000e-03
    intruder_tamp                                  1.000e-01
    int_type                                    CONVENTIONAL
    source operator                                 STANDARD
    reference relaxation                                NONE
    state_type                                STATE-SPECIFIC
    form Hbar3                                         FALSE

  ==> Checking Semicanonical Orbitals <==

    Abs. max of Fock core, active, virtual blocks (Fij, i != j)
                  core          active         virtual
    --------------------------------------------------
    Fα    0.0000000000    0.0000000000    0.0000000000
    Fβ    0.0000000000    0.0000000000    0.0000000000
    --------------------------------------------------

    1-Norm of Fock core, active, virtual blocks (Fij, i != j)
                  core          active         virtual
    --------------------------------------------------
    Fα    0.0000000000    0.0000000000    0.0000000000
    Fβ    0.0000000000    0.0000000000    0.0000000000
    --------------------------------------------------

    Orbitals are semi-canonicalized.

  ==> Computing DSRG-MRPT2 ... <==

    Computing T2 amplitudes                  ...  Done. Timing        0.003227 s
    Computing T1 amplitudes                  ...  Done. Timing        0.049086 s
    Renormalizing two-electron integrals     ...  Done. Timing        0.002385 s
    Renormalizing Fock matrix elements       ...  Done. Timing        0.319988 s
    Computing <[F, T1]>                      ...  Done. Timing        0.006336 s
    Computing <[F, T2]>                      ...  Done. Timing        0.028271 s
    Computing <[V, T1]>                      ...  Done. Timing        0.016757 s
    Computing <[V, T2]> (C_2)^4              ...  Done. Timing        0.308467 s
    Computing <[V, T2]> C_4 (C_2)^2 HH       ...  Done. Timing        0.026363 s
    Computing <[V, T2]> C_4 (C_2)^2 PP       ...  Done. Timing        0.020989 s
    Computing <[V, T2]> C_4 (C_2)^2 PH       ...  Done. Timing        0.061493 s
    Computing <[V, T2]> C_6 C_2              ...  Done. Timing        0.050041 s

  ==> Excitation Amplitudes Summary <==

    Active Indices:    1    2 
    Largest T1 amplitudes for spin case A:
       i       a                  i       a                  i       a               
    --------------------------------------------------------------------------------
    [  2       6    ] 0.198741 [  2       5    ] 0.101919 [  2       8    ] 0.082210 
    [  0       1    ]-0.081384 [  2       3    ]-0.060121 [  2       4    ]-0.049349 
    [  1       4    ] 0.004620 [  1       6    ]-0.003363 [  1       5    ]-0.002599 
    [  0       2    ]-0.000854 [  1       8    ]-0.000133 [  1       3    ] 0.000124 
    [ 10      11    ]-0.000074 [ 14      15    ]-0.000074 [  0       5    ]-0.000065 
    --------------------------------------------------------------------------------
    Norm of T1A vector: (nonzero elements: 23)                    0.263357797537058.
    --------------------------------------------------------------------------------
    Largest T1 amplitudes for spin case B:
       _       _                  _       _                  _       _               
       i       a                  i       a                  i       a               
    --------------------------------------------------------------------------------
    [  2       6    ] 0.198741 [  2       5    ] 0.101919 [  2       8    ] 0.082210 
    [  0       1    ]-0.081384 [  2       3    ]-0.060121 [  2       4    ]-0.049349 
    [  1       4    ] 0.004620 [  1       6    ]-0.003363 [  1       5    ]-0.002599 
    [  0       2    ]-0.000854 [  1       8    ]-0.000133 [  1       3    ] 0.000124 
    [ 10      11    ]-0.000074 [ 14      15    ]-0.000074 [  0       5    ]-0.000065 
    --------------------------------------------------------------------------------
    Norm of T1B vector: (nonzero elements: 23)                    0.263357797537058.
    --------------------------------------------------------------------------------
    Largest T2 amplitudes for spin case AA:
       i   j   a   b              i   j   a   b              i   j   a   b           
    --------------------------------------------------------------------------------
    [  1  10   1  11]-0.063089 [  1  14   1  15]-0.063089 [  2  14   2  15]-0.053671 
    [  2  10   2  11]-0.053671 [  2  10   2  12]-0.041382 [  2  14   2  16]-0.041382 
    [  1   2   2   6]-0.034843 [  0   1   1   4]-0.032568 [  1  10   1  12]-0.032384 
    [  1  14   1  16]-0.032384 [  1  14   2  15] 0.031173 [  1  10   2  11] 0.031173 
    [  1   2   1   6] 0.029564 [ 10  14  11  15]-0.027073 [  1   2   1   5] 0.026413 
    --------------------------------------------------------------------------------
    Norm of T2AA vector: (nonzero elements: 1008)                 0.387241383426045.
    --------------------------------------------------------------------------------
    Largest T2 amplitudes for spin case AB:
           _       _                  _       _                  _       _           
       i   j   a   b              i   j   a   b              i   j   a   b           
    --------------------------------------------------------------------------------
    [  1  10   1  11]-0.061496 [  1  14   1  15]-0.061496 [  2  14   2  15]-0.059421 
    [  2  10   2  11]-0.059421 [  1   1   1   4] 0.056456 [  2  10   2  12]-0.048678 
    [  2  14   2  16]-0.048678 [  0   0   1   1]-0.045510 [  1  10   1  12]-0.045363 
    [  1  14   1  16]-0.045363 [  1   2   1   6] 0.045114 [  2   2   1   4]-0.040110 
    [ 14  14  15  15]-0.039509 [ 10  10  11  11]-0.039509 [  1   2   2   4] 0.039479 
    --------------------------------------------------------------------------------
    Norm of T2AB vector: (nonzero elements: 1487)                 0.399623845974117.
    --------------------------------------------------------------------------------
    Largest T2 amplitudes for spin case BB:
       _   _   _   _              _   _   _   _              _   _   _   _           
       i   j   a   b              i   j   a   b              i   j   a   b           
    --------------------------------------------------------------------------------
    [  1  10   1  11]-0.063089 [  1  14   1  15]-0.063089 [  2  14   2  15]-0.053671 
    [  2  10   2  11]-0.053671 [  2  10   2  12]-0.041382 [  2  14   2  16]-0.041382 
    [  1   2   2   6]-0.034843 [  0   1   1   4]-0.032568 [  1  10   1  12]-0.032384 
    [  1  14   1  16]-0.032384 [  1  14   2  15] 0.031173 [  1  10   2  11] 0.031173 
    [  1   2   1   6] 0.029564 [ 10  14  11  15]-0.027073 [  1   2   1   5] 0.026413 
    --------------------------------------------------------------------------------
    Norm of T2BB vector: (nonzero elements: 1008)                 0.387241383426045.
    --------------------------------------------------------------------------------

  ==> Possible Intruders <==

    T1 amplitudes larger than 0.1000 for spin case A:
        Amplitude         Value                  Denominator              
    ----------------------------------------------------------------------
    [  2       6    ]    0.19874112 (  0.803907 -   2.380991 =  -1.577084)
    [  2       5    ]    0.10191894 (  0.803907 -   2.104741 =  -1.300834)
    ----------------------------------------------------------------------
    T1 amplitudes larger than 0.1000 for spin case B:
        Amplitude         Value                  Denominator              
    ----------------------------------------------------------------------
    [  2       6    ]    0.19874112 (  0.803907 -   2.380991 =  -1.577084)
    [  2       5    ]    0.10191894 (  0.803907 -   2.104741 =  -1.300834)
    ----------------------------------------------------------------------
    T2 amplitudes larger than 0.1000 for spin case AA: NULL
    T2 amplitudes larger than 0.1000 for spin case AB: NULL
    T2 amplitudes larger than 0.1000 for spin case BB: NULL

  ==> DSRG-MRPT2 Energy Summary <==

    E0 (reference)                 =   -100.042929969385554
    <[F, T1]>                      =     -0.004279029247370
    <[F, T2]>                      =      0.004395567428965
    <[V, T1]>                      =      0.003704779944577
    <[V, T2]> (C_2)^4              =     -0.191702218182862
    <[V, T2]> C_4 (C_2)^2 HH       =      0.000781609135175
    <[V, T2]> C_4 (C_2)^2 PP       =      0.003372505464750
    <[V, T2]> C_4 (C_2)^2 PH       =      0.009578437666259
    <[V, T2]> C_6 C_2              =     -0.000291006767978
    <[V, T2]>                      =     -0.178260672684655
    DSRG-MRPT2 correlation energy  =     -0.174439354558483
    DSRG-MRPT2 total energy        =   -100.217369323944041
    max(T1)                        =      0.198741124015067
    max(T2)                        =      0.063088629705091
    ||T1||                         =      0.372444169033616
    ||T2||                         =      0.968869780290424

  Energy took      0.907 s


  ==> Total Timings (s) for Computing Commutators <==

             [H1, T1]    [H1, T2]    [H2, T1]    [H2, T2]
    -----------------------------------------------------
    -> C0       0.006       0.028       0.017       0.468
    -> C1       0.000       0.000       0.000       0.000
    -> C2                   0.000       0.000       0.000
    -----------------------------------------------------


  Time to prepare integrals:        0.442 seconds
  Time to run job          :        0.965 seconds
  Total                    :        0.965 seconds
         ----------------------------------------------------------
                                   FINDIF
                     R. A. King and Jonathon Misiewicz
         ---------------------------------------------------------

  Computing gradient from energies.
    Using 3-point formula.
    Energy without displacement: -100.2173774849
    Check energies below for precision!
    Forces are for mass-weighted, symmetry-adapted cartesians (in au).

     Coord      Energy(-1)        Energy(+1)            Force
        0   -100.2173693239   -100.2173693239     -0.0000000000


-------------------------------------------------------------
  ## New Matrix (Symmetry 0) ##
  Irrep: 1 Size: 2 x 3

                 1                   2                   3

    1     0.00000000000000     0.00000000000000    -0.00000000000556
    2     0.00000000000000     0.00000000000000     0.00000000000556




			-----------------------------------------
			 OPTKING 2.0: for geometry optimizations 
			  - R.A. King,  Bethel University        
			-----------------------------------------

	Previous internal coordinate definitions found.
	---Fragment 1 Geometry and Gradient---
	 F           0.0000000000        0.0000000000       -0.0873628631
	 H           0.0000000000        0.0000000000        1.6468680990
	             0.0000000000        0.0000000000       -0.0000000000
	             0.0000000000        0.0000000000        0.0000000000

	---Fragment 1 Intrafragment Coordinates---
	 - Coordinate -           - BOHR/RAD -       - ANG/DEG -
	 R(1,2)           =         1.734231	       0.917715

	Current energy   :      -100.2173774849

	Energy change for the previous step:
		Projected    :        -0.0000000000
		Actual       :         0.0000000000

	Performing BFGS update.
	Previous computed or guess Hessian on step 1.
	Denominators (dg)(dq) or (dq)(dq) are very small.
	 Skipping Hessian update for step 3.
	Denominators (dg)(dq) or (dq)(dq) are very small.
	 Skipping Hessian update for step 2.
	Steps to be used in Hessian update: 1
	Taking RFO optimization step.
	Going to follow RFO solution 1.
	Using RFO vector 1.
	Norm of target step-size    0.00000
	Projected energy change by RFO approximation:        -0.0000000000

	Back-transformation to cartesian coordinates...
	Successfully converged to displaced geometry.

	--- Internal Coordinate Step in ANG or DEG, aJ/ANG or AJ/DEG ---
	 ---------------------------------------------------------------------------
	   Coordinate                Previous        Force       Change         New 
	   ----------                --------       ------       ------       ------
	    1 R(1,2)          =      0.917715    -0.000000    -0.000000     0.917715
	 ---------------------------------------------------------------------------
	Successfully symmetrized geometry.

  ==> Convergence Check <==

  Measures of convergence in internal coordinates in au.
  Criteria marked as inactive (o), active & met (*), and active & unmet ( ).
  ---------------------------------------------------------------------------------------------
   Step     Total Energy     Delta E     MAX Force     RMS Force      MAX Disp      RMS Disp   
  ---------------------------------------------------------------------------------------------
    Convergence Criteria    1.00e-10 *    2.00e-08 *    1.00e-08 *    2.00e-06 *    1.00e-06 *
  ---------------------------------------------------------------------------------------------
      4    -100.21737748    6.18e-12 *    5.56e-12 *    5.56e-12 *    8.91e-12 *    8.91e-12 *  ~
  ---------------------------------------------------------------------------------------------


  **** Optimization is complete! (in 4 steps) ****

  ==> Optimization Summary <==

  Measures of convergence in internal coordinates in au.
  --------------------------------------------------------------------------------------------------------------- ~
   Step         Total Energy             Delta E       MAX Force       RMS Force        MAX Disp        RMS Disp  ~
  --------------------------------------------------------------------------------------------------------------- ~
      1    -100.217377388884   -100.217377388884      0.00033558      0.00033558      0.00051168      0.00051168  ~
      2    -100.217377484442     -0.000000095558      0.00001621      0.00001621      0.00002597      0.00002597  ~
      3    -100.217377484940     -0.000000000498      0.00000002      0.00000002      0.00000003      0.00000003  ~
      4    -100.217377484933      0.000000000006      0.00000000      0.00000000      0.00000000      0.00000000  ~
  --------------------------------------------------------------------------------------------------------------- ~

	Writing optimization data to binary file.
	Final energy is   -100.2173774849334
	Final (previous) structure:
	Cartesian Geometry (in Angstrom)
	    F     0.0000000000   0.0000000000  -0.0462304360
	    H     0.0000000000   0.0000000000   0.8714850636
	Saving final (previous) structure.
			--------------------------
			 OPTKING Finished Execution 
			--------------------------

    Final optimized geometry and variables:
    Molecular point group: c2v
    Full point group: C_inf_v

    Geometry (in Angstrom), charge = 0, multiplicity = 1:

    F       
    H             1           R

    R         =    0.9177155032

	Removing binary optimization data file.
	Cleaning optimization helper files.
    DSRG-MRPT2 energy at Re...............................................................PASSED
    Optimized bond length.................................................................PASSED

    Psi4 stopped on: Thursday, 30 July 2020 10:27AM
    Psi4 wall time for execution: 0:00:45.93

*** Psi4 exiting successfully. Buy a developer a beer!
