
    -----------------------------------------------------------------------
          Psi4: An Open-Source Ab Initio Electronic Structure Package
                               Psi4 undefined 

                         Git: Rev {master} 3c26e8e 


    R. M. Parrish, L. A. Burns, D. G. A. Smith, A. C. Simmonett,
    A. E. DePrince III, E. G. Hohenstein, U. Bozkaya, A. Yu. Sokolov,
    R. Di Remigio, R. M. Richard, J. F. Gonthier, A. M. James,
    H. R. McAlexander, A. Kumar, M. Saitow, X. Wang, B. P. Pritchard,
    P. Verma, H. F. Schaefer III, K. Patkowski, R. A. King, E. F. Valeev,
    F. A. Evangelista, J. M. Turney, T. D. Crawford, and C. D. Sherrill,
    J. Chem. Theory Comput. 13(7) pp 3185--3197 (2017).
    (doi: 10.1021/acs.jctc.7b00174)


                         Additional Contributions by
    P. Kraus, H. Kruse, M. H. Lechner, M. C. Schieber, and R. A. Shaw

    -----------------------------------------------------------------------


    Psi4 started on: Thursday, 25 October 2018 03:39PM

    Process ID: 91883
    Host:       jeffschriber
    PSIDATADIR: /Users/jeffschriber/src/psi4-debug-install/share/psi4
    Memory:     500.0 MiB
    Threads:    1
    
  ==> Input File <==

--------------------------------------------------------------------------
#! Generated using commit GITCOMMIT
#! Perform a DF-DSRG-MRPT2 on N2
import forte

refrhf     = -108.9537962408121530 
refdsrgpt2_jk_rd = -109.251898130391154

memory 500 mb

molecule N2{
  0 1
  N
  N  1 R
  R = 1.1
}

set globals{
   basis                   cc-pvdz
   df_basis_mp2            cc-pvdz-ri
   df_basis_scf            cc-pvdz-jkfit
   reference               rhf
   scf_type                pk
   d_convergence           12
   e_convergence           15
}

set forte {
   restricted_docc         [2,0,0,0,0,2,0,0]
   active                  [1,0,1,1,0,1,1,1]
   root_sym                0
   nroot                   1
   dsrg_s                  1.0
   semi_canonical          true
   int_type                df
   job_type                three-dsrg-mrpt2
   NTRIAL_PER_ROOT         100
   cas_type                CAS
}

Escf, wfn = energy('scf', return_wfn=True)
compare_values(refrhf,Escf,10,"SCF energy")

energy('forte', ref_wfn=wfn)
compare_values(refdsrgpt2_jk_rd,get_variable("CURRENT ENERGY"),10,"DSRG-MRPT2 energy")
--------------------------------------------------------------------------

  Memory set to 476.837 MiB by Python driver.

*** tstart() called on jeffschriber
*** at Thu Oct 25 15:39:13 2018

   => Loading Basis Set <=

    Name: CC-PVDZ
    Role: ORBITAL
    Keyword: BASIS
    atoms 1-2 entry N          line   168 file /Users/jeffschriber/src/psi4-debug-install/share/psi4/basis/cc-pvdz.gbs 


         ---------------------------------------------------------
                                   SCF
            by Justin Turney, Rob Parrish, Andy Simmonett
                             and Daniel Smith
                              RHF Reference
                        1 Threads,    476 MiB Core
         ---------------------------------------------------------

  ==> Geometry <==

    Molecular point group: d2h
    Full point group: D_inf_h

    Geometry (in Angstrom), charge = 0, multiplicity = 1:

       Center              X                  Y                   Z               Mass       
    ------------   -----------------  -----------------  -----------------  -----------------
         N            0.000000000000     0.000000000000    -0.550000000000    14.003074004780
         N            0.000000000000     0.000000000000     0.550000000000    14.003074004780

  Running in d2h symmetry.

  Rotational constants: A = ************  B =      1.98984  C =      1.98984 [cm^-1]
  Rotational constants: A = ************  B =  59653.84489  C =  59653.84489 [MHz]
  Nuclear repulsion =   23.572439384390908

  Charge       = 0
  Multiplicity = 1
  Electrons    = 14
  Nalpha       = 7
  Nbeta        = 7

  ==> Algorithm <==

  SCF Algorithm Type is PK.
  DIIS enabled.
  MOM disabled.
  Fractional occupation disabled.
  Guess Type is SAD.
  Energy threshold   = 1.00e-15
  Density threshold  = 1.00e-12
  Integral threshold = 0.00e+00

  ==> Primary Basis <==

  Basis Set: CC-PVDZ
    Blend: CC-PVDZ
    Number of shells: 12
    Number of basis function: 28
    Number of Cartesian functions: 30
    Spherical Harmonics?: true
    Max angular momentum: 2

  ==> Pre-Iterations <==

   -------------------------------------------------------
    Irrep   Nso     Nmo     Nalpha   Nbeta   Ndocc  Nsocc
   -------------------------------------------------------
     Ag         7       7       0       0       0       0
     B1g        1       1       0       0       0       0
     B2g        3       3       0       0       0       0
     B3g        3       3       0       0       0       0
     Au         1       1       0       0       0       0
     B1u        7       7       0       0       0       0
     B2u        3       3       0       0       0       0
     B3u        3       3       0       0       0       0
   -------------------------------------------------------
    Total      28      28       7       7       7       0
   -------------------------------------------------------

  ==> Integral Setup <==

  Using in-core PK algorithm.
   Calculation information:
      Number of atoms:                   2
      Number of AO shells:              12
      Number of primitives:             44
      Number of atomic orbitals:        30
      Number of basis functions:        28

      Integral cutoff                 1.00e-12
      Number of threads:                 1

  Performing in-core PK
  Using 165242 doubles for integral storage.
  We computed 3081 shell quartets total.
  Whereas there are 3081 unique shell quartets.

  ==> DiskJK: Disk-Based J/K Matrices <==

    J tasked:                  Yes
    K tasked:                  Yes
    wK tasked:                  No
    Memory [MiB]:              357
    Schwarz Cutoff:          1E-12

    OpenMP threads:              1

  Minimum eigenvalue in the overlap matrix is 6.1906035204E-03.
  Using Symmetric Orthogonalization.

  SCF Guess: Superposition of Atomic Densities via on-the-fly atomic UHF.

  ==> Iterations <==

                        Total Energy        Delta E     RMS |[F,P]|

   @RHF iter   0:  -109.06317264869465   -1.09063e+02   1.99199e-01 
   @RHF iter   1:  -108.94040835858532    1.22764e-01   1.40178e-02 
   @RHF iter   2:  -108.95298248180458   -1.25741e-02   3.22382e-03 DIIS
   @RHF iter   3:  -108.95373807758779   -7.55596e-04   7.85290e-04 DIIS
   @RHF iter   4:  -108.95379597784657   -5.79003e-05   5.65254e-05 DIIS
   @RHF iter   5:  -108.95379623483984   -2.56993e-07   7.43723e-06 DIIS
   @RHF iter   6:  -108.95379624065107   -5.81123e-09   1.11713e-06 DIIS
   @RHF iter   7:  -108.95379624081110   -1.60028e-10   1.03468e-07 DIIS
   @RHF iter   8:  -108.95379624081212   -1.02318e-12   5.48865e-09 DIIS
   @RHF iter   9:  -108.95379624081212    0.00000e+00   5.98923e-10 DIIS
   @RHF iter  10:  -108.95379624081220   -7.10543e-14   6.71875e-11 DIIS
   @RHF iter  11:  -108.95379624081212    7.10543e-14   2.98811e-12 DIIS
   @RHF iter  12:  -108.95379624081220   -7.10543e-14   2.34851e-13 DIIS
   @RHF iter  13:  -108.95379624081211    8.52651e-14   2.56677e-14 DIIS
   @RHF iter  14:  -108.95379624081220   -8.52651e-14   6.07455e-15 DIIS
   @RHF iter  15:  -108.95379624081215    4.26326e-14   4.10056e-15 DIIS
   @RHF iter  16:  -108.95379624081215    0.00000e+00   3.70714e-15 DIIS
  Energy converged.


  ==> Post-Iterations <==

    Orbital Energies [Eh]
    ---------------------

    Doubly Occupied:                                                      

       1Ag   -15.687167     1B1u  -15.683810     2Ag    -1.469497  
       2B1u   -0.774851     3Ag    -0.626026     1B3u   -0.607175  
       1B2u   -0.607175  

    Virtual:                                                              

       1B2g    0.174428     1B3g    0.174428     3B1u    0.593893  
       4Ag     0.820946     2B3u    0.872872     2B2u    0.872872  
       5Ag     0.991969     2B2g    1.050510     2B3g    1.050510  
       4B1u    1.140849     5B1u    1.640840     1B1g    1.758149  
       6Ag     1.758149     3B2u    1.879691     3B3u    1.879691  
       1Au     2.297394     6B1u    2.297394     7Ag     2.871857  
       3B2g    2.993863     3B3g    2.993863     7B1u    3.278667  

    Final Occupation by Irrep:
             Ag   B1g   B2g   B3g    Au   B1u   B2u   B3u 
    DOCC [     3,    0,    0,    0,    0,    2,    1,    1 ]

  @RHF Final Energy:  -108.95379624081215

   => Energetics <=

    Nuclear Repulsion Energy =             23.5724393843909077
    One-Electron Energy =                -194.1410688522719283
    Two-Electron Energy =                  61.6148332270688570
    Total Energy =                       -108.9537962408121530

Computation Completed


Properties will be evaluated at   0.000000,   0.000000,   0.000000 [a0]

Properties computed using the SCF density matrix

  Nuclear Dipole Moment: [e a0]
     X:     0.0000      Y:     0.0000      Z:     0.0000

  Electronic Dipole Moment: [e a0]
     X:     0.0000      Y:     0.0000      Z:     0.0000

  Dipole Moment: [e a0]
     X:     0.0000      Y:     0.0000      Z:     0.0000     Total:     0.0000

  Dipole Moment: [D]
     X:     0.0000      Y:     0.0000      Z:     0.0000     Total:     0.0000


*** tstop() called on jeffschriber at Thu Oct 25 15:39:14 2018
Module time:
	user time   =       0.57 seconds =       0.01 minutes
	system time =       0.03 seconds =       0.00 minutes
	total time  =          1 seconds =       0.02 minutes
Total time:
	user time   =       0.57 seconds =       0.01 minutes
	system time =       0.03 seconds =       0.00 minutes
	total time  =          1 seconds =       0.02 minutes
	SCF energy........................................................PASSED
   => Loading Basis Set <=

    Name: CC-PVDZ-RI
    Role: RIFIT
    Keyword: DF_BASIS_MP2
    atoms 1-2 entry N          line   197 file /Users/jeffschriber/src/psi4-debug-install/share/psi4/basis/cc-pvdz-ri.gbs 

   => Loading Basis Set <=

    Name: STO-3G
    Role: ORBITAL
    Keyword: MINAO_BASIS
    atoms 1-2 entry N          line    71 file /Users/jeffschriber/src/psi4-debug-install/share/psi4/basis/sto-3g.gbs 


Reading options from the FORTE block
Calling plugin forte.so.



  Forte
  ----------------------------------------------------------------------------
  A suite of quantum chemistry methods for strongly correlated electrons

    git branch: master - git commit: 9480afcf

  Developed by:
    Francesco A. Evangelista, Chenyang Li, Kevin P. Hannon,
    Jeffrey B. Schriber, Tianyuan Zhang, Chenxi Cai
  ----------------------------------------------------------------------------

  Size of Determinant class: 16

  ==> MO Space Information <==

  Read options for space RESTRICTED_DOCC
  Read options for space ACTIVE
  -------------------------------------------------------------------------
                       Ag   B1g   B2g   B3g    Au   B1u   B2u   B3u   Sum
  -------------------------------------------------------------------------
    FROZEN_DOCC         0     0     0     0     0     0     0     0     0
    RESTRICTED_DOCC     2     0     0     0     0     2     0     0     4
    ACTIVE              1     0     1     1     0     1     1     1     6
    RESTRICTED_UOCC     4     1     2     2     1     4     2     2    18
    FROZEN_UOCC         0     0     0     0     0     0     0     0     0
    Total               7     1     3     3     1     7     3     3    28
  -------------------------------------------------------------------------

  ==> Integral Transformation <==

  Number of molecular orbitals:                    28
  Number of correlated molecular orbitals:         28
  Number of frozen occupied orbitals:               0
  Number of frozen unoccupied orbitals:             0
  Two-electron integral type:              Density fitting


  Computing Density fitted integrals 

  Number of auxiliary basis functions:  112
  Need 702.46 KB to store DF integrals
  DFHelper Memory: AOs need 0.001 GiB; user supplied 1.907 GiB. Using in-core AOs.


  Transforming DF Integrals            ......Done.
  Timing for density-fitting transformation:                  0.022 s.

  Timing for freezing core and virtual orbitals:              0.000 s.
  Timing for computing density-fitted integrals:              0.115 s.

              ---------------------------------------------------
                Complete Active Space Configuration Interaction
                                  Chenyang Li
              ---------------------------------------------------


  ==> Input Summary <==

    No. a electrons in active      =     3
    No. b electrons in active      =     3
    multiplicity                   =     1
    spin ms (2 * Sz)               =     0

  ==> Orbital Spaces <==

    TOTAL MO                      [    7     1     3     3     1     7     3     3 ]
    FROZEN CORE                   [    0     0     0     0     0     0     0     0 ]
    FROZEN VIRTUAL                [    0     0     0     0     0     0     0     0 ]
    CORRELATED MO                 [    7     1     3     3     1     7     3     3 ]
    CORE                          [    2     0     0     0     0     2     0     0 ]
    ACTIVE                        [    1     0     1     1     0     1     1     1 ]
    VIRTUAL                       [    4     1     2     2     1     4     2     2 ]
  Forming alpha and beta strings      ...  Done. Timing        0.000092 s
  Forming determinants                ...  Done. Timing        0.000035 s

  ==> Determinants Summary <==

    number of alpha active electrons    =     3
    number of beta active electrons     =     3
    root symmetry (zero based)          =     0
    number of determinants              =    56

  Diagonalizing Hamiltonian           ...
  Found 32 roots with 2S+1 = 1 *
  Found 18 roots with 2S+1 = 3
  Found 6 roots with 2S+1 = 5  Done. Timing        0.001617 s

  * * * * * * * * * * * * * * * * *
  *  CI Vectors & Configurations  *
  * * * * * * * * * * * * * * * * *

  ==> Root No. 0 <==

    2 0 0 0 2 2          0.9728041478
    2 0 2 0 0 2         -0.1194346404
    2 2 0 0 2 0         -0.1194346404
    2 b a 0 b a          0.0794667532
    2 a b 0 a b          0.0794667532
    2 a a 0 b b          0.0548515357
    2 b b 0 a a          0.0548515357

    Total Energy:   -109.023271814153134



  ==> Permanent Dipole Moments (Ag) <==

  Only print nonzero (> 1.0e-5) elements.

  Computing 1-, 2- and 3-cumulants ... Done. Timing        0.018824 s


       -----------------------------------------------------------------
                            Semi-Canonical Orbitals
         Chenyang Li, Jeffrey B. Schriber and Francesco A. Evangelista
       -----------------------------------------------------------------

  Took 0.008057 s to build Fock matrix

  ==> Checking Fock Matrix Diagonal Blocks <==

    Off-Diag. Elements       Max           2-Norm
    ------------------------------------------------
    Fa actv              0.0000000000   0.0000000000
    Fb actv              0.0000000000   0.0000000000
    ------------------------------------------------
    Fa core              0.0004181152   0.0006383991
    Fb core              0.0004181152   0.0006383991
    ------------------------------------------------
    Fa virt              0.0029336740   0.0075529689
    Fb virt              0.0029336740   0.0075529689
    ------------------------------------------------

  ==> Integral Transformation to Semicanonical Basis <==

 Integrals are about to be computed.
  Computing Density fitted integrals 

  Number of auxiliary basis functions:  112
  Need 702.46 KB to store DF integrals
  DFHelper Memory: AOs need 0.001 GiB; user supplied 1.907 GiB. Using in-core AOs.


  Transforming DF Integrals            ......Done.
  Timing for density-fitting transformation:                  0.021 s.

 Integrals are about to be updated.
  Timing for freezing core and virtual orbitals:              0.000 s.

  ==> Reference Transformation to Semicanonical Basis <==

    Transformed 1 cumulants.
    Transformed 2 cumulants and RDMs.
    Transformed 3 cumulants.
  SemiCanonicalize takes 0.440987 s.

  ==> Multireference Driven Similarity Renormalization Group <==

    Reading DSRG options ............................ Done
    Setting ambit MO space .......................... Done
    Preparing tensors for density cumulants ......... Done
    Building Fock matrix ............................ Done
    Checking reference energy ....................... Done

                  --------------------------------------------
                      Density Fitted / Cholesky Decomposed
                    MR-DSRG Second-Order Perturbation Theory
                      Kevin Hannon and Chenyang (York) Li
                                 1 thread (OMP)
                  --------------------------------------------

    References:
      u-DSRG-MRPT2:      J. Chem. Theory Comput. 2015, 11, 2097.
      DF/CD-DSRG-MRPT2:  J. Chem. Phys. 2016, 144, 204111.
      (pr-)DSRG-MRPT2:   J. Chem. Phys. 2017, 146, 124132.


  ==> Calculation Information <==

    Flow parameter                                 1.000e+00
    Taylor expansion threshold                     1.000e-03
    Cholesky tolerance                             1.000e-06
    Psi4 ref_type                                        RHF
    Integral type                                         DF
    Source operator                                 STANDARD
    CCVV algorithm                                 FLY_AMBIT
    CCVV source                                       NORMAL
    Reference relaxation                                NONE
    State type                                STATE-SPECIFIC

  ==> Checking Semicanonical Orbitals <==

    Abs. max of Fock core, active, virtual blocks (Fij, i != j)
                  core          active         virtual
    --------------------------------------------------
    Fα    0.0000000000    0.0000000000    0.0000000000
    Fβ    0.0000000000    0.0000000000    0.0000000000
    --------------------------------------------------

    1-Norm of Fock core, active, virtual blocks (Fij, i != j)
                  core          active         virtual
    --------------------------------------------------
    Fα    0.0000000000    0.0000000000    0.0000000000
    Fβ    0.0000000000    0.0000000000    0.0000000000
    --------------------------------------------------

    Orbitals are semi-canonicalized.

  ==> Computing DSRG-MRPT2 Energy <==

  Reference Energy = -109.023271814153134
    Computing T2                             ...... Done. Timing        0.014095 s
    Renormalizing V                          ...... Done. Timing        0.011951 s
    Computing T1                             ...... Done. Timing        0.001616 s
    Renormalizing F                          ...... Done. Timing        0.001910 s
    Computing <[F, T1]>                      ...... Done. Timing        0.000735 s
    Computing <[F, T2]>                      ...... Done. Timing        0.001551 s
    Computing <[V, T1]>                      ...... Done. Timing        0.001432 s
    Computing <[V, T2]> 4HH                  ...... Done. Timing        0.002253 s
    Computing <V, T2]> 4PP                   ...... Done. Timing        0.002456 s
    Computing [V, T2] 4PH                    ...... Done. Timing        0.009881 s
    Computing [V, T2] λ3                     ...... Done. Timing        0.016563 s
    Computing <[V, T2]> (C_2)^4 (no ccvv)    ...... Done. Timing        0.009114 s
    Computing <[V, T2]> (C_2)^4 ccvv         ...... Done. Timing        0.002458 s
  Eccvv: -0.0170494999

  ==> DSRG-MRPT2 (DF/CD) Energy Summary <==

    E0 (reference)                 =   -109.023271814153134
    <[F, T1]>                      =     -0.000030401783915
    <[F, T2]>                      =     -0.000158216677814
    <[V, T1]>                      =     -0.000192286733886
    <[V, T2]> C_4 (C_2)^2 HH       =      0.003654264748350
    <[V, T2]> C_4 (C_2)^2 PP       =      0.015965766711333
    <[V, T2]> C_4 (C_2)^2 PH       =      0.017506302059690
    <[V, T2]> C_6 C_2              =     -0.000193839251999
    <[V, T2]> (C_2)^4              =     -0.265177905309829
    <[V, T2]>                      =     -0.228245411042455
    DSRG-MRPT2 correlation energy  =     -0.228626316238070
    DSRG-MRPT2 total energy        =   -109.251898130391197
    max(T1)                        =      0.002246022933155
    ||T1||                         =      0.006990654103788

  ==> Total Timings (s) for Computing Commutators <==

             [H1, T1]    [H1, T2]    [H2, T1]    [H2, T2]
    -----------------------------------------------------
    -> C0       0.001       0.002       0.001       0.026
    -> C1       0.000       0.000       0.000       0.000
    -> C2                   0.000       0.000       0.000
    -----------------------------------------------------

 CD/DF DSRG-MRPT2 took  0.56941 s.	DSRG-MRPT2 energy.................................................PASSED

    Psi4 stopped on: Thursday, 25 October 2018 03:39PM
    Psi4 wall time for execution: 0:00:01.50

*** Psi4 exiting successfully. Buy a developer a beer!
