
    -----------------------------------------------------------------------
          Psi4: An Open-Source Ab Initio Electronic Structure Package
                               Psi4 1.2a1.dev704 

                         Git: Rev {master} a7fc050 


    R. M. Parrish, L. A. Burns, D. G. A. Smith, A. C. Simmonett,
    A. E. DePrince III, E. G. Hohenstein, U. Bozkaya, A. Yu. Sokolov,
    R. Di Remigio, R. M. Richard, J. F. Gonthier, A. M. James,
    H. R. McAlexander, A. Kumar, M. Saitow, X. Wang, B. P. Pritchard,
    P. Verma, H. F. Schaefer III, K. Patkowski, R. A. King, E. F. Valeev,
    F. A. Evangelista, J. M. Turney, T. D. Crawford, and C. D. Sherrill,
    J. Chem. Theory Comput. 13(7) pp 3185--3197 (2017).
    (doi: 10.1021/acs.jctc.7b00174)

    -----------------------------------------------------------------------


    Psi4 started on: Monday, 04 December 2017 03:00PM

    Process ID:  39316
    PSIDATADIR: /Users/york/src/psi4new/psi4/share/psi4
    Memory:     500.0 MiB
    Threads:    1
    
  ==> Input File <==

--------------------------------------------------------------------------
#! Generated using commit GITCOMMIT
#! Perform a DF-DSRG-MRPT2 on benzyne 

import forte


memory 500 mb

refmcscf   =  -225.76764656871
refdsrgpt2 =  -226.852903772295662
refdsrgpt2_jk_rd = -226.85229847492

molecule mbenzyne{
  0 3
   C   0.0000000000  -2.5451795941   0.0000000000
   C   0.0000000000   2.5451795941   0.0000000000
   C  -2.2828001669  -1.3508352528   0.0000000000
   C   2.2828001669  -1.3508352528   0.0000000000
   C   2.2828001669   1.3508352528   0.0000000000
   C  -2.2828001669   1.3508352528   0.0000000000
   H  -4.0782187459  -2.3208602146   0.0000000000
   H   4.0782187459  -2.3208602146   0.0000000000
   H   4.0782187459   2.3208602146   0.0000000000
   H  -4.0782187459   2.3208602146   0.0000000000

  units bohr
}

set globals{
   basis                   sto-3g
   df_basis_mp2            cc-pvdz-ri
   df_basis_scf            cc-pvdz-jkfit
   scf_type                pk
   d_convergence           10
   e_convergence           12
   docc                   [5, 3, 1, 1, 0, 1, 4, 4]
   socc                   [1, 0, 0, 0, 0, 0, 1, 0]
   maxiter                 500
}

set forte {
   job_type         three-dsrg-mrpt2
   int_type         df
   cas_type         aci
   sigma            0.0
   gamma            0.0
   frozen_docc      [2, 1, 0, 0, 0, 0, 2, 1]
   restricted_docc  [3, 2, 1, 1, 0, 1, 2, 3]
   active           [1, 0, 0, 0, 0, 0, 1, 0]
   dsrg_s           0.5
   root_sym         0
   nroot            1
   multiplicity     1
}

scf, wfn = energy('mcscf', return_wfn=True)
compare_values(refmcscf,scf,10,"SCF Energy")

energy('forte', ref_wfn = wfn)
compare_values(refdsrgpt2_jk_rd,get_variable("CURRENT ENERGY"),10,"DSRG-MRPT2 energy")
--------------------------------------------------------------------------

  Memory set to 476.837 MiB by Python driver.
   => Loading Basis Set <=

    Name: STO-3G
    Role: ORBITAL
    Keyword: BASIS
    atoms 1-6  entry C          line    61 file /Users/york/src/psi4new/psi4/share/psi4/basis/sto-3g.gbs 
    atoms 7-10 entry H          line    19 file /Users/york/src/psi4new/psi4/share/psi4/basis/sto-3g.gbs 


*** tstart() called on yorks-mac.wireless.emory.edu
*** at Mon Dec  4 15:00:11 2017


         ------------------------------------------
           MCSCF: a self-consistent field program
            written by Francesco A. Evangelista
         ------------------------------------------

  MOs per irrep:                  Ag  B1g  B2g  B3g  Au  B1u  B2u  B3u Total
  ----------------------------------------------------------------------------
  Total                            8    6    1    2    1    2    8    6    34
  Doubly Occupied                  5    3    1    1    0    1    4    4    19
  Active/Singly Occupied           1    0    0    0    0    0    1    0     2
  ----------------------------------------------------------------------------

  Running an SCF calculation

  Generated 595 pairs
  Distributed as [122 Ag][100 B1g][40 B2g][44 B3g][40 Au][44 B1u][105 B2u][100 B3u]
  batch   0 pq = [       0,     122] index = [               0,            7503]

  Allocated the PK matrix (7503 elements) 
  Reading the two-electron integrals to form PK ... 
  batch   0 ... done.


  =========================================================================================
         Cycle          Energy               D(Energy)            D(Density)            DIIS
  ===========================================================================================
  Setting level shift to 0.000 S
  @SCF    0     -212.591783893326    -212.591783893326       0.283940323457
  Setting level shift to 0.000 S
  @SCF    1     -223.551422907842     -10.959639014516       0.275117881171
  Setting level shift to 0.000 S
  @SCF    2     -225.634306679483      -2.082883771640       0.061051248309
  Setting level shift to 0.000 S
  @SCF    3     -225.741973038514      -0.107666359032       0.012962175269
  Setting level shift to 0.000 S
  @SCF    4     -225.762320410909      -0.020347372394       0.006354750064
  Setting level shift to 0.000 S
  @SCF    5     -225.766510671298      -0.004190260389       0.002840537282
  Setting level shift to 0.000 S
  @SCF    6     -225.767407075829      -0.000896404532       0.001383874861
  Setting level shift to 0.000 S/E
  @SCF    7     -225.767595763104      -0.000188687275       0.000620625385
  Setting level shift to 0.000 S/E
  @SCF    8     -225.767646508516      -0.000050745412       0.000258338706
  Setting level shift to 0.000 S/E
  @SCF    9     -225.767646565167      -0.000000056651       0.000009056861
  Setting level shift to 0.000 S/E
  @SCF   10     -225.767646568655      -0.000000003488       0.000002750341
  Setting level shift to 0.000 S/E
  @SCF   11     -225.767646568710      -0.000000000055       0.000000376130
  Setting level shift to 0.000 S/E
  @SCF   12     -225.767646568711      -0.000000000002       0.000000056393
  Setting level shift to 0.000 S/E
  @SCF   13     -225.767646568711      -0.000000000000       0.000000006429
  Setting level shift to 0.000 S/E
  @SCF   14     -225.767646568711       0.000000000000       0.000000000707
  Setting level shift to 0.000 S/E
  @SCF   15     -225.767646568711      -0.000000000000       0.000000000212
  Setting level shift to 0.000 S/E
  @SCF   16     -225.767646568711       0.000000000000       0.000000000026
  =========================================================================================

      * SCF total energy   =    -225.767646568711


  End of SCF
  MOs orthonormality check passed.

  Orbitals are canonicalized as:
  inactive (docc + uocc) : Fock(core)
  active   (actv)        : Fock(core)

  =========================================================================
  Eigenvalues (Eh)
  -------------------------------------------------------------------------
  Doubly occupied orbitals
      1    -11.734921 B2u      2    -11.734814  Ag      3    -11.617672 B3u
      4    -11.617560 B2u      5    -11.617549  Ag      6    -11.617546 B1g
      7     -1.660065  Ag      8     -1.504736 B2u      9     -1.492338 B3u
     10     -1.316418 B1g     11     -1.247260  Ag     12     -1.119183 B3u
     13     -1.106923  Ag     14     -1.072355 B2u     15     -1.041836 B3u
     16     -1.013115 B1u     17     -0.978385 B1g     18     -0.877276 B3g
     19     -0.784949 B2g
  Active orbitals
     20     -0.466838 B2u     21     -0.404049  Ag
  Unoccupied orbitals
     22     -0.289647 B1u     23     -0.265999  Au     24     -0.043321 B3g
     25      0.145757  Ag     26      0.176088 B3u     27      0.176684 B2u
     28      0.193079 B1g     29      0.295933  Ag     30      0.307110 B2u
     31      0.344744 B1g     32      0.369222 B3u     33      0.538856 B1g
     34      0.561388 B2u
  =========================================================================


  MCSCF Execution Completed.


*** tstop() called on yorks-mac.wireless.emory.edu at Mon Dec  4 15:00:12 2017
Module time:
	user time   =       0.26 seconds =       0.00 minutes
	system time =       0.03 seconds =       0.00 minutes
	total time  =          1 seconds =       0.02 minutes
Total time:
	user time   =       0.26 seconds =       0.00 minutes
	system time =       0.03 seconds =       0.00 minutes
	total time  =          1 seconds =       0.02 minutes
	SCF Energy........................................................PASSED
   => Loading Basis Set <=

    Name: CC-PVDZ-RI
    Role: RIFIT
    Keyword: DF_BASIS_MP2
    atoms 1-6  entry C          line   159 file /Users/york/src/psi4new/psi4/share/psi4/basis/cc-pvdz-ri.gbs 
    atoms 7-10 entry H          line    19 file /Users/york/src/psi4new/psi4/share/psi4/basis/cc-pvdz-ri.gbs 

   => Loading Basis Set <=

    Name: STO-3G
    Role: ORBITAL
    Keyword: MINAO_BASIS
    atoms 1-6  entry C          line    61 file /Users/york/src/psi4new/psi4/share/psi4/basis/sto-3g.gbs 
    atoms 7-10 entry H          line    19 file /Users/york/src/psi4new/psi4/share/psi4/basis/sto-3g.gbs 


Reading options from the FORTE block
Calling plugin forte.so.



  Forte
  ----------------------------------------------------------------------------
  A suite of quantum chemistry methods for strongly correlated electrons

    git branch: master - git commit: 1c92254a

  Developed by:
    Francesco A. Evangelista, Chenyang Li, Kevin P. Hannon,
    Jeffrey B. Schriber, Tianyuan Zhang, Chenxi Cai
  ----------------------------------------------------------------------------

  Size of Determinant class: 32

  ==> MO Space Information <==

  Read options for space FROZEN_DOCC
  Read options for space RESTRICTED_DOCC
  Read options for space ACTIVE
 Removing orbital 0
 Removing orbital 1
 Removing orbital 8
 Removing orbital 20
 Removing orbital 21
 Removing orbital 28
  -------------------------------------------------------------------------
                       Ag   B1g   B2g   B3g    Au   B1u   B2u   B3u   Sum
  -------------------------------------------------------------------------
    FROZEN_DOCC         2     1     0     0     0     0     2     1     6
    RESTRICTED_DOCC     3     2     1     1     0     1     2     3    13
    ACTIVE              1     0     0     0     0     0     1     0     2
    RESTRICTED_UOCC     2     3     0     1     1     1     3     2    13
    FROZEN_UOCC         0     0     0     0     0     0     0     0     0
    Total               8     6     1     2     1     2     8     6    34
  -------------------------------------------------------------------------

  ==> Integral Transformation <==

  Number of molecular orbitals:               34
  Number of correlated molecular orbitals:    28
  Number of frozen occupied orbitals:          6
  Number of frozen unoccupied orbitals:        0

    Molecular point group: d2h
    Full point group: D2h

    Geometry (in Bohr), charge = 0, multiplicity = 3:

       Center              X                  Y                   Z               Mass       
    ------------   -----------------  -----------------  -----------------  -----------------
           C          0.000000000000    -2.545179594100     0.000000000000    12.000000000000
           C         -0.000000000000     2.545179594100     0.000000000000    12.000000000000
           C         -2.282800166900    -1.350835252800     0.000000000000    12.000000000000
           C          2.282800166900    -1.350835252800     0.000000000000    12.000000000000
           C          2.282800166900     1.350835252800     0.000000000000    12.000000000000
           C         -2.282800166900     1.350835252800     0.000000000000    12.000000000000
           H         -4.078218745900    -2.320860214600     0.000000000000     1.007825032070
           H          4.078218745900    -2.320860214600     0.000000000000     1.007825032070
           H          4.078218745900     2.320860214600     0.000000000000     1.007825032070
           H         -4.078218745900     2.320860214600     0.000000000000     1.007825032070

  -AO BASIS SET INFORMATION:
    Name                   = STO-3G
    Blend                  = STO-3G
    Total number of shells = 22
    Number of primitives   = 66
    Number of AO           = 34
    Number of SO           = 34
    Maximum AM             = 1
    Spherical Harmonics    = TRUE

  -Contraction Scheme:
    Atom   Type   All Primitives // Shells:
   ------ ------ --------------------------
       1     C     6s 3p // 2s 1p 
       2     C     6s 3p // 2s 1p 
       3     C     6s 3p // 2s 1p 
       4     C     6s 3p // 2s 1p 
       5     C     6s 3p // 2s 1p 
       6     C     6s 3p // 2s 1p 
       7     H     3s // 1s 
       8     H     3s // 1s 
       9     H     3s // 1s 
      10     H     3s // 1s 

  ==> AO Basis Functions <==

    [ STO-3G ]
    spherical
    ****
    C   1
    S   3 1.00
                        71.61683700           0.15432897
                        13.04509600           0.53532814
                         3.53051220           0.44463454
    S   3 1.00
                         2.94124940          -0.09996723
                         0.68348310           0.39951283
                         0.22228990           0.70011547
    P   3 1.00
                         2.94124940           0.15591627
                         0.68348310           0.60768372
                         0.22228990           0.39195739
    ****
    C   3
    S   3 1.00
                        71.61683700           0.15432897
                        13.04509600           0.53532814
                         3.53051220           0.44463454
    S   3 1.00
                         2.94124940          -0.09996723
                         0.68348310           0.39951283
                         0.22228990           0.70011547
    P   3 1.00
                         2.94124940           0.15591627
                         0.68348310           0.60768372
                         0.22228990           0.39195739
    ****
    H   7
    S   3 1.00
                         3.42525091           0.15432897
                         0.62391373           0.53532814
                         0.16885540           0.44463454
    ****


  DFIntegrals overall time
 Computing Density fitted integrals 

 Number of auxiliary basis functions:  392
 Need 0.003376 GB to store DF integrals

  Computing DF Integrals               ......Done. Timing        0.031512 s  Using in-core PK algorithm.
   Calculation information:
      Number of atoms:                  10
      Number of AO shells:              22
      Number of primitives:             66
      Number of atomic orbitals:        34
      Number of basis functions:        34

      Integral cutoff                 1.00e-12
      Number of threads:                 1

  Performing in-core PK
  Using 354620 doubles for integral storage.
  We computed 29887 shell quartets total.
  Whereas there are 32131 unique shell quartets.

  Frozen-core energy           -287.156258219479 a.u.

  FrozenOneBody Operator takes  0.51699000 s
  Resorting integrals after freezing core.
 Done with resorting
 Resorting integrals takes   0.01113100s
  DFIntegrals take      0.90095200 s
  Number of active alpha electrons: 1
  Number of active beta electrons: 1
  Maximum reference space size: 1000
  Number of reference determinants: 2
  Reference generated from 2 MOs

        ---------------------------------------------------------------
                      Adaptive Configuration Interaction
          written by Jeffrey B. Schriber and Francesco A. Evangelista
        ---------------------------------------------------------------

  ==> Reference Information <==

  There are 19 frozen orbitals.
  There are 2 active orbitals.

  ==> Calculation Information <==

  -----------------------------------------------------------------
    Multiplicity                             1    
    Symmetry                                 0    
    Number of roots                          1    
    Root used for properties                 0    
    Sigma (Eh)                               0.00e+00
    Gamma (Eh^(-1))                          0.00e+00
    Convergence threshold                    1.00e-09
    Ms                                       0
    Diagonalization algorithm                SOLVER
    Determinant selection criterion          Second-order Energy
    Selection criterion                      Aimed selection
    Excited Algorithm                        ROOT_ORTHOGONALIZE
    Project out spin contaminants            True
    Enforce spin completeness of basis       True
    Enforce complete aimed selection         True
  -----------------------------------------------------------------
  Using 1 threads
  Computing wavefunction for root 0
  Using streamlined Q-space builder.

  ==> Cycle 0 <==

  Initial P space dimension: 2
  Spin-complete dimension of the P space: 2 determinants
  Time spent building a_list   0.000019 s
  Time spent building b_list   0.000005 s
  Time spent building aa_list  0.000004 s
  Time spent building bb_list  0.000003 s
  Time spent building ab_list  0.000016 s
  Time spent diagonalizing H:   0.000051 s

    P-space  CI Energy Root   0        = -226.448927337018 Eh =   0.0000 eV

  Time spent forming F space:             0.000021
 td[0] = 2 new entries
 td[0] = 0 repeat entries
  Time spent merging thread F spaces:             0.000021
  Time spent preparing PQ_space: 0.000003
  Dimension of the SD space: 0 determinants
  Time spent building the model space (default): 0.000089 s

  Time spent building sorting list: 0.000000
  Time spent sorting: 0.000003
 Time spent selecting: 0.000000
  Dimension of the P + Q space: 2 determinants
  Time spent screening the model space: 0.000040 s
  Spin-complete dimension of the PQ space: 2
  Time spent building a_list   0.000005 s
  Time spent building b_list   0.000005 s
  Time spent building aa_list  0.000002 s
  Time spent building bb_list  0.000001 s
  Time spent building ab_list  0.000005 s
  Total time spent diagonalizing H:   0.000019 s

    PQ-space CI Energy Root   0        = -226.448927337018 Eh =   0.0000 eV
    PQ-space CI Energy + EPT2 Root   0 = -226.448927337018 Eh =   0.0000 eV


  Most important contributions to root   0:
    0   0.770990 0.594425315           1 |02>
    1  -0.636847 0.405574685           0 |20>

  Spin state for root 0: S^2 = 0.000000, S = 0.000, singlet
  Cycle 0 took: 0.000834 s

  ==> Cycle 1 <==

  Initial P space dimension: 2
  Spin-complete dimension of the P space: 2 determinants
  Time spent building a_list   0.000004 s
  Time spent building b_list   0.000004 s
  Time spent building aa_list  0.000002 s
  Time spent building bb_list  0.000001 s
  Time spent building ab_list  0.000005 s
  Time spent diagonalizing H:   0.000021 s

    P-space  CI Energy Root   0        = -226.448927337018 Eh =   0.0000 eV

  Time spent forming F space:             0.000006
 td[0] = 2 new entries
 td[0] = 0 repeat entries
  Time spent merging thread F spaces:             0.000019
  Time spent preparing PQ_space: 0.000001
  Dimension of the SD space: 0 determinants
  Time spent building the model space (default): 0.000064 s

  Time spent building sorting list: 0.000000
  Time spent sorting: 0.000000
 Time spent selecting: 0.000000
  Dimension of the P + Q space: 2 determinants
  Time spent screening the model space: 0.000034 s
  Spin-complete dimension of the PQ space: 2
  Time spent building a_list   0.000004 s
  Time spent building b_list   0.000005 s
  Time spent building aa_list  0.000002 s
  Time spent building bb_list  0.000001 s
  Time spent building ab_list  0.000004 s
  Total time spent diagonalizing H:   0.000019 s

    PQ-space CI Energy Root   0        = -226.448927337018 Eh =   0.0000 eV
    PQ-space CI Energy + EPT2 Root   0 = -226.448927337018 Eh =   0.0000 eV

  ***** Calculation Converged *****
  Not performing spin projection.
  Saving root 0, ref_root is 0
  Number of old roots: 1

  ==> ACI Summary <==

  Iterations required:                         1
  Dimension of optimized determinant space:    2

  * Adaptive-CI Energy Root   0        = -226.448927337018 Eh =   0.0000 eV
  * Adaptive-CI Energy Root   0 + EPT2 = -226.448927337018 Eh =   0.0000 eV

  ==> Wavefunction Information <==

  Most important contributions to root   0:
    0   0.770990 0.594425315           1 |02>
    1  -0.636847 0.405574685           0 |20>

  Spin state for root 0: S^2 = 0.000000, S = 0.000, singlet
  Computing 3-list...     done (0.00004 s)
  Time spent building a_list   0.000006 s
  Time spent building b_list   0.000004 s
  Time spent building aa_list  0.000002 s
  Time spent building bb_list  0.000002 s
  Time spent building ab_list  0.000005 s
  1-RDM  took 0.000006 s (determinant)

  ==> NATURAL ORBITALS <==

        1B2u    1.188851      1Ag     0.811149  


  2-RDMS took 0.000015 s (determinant)
  3-RDMs took 0.000017 s (determinant)

  Adaptive-CI ran in : 0.002378 s

  Saving information for root: 0

       -----------------------------------------------------------------
                            Semi-Canonical Orbitals
         Chenyang Li, Jeffrey B. Schriber and Francesco A. Evangelista
       -----------------------------------------------------------------

  Took 0.095098 s to build Fock matrix

  ==> Checking Fock Matrix Diagonal Blocks <==

    Off-Diag. Elements       Max           2-Norm
    ------------------------------------------------
    Fa actv              0.0000000000   0.0000000000
    Fb actv              0.0000000000   0.0000000000
    ------------------------------------------------
    Fa core              0.1094625624   0.2616768318
    Fb core              0.1094625624   0.2616768318
    ------------------------------------------------
    Fa virt              0.1048377932   0.2846465521
    Fb virt              0.1048377932   0.2846465521
    ------------------------------------------------

  ==> Integral Transformation to Semicanonical Basis <==
    Molecular point group: d2h
    Full point group: D2h

    Geometry (in Bohr), charge = 0, multiplicity = 3:

       Center              X                  Y                   Z               Mass       
    ------------   -----------------  -----------------  -----------------  -----------------
           C          0.000000000000    -2.545179594100     0.000000000000    12.000000000000
           C         -0.000000000000     2.545179594100     0.000000000000    12.000000000000
           C         -2.282800166900    -1.350835252800     0.000000000000    12.000000000000
           C          2.282800166900    -1.350835252800     0.000000000000    12.000000000000
           C          2.282800166900     1.350835252800     0.000000000000    12.000000000000
           C         -2.282800166900     1.350835252800     0.000000000000    12.000000000000
           H         -4.078218745900    -2.320860214600     0.000000000000     1.007825032070
           H          4.078218745900    -2.320860214600     0.000000000000     1.007825032070
           H          4.078218745900     2.320860214600     0.000000000000     1.007825032070
           H         -4.078218745900     2.320860214600     0.000000000000     1.007825032070

  -AO BASIS SET INFORMATION:
    Name                   = STO-3G
    Blend                  = STO-3G
    Total number of shells = 22
    Number of primitives   = 66
    Number of AO           = 34
    Number of SO           = 34
    Maximum AM             = 1
    Spherical Harmonics    = TRUE

  -Contraction Scheme:
    Atom   Type   All Primitives // Shells:
   ------ ------ --------------------------
       1     C     6s 3p // 2s 1p 
       2     C     6s 3p // 2s 1p 
       3     C     6s 3p // 2s 1p 
       4     C     6s 3p // 2s 1p 
       5     C     6s 3p // 2s 1p 
       6     C     6s 3p // 2s 1p 
       7     H     3s // 1s 
       8     H     3s // 1s 
       9     H     3s // 1s 
      10     H     3s // 1s 

  ==> AO Basis Functions <==

    [ STO-3G ]
    spherical
    ****
    C   1
    S   3 1.00
                        71.61683700           0.15432897
                        13.04509600           0.53532814
                         3.53051220           0.44463454
    S   3 1.00
                         2.94124940          -0.09996723
                         0.68348310           0.39951283
                         0.22228990           0.70011547
    P   3 1.00
                         2.94124940           0.15591627
                         0.68348310           0.60768372
                         0.22228990           0.39195739
    ****
    C   3
    S   3 1.00
                        71.61683700           0.15432897
                        13.04509600           0.53532814
                         3.53051220           0.44463454
    S   3 1.00
                         2.94124940          -0.09996723
                         0.68348310           0.39951283
                         0.22228990           0.70011547
    P   3 1.00
                         2.94124940           0.15591627
                         0.68348310           0.60768372
                         0.22228990           0.39195739
    ****
    H   7
    S   3 1.00
                         3.42525091           0.15432897
                         0.62391373           0.53532814
                         0.16885540           0.44463454
    ****


 Integrals are about to be computed.
 Computing Density fitted integrals 

 Number of auxiliary basis functions:  392
 Need 0.003376 GB to store DF integrals

  Computing DF Integrals               ......Done. Timing        0.027348 s
 Integrals are about to be updated.  Using in-core PK algorithm.
   Calculation information:
      Number of atoms:                  10
      Number of AO shells:              22
      Number of primitives:             66
      Number of atomic orbitals:        34
      Number of basis functions:        34

      Integral cutoff                 1.00e-12
      Number of threads:                 1

  Performing in-core PK
  Using 354620 doubles for integral storage.
  We computed 29887 shell quartets total.
  Whereas there are 32131 unique shell quartets.

  Frozen-core energy           -287.156258219479 a.u.

  FrozenOneBody Operator takes  0.51250000 s
  Resorting integrals after freezing core.
 Done with resorting
 Resorting integrals takes   0.00972800s
  Frozen Orbitals takes     0.523 s.

  ==> Reference Transformation to Semicanonical Basis <==

    Transformed 1 cumulants.
    Transformed 2 cumulants and RDMs.
    Transformed 3 cumulants.
  SemiCanonicalize takes 2.868650 s.

  ==> Multireference Driven Similarity Renormalization Group <==

    Reading DSRG options ............................ Done
    Setting ambit MO space .......................... Done
    Preparing tensors for density cumulants ......... Done
    Building Fock matrix ............................ Done

                  --------------------------------------------
                      Density Fitted / Cholesky Decomposed
                    MR-DSRG Second-Order Perturbation Theory
                      Kevin Hannon and Chenyang (York) Li
                                    1 thread
                  --------------------------------------------

    References:
      u-DSRG-MRPT2:      J. Chem. Theory Comput. 2015, 11, 2097.
      DF/CD-DSRG-MRPT2:  J. Chem. Phys. 2016, 144, 204111.
      (pr-)DSRG-MRPT2:   J. Chem. Phys. 2017, 146, 124132.


  ==> Calculation Information <==

    Flow parameter                                 5.000e-01
    Taylor expansion threshold                     1.000e-03
    Cholesky tolerance                             1.000e-06
    Psi4 ref_type                                        RHF
    Integral type                                         DF
    Source operator                                 STANDARD
    CCVV algorithm                                 FLY_AMBIT
    CCVV source                                       NORMAL
    Reference relaxation                                NONE
    State type                                STATE-SPECIFIC

  ==> Checking Semicanonical Orbitals <==

    Abs. max of Fock core, active, virtual blocks (Fij, i != j)
                  core          active         virtual
    --------------------------------------------------
    Fα    0.0000000000    0.0000000000    0.0000000000
    Fβ    0.0000000000    0.0000000000    0.0000000000
    --------------------------------------------------

    1-Norm of Fock core, active, virtual blocks (Fij, i != j)
                  core          active         virtual
    --------------------------------------------------
    Fα    0.0000000000    0.0000000000    0.0000000000
    Fβ    0.0000000000    0.0000000000    0.0000000000
    --------------------------------------------------

    Orbitals are semi-canonicalized.

  ==> Computing DSRG-MRPT2 Energy <==

  Reference Energy = -226.448927337017750
    Computing T2                             ...... Done. Timing        0.016259 s
    Renormalizing V                          ...... Done. Timing        0.013903 s
    Computing T1                             ...... Done. Timing        0.004519 s
    Renormalizing F                          ...... Done. Timing        0.005923 s
    Computing <[F, T1]>                      ...... Done. Timing        0.002096 s
    Computing <[F, T2]>                      ...... Done. Timing        0.003681 s
    Computing <[V, T1]>                      ...... Done. Timing        0.003602 s
    Computing <[V, T2]> 4HH                  ...... Done. Timing        0.005796 s
    Computing <V, T2]> 4PP                   ...... Done. Timing        0.005506 s
    Computing [V, T2] 4PH                    ...... Done. Timing        0.022781 s
    Computing [V, T2] λ3                     ...... Done. Timing        0.013366 s
    Computing <[V, T2]> (C_2)^4 (no ccvv)    ...... Done. Timing        0.022546 s
    Computing <[V, T2]> (C_2)^4 ccvv         ...... Done. Timing        0.066925 s
  Eccvv: -0.2579288317

  ==> DSRG-MRPT2 (DF/CD) Energy Summary <==

    E0 (reference)                 =   -226.448927337017750
    <[F, T1]>                      =     -0.078777617937737
    <[F, T2]>                      =      0.000641600079352
    <[V, T1]>                      =      0.000121345153582
    <[V, T2]> C_4 (C_2)^2 HH       =      0.005673673389341
    <[V, T2]> C_4 (C_2)^2 PP       =      0.004114080453711
    <[V, T2]> C_4 (C_2)^2 PH       =      0.037342594067918
    <[V, T2]> C_6 C_2              =     -0.001057756502843
    <[V, T2]> (C_2)^4              =     -0.371429056603156
    <[V, T2]>                      =     -0.325356465195030
    DSRG-MRPT2 correlation energy  =     -0.403371137899834
    DSRG-MRPT2 total energy        =   -226.852298474917575
    max(T1)                        =      0.041978982893408
    ||T1||                         =      0.151273653337165

  ==> Total Timings (s) for Computing Commutators <==

             [H1, T1]    [H1, T2]    [H2, T1]    [H2, T2]
    -----------------------------------------------------
    -> C0       0.002       0.004       0.004       0.124
    -> C1       0.000       0.000       0.000       0.000
    -> C2                   0.000       0.000       0.000
    -----------------------------------------------------

 CD/DF DSRG-MRPT2 took  3.25667 s.	DSRG-MRPT2 energy.................................................PASSED

*** Psi4 exiting successfully. Buy a developer a beer!
