
    -----------------------------------------------------------------------
          Psi4: An Open-Source Ab Initio Electronic Structure Package
                               Psi4 1.4a2.dev543 

                         Git: Rev {bcc_frozen_virtual} bf127d9 dirty


    R. M. Parrish, L. A. Burns, D. G. A. Smith, A. C. Simmonett,
    A. E. DePrince III, E. G. Hohenstein, U. Bozkaya, A. Yu. Sokolov,
    R. Di Remigio, R. M. Richard, J. F. Gonthier, A. M. James,
    H. R. McAlexander, A. Kumar, M. Saitow, X. Wang, B. P. Pritchard,
    P. Verma, H. F. Schaefer III, K. Patkowski, R. A. King, E. F. Valeev,
    F. A. Evangelista, J. M. Turney, T. D. Crawford, and C. D. Sherrill,
    J. Chem. Theory Comput. 13(7) pp 3185--3197 (2017).
    (doi: 10.1021/acs.jctc.7b00174)


                         Additional Contributions by
    P. Kraus, H. Kruse, M. H. Lechner, M. C. Schieber, R. A. Shaw,
    A. Alenaizan, R. Galvelis, Z. L. Glick, S. Lehtola, and J. P. Misiewicz

    -----------------------------------------------------------------------


    Psi4 started on: Tuesday, 19 May 2020 10:02AM

    Process ID: 17809
    Host:       Yorks-Mac.local
    PSIDATADIR: /Users/york/src/psi4new/psi4/share/psi4
    Memory:     500.0 MiB
    Threads:    1
    
  ==> Input File <==

--------------------------------------------------------------------------
#! Generated using commit GITCOMMIT

import forte

memory 500 mb

Ecas_psi4  = -226.574527271815526
Ept2_ur    = -226.911835889672631
Ept2_pr    = -226.915446301068442

molecule pbenzyne{
  0 1
   C   0.0000000000  -2.5451795941   0.0000000000
   C   0.0000000000   2.5451795941   0.0000000000
   C  -2.2828001669  -1.3508352528   0.0000000000
   C   2.2828001669  -1.3508352528   0.0000000000
   C   2.2828001669   1.3508352528   0.0000000000
   C  -2.2828001669   1.3508352528   0.0000000000
   H  -4.0782187459  -2.3208602146   0.0000000000
   H   4.0782187459  -2.3208602146   0.0000000000
   H   4.0782187459   2.3208602146   0.0000000000
   H  -4.0782187459   2.3208602146   0.0000000000

  units bohr
  noreorient
}

set globals{
  basis                  sto-3g
  df_basis_scf           cc-pvdz-jkfit
  df_basis_mp2           cc-pvdz-jkfit
  reference              rhf
  scf_type               df
  d_convergence          8
  e_convergence          12
  mcscf_type             df
  mcscf_e_convergence    12
  mcscf_r_convergence    8
  mcscf_diis_start       8
  mcscf_max_rot          0.2
  docc                   [5,3,1,1,0,1,5,4]
# restricted_docc        [5,3,0,0,0,0,4,4]
# active                 [1,0,1,2,1,2,1,0]
  restricted_docc        [5,3,1,1,0,1,4,4]
  active                 [1,0,0,0,0,0,1,0]
}
Ecas, wfn = energy('casscf', return_wfn=True)
compare_values(Ecas_psi4, Ecas, 9, "CASSCF(2,2)/STO-3G energy (PSI4)")

set forte{
  active_space_solver    cas
  correlation_solver     sa-mrdsrg
  corr_level             pt2
  frozen_docc            [2,1,0,0,0,0,2,1]
  restricted_docc        [3,2,0,0,0,0,2,3]
  active                 [1,0,1,2,1,2,1,0]
  dsrg_s                 0.5
  relax_ref              once
  e_convergence          12
  r_convergence          8
  int_type               diskdf
}
energy('forte', ref_wfn=wfn)
Eupt2 = variable("UNRELAXED ENERGY")
Eprpt2 = variable("PARTIALLY RELAXED ENERGY")
compare_values(Ept2_ur, Eupt2, 9, "DSRG-MRPT2 unrelaxed energy")
compare_values(Ept2_pr, Eprpt2, 9, "DSRG-MRPT2 partially relaxed energy")
--------------------------------------------------------------------------

  Memory set to 476.837 MiB by Python driver.

Scratch directory: /Users/york/scratch/psi4/

*** tstart() called on Yorks-Mac.local
*** at Tue May 19 10:02:27 2020

   => Loading Basis Set <=

    Name: STO-3G
    Role: ORBITAL
    Keyword: BASIS
    atoms 1-6  entry C          line    61 file /Users/york/src/psi4new/psi4/share/psi4/basis/sto-3g.gbs 
    atoms 7-10 entry H          line    19 file /Users/york/src/psi4new/psi4/share/psi4/basis/sto-3g.gbs 


         ---------------------------------------------------------
                                   SCF
               by Justin Turney, Rob Parrish, Andy Simmonett
                          and Daniel G. A. Smith
                              RHF Reference
                        1 Threads,    476 MiB Core
         ---------------------------------------------------------

  ==> Geometry <==

    Molecular point group: d2h
    Full point group: D2h

    Geometry (in Bohr), charge = 0, multiplicity = 1:

       Center              X                  Y                   Z               Mass       
    ------------   -----------------  -----------------  -----------------  -----------------
         C            0.000000000000    -2.545179594100     0.000000000000    12.000000000000
         C           -0.000000000000     2.545179594100     0.000000000000    12.000000000000
         C           -2.282800166900    -1.350835252800     0.000000000000    12.000000000000
         C            2.282800166900    -1.350835252800     0.000000000000    12.000000000000
         C            2.282800166900     1.350835252800     0.000000000000    12.000000000000
         C           -2.282800166900     1.350835252800     0.000000000000    12.000000000000
         H           -4.078218745900    -2.320860214600     0.000000000000     1.007825032230
         H            4.078218745900    -2.320860214600     0.000000000000     1.007825032230
         H            4.078218745900     2.320860214600     0.000000000000     1.007825032230
         H           -4.078218745900     2.320860214600     0.000000000000     1.007825032230

  Running in d2h symmetry.

  Rotational constants: A =      0.22736  B =      0.18979  C =      0.10344 [cm^-1]
  Rotational constants: A =   6816.18331  B =   5689.87778  C =   3101.15628 [MHz]
  Nuclear repulsion =  186.022640325180561

  Charge       = 0
  Multiplicity = 1
  Electrons    = 40
  Nalpha       = 20
  Nbeta        = 20

  ==> Algorithm <==

  SCF Algorithm Type is DF.
  DIIS enabled.
  MOM disabled.
  Fractional occupation disabled.
  Guess Type is SAD.
  Energy threshold   = 1.00e-12
  Density threshold  = 1.00e-08
  Integral threshold = 0.00e+00

  ==> Primary Basis <==

  Basis Set: STO-3G
    Blend: STO-3G
    Number of shells: 22
    Number of basis function: 34
    Number of Cartesian functions: 34
    Spherical Harmonics?: true
    Max angular momentum: 1

   => Loading Basis Set <=

    Name: CC-PVDZ-JKFIT
    Role: JKFIT
    Keyword: DF_BASIS_SCF
    atoms 1-6  entry C          line   121 file /Users/york/src/psi4new/psi4/share/psi4/basis/cc-pvdz-jkfit.gbs 
    atoms 7-10 entry H          line    51 file /Users/york/src/psi4new/psi4/share/psi4/basis/cc-pvdz-jkfit.gbs 

  ==> Integral Setup <==

  DFHelper Memory: AOs need 0.006 GiB; user supplied 0.349 GiB. Using in-core AOs.

  ==> MemDFJK: Density-Fitted J/K Matrices <==

    J tasked:                   Yes
    K tasked:                   Yes
    wK tasked:                   No
    OpenMP threads:               1
    Memory [MiB]:               357
    Algorithm:                 Core
    Schwarz Cutoff:           1E-12
    Mask sparsity (%):       1.5571
    Fitting Condition:        1E-10

   => Auxiliary Basis Set <=

  Basis Set: CC-PVDZ-JKFIT
    Blend: CC-PVDZ-JKFIT
    Number of shells: 180
    Number of basis function: 512
    Number of Cartesian functions: 586
    Spherical Harmonics?: true
    Max angular momentum: 3

  Minimum eigenvalue in the overlap matrix is 1.7304895606E-01.
  Reciprocal condition number of the overlap matrix is 8.2923053653E-02.
    Using symmetric orthogonalization.

  ==> Pre-Iterations <==

  SCF Guess: Superposition of Atomic Densities via on-the-fly atomic UHF (no occupation information).

   -------------------------
    Irrep   Nso     Nmo    
   -------------------------
     Ag         8       8 
     B1g        6       6 
     B2g        1       1 
     B3g        2       2 
     Au         1       1 
     B1u        2       2 
     B2u        8       8 
     B3u        6       6 
   -------------------------
    Total      34      34
   -------------------------

  ==> Iterations <==

                           Total Energy        Delta E     RMS |[F,P]|

   @DF-RHF iter SAD:  -222.68017627348962   -2.22680e+02   0.00000e+00 
   @DF-RHF iter   1:  -226.39086590114110   -3.71069e+00   1.03020e-02 DIIS
   @DF-RHF iter   2:  -226.40510558170104   -1.42397e-02   4.57499e-03 DIIS
   @DF-RHF iter   3:  -226.40789410703456   -2.78853e-03   1.15984e-03 DIIS
   @DF-RHF iter   4:  -226.40821375260055   -3.19646e-04   1.50026e-04 DIIS
   @DF-RHF iter   5:  -226.40822170379809   -7.95120e-06   3.03002e-05 DIIS
   @DF-RHF iter   6:  -226.40822208330309   -3.79505e-07   6.49963e-06 DIIS
   @DF-RHF iter   7:  -226.40822210005544   -1.67524e-08   6.12322e-07 DIIS
   @DF-RHF iter   8:  -226.40822210017276   -1.17325e-10   5.22890e-08 DIIS
   @DF-RHF iter   9:  -226.40822210017339   -6.25278e-13   7.91181e-09 DIIS
  Energy and wave function converged.


  ==> Post-Iterations <==

    Orbital Energies [Eh]
    ---------------------

    Doubly Occupied:                                                      

       1B3u  -11.044832     1B2u  -11.044759     1Ag   -11.044730  
       1B1g  -11.044728     2B2u  -10.990252     2Ag   -10.990033  
       3Ag    -1.095697     2B3u   -0.964590     3B2u   -0.933316  
       2B1g   -0.776375     4Ag    -0.736222     5Ag    -0.594148  
       4B2u   -0.593038     3B3u   -0.566487     4B3u   -0.519978  
       1B1u   -0.462646     3B1g   -0.461295     1B2g   -0.290976  
       1B3g   -0.277037     5B2u   -0.174009  

    Virtual:                                                              

       6Ag     0.073971     1Au     0.233859     2B1u    0.312110  
       2B3g    0.514892     7Ag     0.636250     5B3u    0.657299  
       6B2u    0.678844     4B1g    0.719217     7B2u    0.826616  
       5B1g    0.845850     8Ag     0.861838     6B3u    0.972337  
       6B1g    1.136084     8B2u    1.136629  

    Final Occupation by Irrep:
             Ag   B1g   B2g   B3g    Au   B1u   B2u   B3u 
    DOCC [     5,    3,    1,    1,    0,    1,    5,    4 ]

  @DF-RHF Final Energy:  -226.40822210017339

   => Energetics <=

    Nuclear Repulsion Energy =            186.0226403251805607
    One-Electron Energy =                -675.6514293721830882
    Two-Electron Energy =                 263.2205669468291944
    Total Energy =                       -226.4082221001733615

Computation Completed


Properties will be evaluated at   0.000000,   0.000000,   0.000000 [a0]

Properties computed using the SCF density matrix

  Nuclear Dipole Moment: [e a0]
     X:     0.0000      Y:     0.0000      Z:     0.0000

  Electronic Dipole Moment: [e a0]
     X:     0.0000      Y:     0.0000      Z:     0.0000

  Dipole Moment: [e a0]
     X:     0.0000      Y:     0.0000      Z:     0.0000     Total:     0.0000

  Dipole Moment: [D]
     X:     0.0000      Y:     0.0000      Z:     0.0000     Total:     0.0000


*** tstop() called on Yorks-Mac.local at Tue May 19 10:02:28 2020
Module time:
	user time   =       0.90 seconds =       0.02 minutes
	system time =       0.03 seconds =       0.00 minutes
	total time  =          1 seconds =       0.02 minutes
Total time:
	user time   =       0.90 seconds =       0.02 minutes
	system time =       0.03 seconds =       0.00 minutes
	total time  =          1 seconds =       0.02 minutes
  Constructing Basis Sets for MCSCF...

   => Loading Basis Set <=

    Name: CC-PVDZ-JKFIT
    Role: JKFIT
    Keyword: DF_BASIS_SCF
    atoms 1-6  entry C          line   121 file /Users/york/src/psi4new/psi4/share/psi4/basis/cc-pvdz-jkfit.gbs 
    atoms 7-10 entry H          line    51 file /Users/york/src/psi4new/psi4/share/psi4/basis/cc-pvdz-jkfit.gbs 


         ---------------------------------------------------------
                Multi-Configurational Self-Consistent Field
                            (a 'D E T C I' module)

                 Daniel G. A. Smith, C. David Sherrill, and
                              Matt L. Leininger
         ---------------------------------------------------------


   ==> Parameters <==

    EX LEVEL       =        2      H0 BLOCKSIZE  =     1000
    VAL EX LEVEL   =        0      H0 GUESS SIZE =     1000
    H0COUPLINGSIZE =        0      H0 COUPLING   =       NO
    MAXITER        =       12      NUM PRINT     =       20
    NUM ROOTS      =        1      ICORE         =        1
    PRINT LVL      =        1      FCI           =      YES
    R CONV         = 1.00e-07      MIXED         =      YES
    E CONV         = 1.00e-12      MIXED4        =      YES
    R4S            =       NO      REPL OTF      =       NO
    DIAG METHOD    =      SEM      FOLLOW ROOT   =        0
    PRECONDITIONER = DAVIDSON      UPDATE        = DAVIDSON
    S              =   0.0000      Ms0           =      YES
    GUESS VECTOR   =  H0BLOCK      OPENTYPE      =     NONE
    COLLAPSE SIZE  =        1      HD AVG        = EVANGELISTI
    MAX NUM VECS   =       13      REF SYM       =     AUTO
    IOPEN        =       NO

    EX ALLOW       =  1  1 
    STATE AVERAGE  =  0(1.00) 

   ==> CI Orbital and Space information <==

   ------------------------------------------------------------------------------
               Space    Total    Ag   B1g   B2g   B3g    Au   B1u   B2u   B3u
   ------------------------------------------------------------------------------
                 Nso       34     8     6     1     2     1     2     8     6
                 Nmo       34     8     6     1     2     1     2     8     6
               Ndocc       20     5     3     1     1     0     1     5     4
               Nsocc        0     0     0     0     0     0     0     0     0
   ------------------------------------------------------------------------------
                                    MCSCF Spaces
   ------------------------------------------------------------------------------
         Frozen DOCC        0     0     0     0     0     0     0     0     0
     Restricted DOCC       19     5     3     1     1     0     1     4     4
              Active        2     1     0     0     0     0     0     1     0
     Restricted UOCC       13     2     3     0     1     1     1     3     2
         Frozen UOCC        0     0     0     0     0     0     0     0     0
   ------------------------------------------------------------------------------

   ==> Setting up CI strings <==

    There are 2 alpha and 2 beta strings
    The CI space requires 2 (2.00E+00) determinants and 2 blocks

   ==> Setting up DF-MCSCF integrals <==

  DFHelper Memory: AOs need 0.006 GiB; user supplied 0.373 GiB. Using in-core AOs.

  ==> MemDFJK: Density-Fitted J/K Matrices <==

    J tasked:                   Yes
    K tasked:                   Yes
    wK tasked:                   No
    OpenMP threads:               1
    Memory [MiB]:               381
    Algorithm:                 Core
    Schwarz Cutoff:           1E-12
    Mask sparsity (%):       1.5571
    Fitting Condition:        1E-10

   => Auxiliary Basis Set <=

  Basis Set: CC-PVDZ-JKFIT
    Blend: CC-PVDZ-JKFIT
    Number of shells: 180
    Number of basis function: 512
    Number of Cartesian functions: 586
    Spherical Harmonics?: true
    Max angular momentum: 3

  DFHelper Memory: AOs need 0.006 GiB; user supplied 0.373 GiB. Using in-core AOs.


   ==> Starting DF-MCSCF iterations <==

           Iter         Total Energy       Delta E   Orb RMS    CI RMS  NCI NORB
   @DF-MCSCF  1:   -226.545889748464   -1.3767e-01  3.75e-02  8.98e-17    1    1  Initial CI
   @DF-MCSCF  2:   -226.569694746939   -2.3805e-02  1.50e-02  1.37e-16    1    1  TS
   @DF-MCSCF  3:   -226.573548373456   -3.8536e-03  6.78e-03  3.08e-16    1    1  TS
   @DF-MCSCF  4:   -226.574311008631   -7.6264e-04  3.09e-03  4.94e-16    1    1  TS
   @DF-MCSCF  5:   -226.574476799570   -1.6579e-04  1.51e-03  5.19e-16    1    1  TS
   @DF-MCSCF  6:   -226.574515074537   -3.8275e-05  7.37e-04  1.91e-16    1    1  TS
   @DF-MCSCF  7:   -226.574524256206   -9.1817e-06  3.69e-04  3.40e-16    1    1  TS
   @DF-MCSCF  8:   -226.574526515210   -2.2590e-06  1.86e-04  3.61e-16    1    1  TS
   @DF-MCSCF  9:   -226.574527080169   -5.6496e-07  9.39e-05  1.04e-16    1    1  TS, DIIS
   @DF-MCSCF 10:   -226.574527222973   -1.4280e-07  4.77e-05  2.86e-16    1    1  TS, DIIS
   @DF-MCSCF 11:   -226.574527266411   -4.3438e-08  1.60e-05  2.56e-16    1    1  TS, DIIS
   @DF-MCSCF 12:   -226.574527270233   -3.8222e-09  8.51e-06  2.02e-16    2    1  TS, DIIS
   @DF-MCSCF 13:   -226.574527271336   -1.1036e-09  4.68e-06  5.34e-16    2    1  TS, DIIS
   @DF-MCSCF 14:   -226.574527271798   -4.6123e-10  9.09e-07  1.00e-15    2    1  TS, DIIS
   @DF-MCSCF 15:   -226.574527271815   -1.7224e-11  1.86e-07  9.68e-16    1    1  TS, DIIS
   @DF-MCSCF 16:   -226.574527271816   -7.9581e-13  1.20e-08  1.28e-15    1    1  TS, DIIS
   @DF-MCSCF 17:   -226.574527271816    0.0000e+00  1.69e-11  1.46e-15    1    1  TS, DIIS

          @DF-MCSCF has converged!

   @DF-MCSCF Final Energy: -226.574527271815526

   Computing CI Semicanonical Orbitals

   ==> Energetics <==

    SCF energy =         -226.408222100173361
    Total MCSCF energy = -226.574527271815526

   ==> MCSCF root 0 information <==

    MCSCF Root 0 energy =  -226.574527271815583

   Active Space Natural occupation numbers:

       B2u   1.200451        Ag   0.799549

   The 2 most important determinants:

    *   1   -0.774742  (    0,    0)  5B2uX 
    *   2    0.632277  (    1,    1)  6AgX 



Properties will be evaluated at   0.000000,   0.000000,   0.000000 [a0]

Properties computed using the CASSCF density matrix

  Nuclear Dipole Moment: [e a0]
     X:     0.0000      Y:     0.0000      Z:     0.0000

  Electronic Dipole Moment: [e a0]
     X:     0.0000      Y:     0.0000      Z:     0.0000

  Dipole Moment: [e a0]
     X:     0.0000      Y:     0.0000      Z:     0.0000     Total:     0.0000

  Dipole Moment: [D]
     X:     0.0000      Y:     0.0000      Z:     0.0000     Total:     0.0000

    CASSCF(2,2)/STO-3G energy (PSI4)..................................PASSED

Scratch directory: /Users/york/scratch/psi4/
   => Loading Basis Set <=

    Name: CC-PVDZ-JKFIT
    Role: RIFIT
    Keyword: DF_BASIS_MP2
    atoms 1-6  entry C          line   121 file /Users/york/src/psi4new/psi4/share/psi4/basis/cc-pvdz-jkfit.gbs 
    atoms 7-10 entry H          line    51 file /Users/york/src/psi4new/psi4/share/psi4/basis/cc-pvdz-jkfit.gbs 

   => Loading Basis Set <=

    Name: STO-3G
    Role: ORBITAL
    Keyword: MINAO_BASIS
    atoms 1-6  entry C          line    61 file /Users/york/src/psi4new/psi4/share/psi4/basis/sto-3g.gbs 
    atoms 7-10 entry H          line    19 file /Users/york/src/psi4new/psi4/share/psi4/basis/sto-3g.gbs 


  Forte
  ----------------------------------------------------------------------------
  A suite of quantum chemistry methods for strongly correlated electrons

    git branch: dsrg_file_io - git commit: 50bc8a14

  Developed by:
    Francesco A. Evangelista, Chenyang Li, Kevin P. Hannon,
    Jeffrey B. Schriber, Tianyuan Zhang, Chenxi Cai,
    Nan He, Nicholas Stair, Shuhe Wang, Renke Huang
  ----------------------------------------------------------------------------

  Size of Determinant class: 128 bits
  Read options for space FROZEN_DOCC
  Read options for space RESTRICTED_DOCC
  Read options for space ACTIVE

  ==> MO Space Information <==

  -------------------------------------------------------------------------
                       Ag   B1g   B2g   B3g    Au   B1u   B2u   B3u   Sum
  -------------------------------------------------------------------------
    FROZEN_DOCC         2     1     0     0     0     0     2     1     6
    RESTRICTED_DOCC     3     2     0     0     0     0     2     3    10
    ACTIVE              1     0     1     2     1     2     1     0     8
    RESTRICTED_UOCC     2     3     0     0     0     0     3     2    10
    FROZEN_UOCC         0     0     0     0     0     0     0     0     0
    Total               8     6     1     2     1     2     8     6    34
  -------------------------------------------------------------------------

  ==> Integral Transformation <==

  Number of molecular orbitals:                    34
  Number of correlated molecular orbitals:         28
  Number of frozen occupied orbitals:               6
  Number of frozen unoccupied orbitals:             0
  Two-electron integral type:              Disk-based density fitting


 Computing Density fitted integrals 

  Number of auxiliary basis functions:  512
  Need 0.004410 GB to store DF integrals
  DFHelper Memory: AOs need 0.006 GiB; user supplied 1.907 GiB. Using in-core AOs.


    Computing DF Integrals               ......Done. Timing        0.035875 s  DFHelper Memory: AOs need 0.006 GiB; user supplied 2.980 GiB. Using in-core AOs.


  Frozen-core energy           -287.155414762869 a.u.
  Timing for frozen one-body operator:                        0.252 s.
  Resorting integrals after freezing core.
 Resorting integrals takes   0.00000920s
  Timing for freezing core and virtual orbitals:              0.253 s.
  Timing for disk-based density-fitted integrals:             0.540 s.

  ==> Summary of Active Space Solver Input <==

    Irrep.  Multi.(2ms)      N
    --------------------------
       Ag      1  (  0)      1
    --------------------------
    N: number of roots
    ms: spin z component
    Total number of roots:   1
    --------------------------


              ---------------------------------------------------
                Complete Active Space Configuration Interaction
                                  Chenyang Li
              ---------------------------------------------------


  ==> Input Summary <==

    No. a electrons in active      =     4
    No. b electrons in active      =     4
    multiplicity                   =     1
    spin ms (2 * Sz)               =     0

  ==> Orbital Spaces <==

    TOTAL MO                      [    8     6     1     2     1     2     8     6 ]
    FROZEN CORE                   [    2     1     0     0     0     0     2     1 ]
    FROZEN VIRTUAL                [    0     0     0     0     0     0     0     0 ]
    CORRELATED MO                 [    6     5     1     2     1     2     6     5 ]
    CORE                          [    3     2     0     0     0     0     2     3 ]
    ACTIVE                        [    1     0     1     2     1     2     1     0 ]
    VIRTUAL                       [    2     3     0     0     0     0     3     2 ]
  Forming alpha and beta strings      ...  Done. Timing        0.000187 s
  Forming determinants                ...  Done. Timing        0.000334 s

  ==> Determinants Summary <==

    number of alpha active electrons         =     4
    number of beta active electrons          =     4
    root symmetry (zero based)               =     0
    number of determinants                   =   660

  Diagonalizing Hamiltonian           ...

  ==> Computing Coupling Lists <==
  --------------------------------
        α          0.004454 s
        β          0.004537 s
        αα         0.006119 s
        ββ         0.005479 s
        αβ         0.012853 s
  --------------------------------

  Davidson-Liu solver algorithm using SigmaVectorSparseList sigma algorithm
  Initial guess space is incomplete!
  Trying to add 43 determinant(s).  43 determinant(s) added.
  Initial guess found 56 solutions with 2S+1 = 1 *
  Initial guess found 62 solutions with 2S+1 = 3  
  Initial guess found 23 solutions with 2S+1 = 5  
  Initial guess found 2 solutions with 2S+1 = 7  
  Adding guess 0 (multiplicity = 1.000000)
  Adding guess 1 (multiplicity = 1.000000)

  ==> Diagonalizing Hamiltonian <==

  -----------------------------------------------------
    Iter.      Avg. Energy       Delta_E     Res. Norm
  -----------------------------------------------------
      1     -298.082025627137  -2.981e+02  +2.279e-01
      2     -298.127941694036  -4.592e-02  +9.642e-02
      3     -298.134193947946  -6.252e-03  +4.166e-02
      4     -298.135193144264  -9.992e-04  +2.202e-02
      5     -298.135385319077  -1.922e-04  +9.410e-03
      6     -298.135454437766  -6.912e-05  +4.391e-03
      7     -298.135466644665  -1.221e-05  +1.993e-03
      8     -298.135468409935  -1.765e-06  +1.012e-03
      9     -298.135469344692  -9.348e-07  +6.007e-04
     10     -298.135469543623  -1.989e-07  +4.023e-04
     11     -298.135469611942  -6.832e-08  +2.285e-04
     12     -298.135469649358  -3.742e-08  +1.203e-04
     13     -298.135469658593  -9.235e-09  +9.342e-05
     14     -298.135469662124  -3.530e-09  +4.664e-05
     15     -298.135469663982  -1.859e-09  +2.889e-05
     16     -298.135469664480  -4.981e-10  +2.182e-05
     17     -298.135469664683  -2.029e-10  +1.220e-05
     18     -298.135469664789  -1.059e-10  +6.688e-06
     19     -298.135469664819  -2.933e-11  +5.482e-06
     20     -298.135469664831  -1.199e-11  +2.754e-06
     21     -298.135469664837  -6.139e-12  +1.692e-06
     22     -298.135469664838  -1.762e-12  +1.277e-06
     23     -298.135469664839  -6.253e-13  +7.226e-07
     24     -298.135469664840  -6.253e-13  +4.069e-07
     25     -298.135469664840  +1.137e-13  +3.361e-07
     26     -298.135469664840  -1.137e-13  +1.688e-07
     27     -298.135469664840  +1.137e-13  +1.033e-07
     28     -298.135469664840  -1.137e-13  +7.730e-08
     29     -298.135469664840  +0.000e+00  +4.396e-08
     30     -298.135469664840  +0.000e+00  +2.511e-08
     31     -298.135469664840  +5.684e-14  +2.073e-08
     32     -298.135469664840  +5.684e-14  +1.045e-08
     33     -298.135469664840  +0.000e+00  +6.340e-09
  -----------------------------------------------------
  The Davidson-Liu algorithm converged in 34 iterations.
  Davidson-Liu procedure took  0.203744 s  Done. Timing        0.240716 s

  * * * * * * * * * * * * * * * * *
  *  CI Vectors & Configurations  *
  * * * * * * * * * * * * * * * * *

  ==> Root No. 0 <==

    0 2 20 0 20 2         -0.7112673943
    2 2 20 0 20 0          0.5530440696
    0 0 20 2 20 2          0.1424835018
    2 0 20 2 20 0         -0.1153322237
    0 2 00 0 22 2          0.1145249133
    2 2 00 0 22 0         -0.1017046963
    a 2 b0 0 2b a         -0.0884757915
    b 2 a0 0 2a b         -0.0884757915
    0 b a0 b 2a 2         -0.0871181617
    0 a b0 a 2b 2         -0.0871181617
    2 b a0 b 2a 0          0.0706164626
    2 a b0 a 2b 0          0.0706164626
    a 2 a0 0 2b b          0.0614587451
    b 2 b0 0 2a a          0.0614587451
    0 b 2a b a0 2          0.0608075630
    0 a 2b a b0 2          0.0608075630
    0 a a0 b 2b 2         -0.0600567127
    0 b b0 a 2a 2         -0.0600567127
    0 2 ab 0 ba 2          0.0564666133
    0 2 ba 0 ab 2          0.0564666133
    2 a a0 b 2b 0          0.0516733180
    2 b b0 a 2a 0          0.0516733180

    Total Energy:   -226.688669588487301



  ==> Permanent Dipole Moments (Ag) <==

  Only print nonzero (> 1.0e-5) elements.


  ==> Energy Summary <==

    Multi.(2ms)  Irrep.  No.               Energy
    ---------------------------------------------
       1  (  0)    Ag     0     -226.688669588487
    ---------------------------------------------
 Computing  1RDMs (0 Singlet Ag - 0 Singlet Ag) ... Done. Timing        0.008395 s
 Computing  2RDMs (0 Singlet Ag - 0 Singlet Ag) ... Done. Timing        0.022710 s
 Computing  3RDMs (0 Singlet Ag - 0 Singlet Ag) ... Done. Timing        0.060847 s

       -----------------------------------------------------------------
                            Semi-Canonical Orbitals
         Chenyang Li, Jeffrey B. Schriber and Francesco A. Evangelista
       -----------------------------------------------------------------

 Making a fock matrix 

---------Blocking Information-------

  3211264 / 375000000 = 0
  Block_size = 512 num_block = 1
  Took 0.095895 s to build Fock matrix

  ==> Checking Fock Matrix Diagonal Blocks <==

    Off-Diag. Elements       Max           2-Norm
    ------------------------------------------------
    Fa actv              0.0005856797   0.0008488682
    Fb actv              0.0005856797   0.0008488682
    ------------------------------------------------
    Fa core              0.0013736830   0.0032054920
    Fb core              0.0013736830   0.0032054920
    ------------------------------------------------
    Fa virt              0.0008794085   0.0021069969
    Fb virt              0.0008794085   0.0021069969
    ------------------------------------------------
 Integrals are about to be computed.
 Computing Density fitted integrals 

  Number of auxiliary basis functions:  512
  Need 0.004410 GB to store DF integrals
  DFHelper Memory: AOs need 0.006 GiB; user supplied 1.907 GiB. Using in-core AOs.


    Computing DF Integrals               ......Done. Timing        0.037851 s
 Integrals are about to be updated.  DFHelper Memory: AOs need 0.006 GiB; user supplied 2.980 GiB. Using in-core AOs.


  Frozen-core energy           -287.155414762869 a.u.
  Timing for frozen one-body operator:                        0.257 s.
  Resorting integrals after freezing core.
 Resorting integrals takes   0.00000993s
  Timing for freezing core and virtual orbitals:              0.257 s.

  ==> RDMs Transformation to Semicanonical Basis <==

    Transformed 1 RDM.
    Transformed 2 RDM.
    Transformed 3 RDM.
  SemiCanonicalize takes 0.727457 s.

    -----------------------------------------------------------------------
      Spin-Adapted Multireference Driven Similarity Renormalization Group
                            written by Chenyang Li
                                 1 OMP thread
    -----------------------------------------------------------------------

  Disclaimer:
    The spin-adapted DSRG code is largely adopted from the spin-integrated code developed by
    Chenyang Li, Kevin P. Hannon, Tianyuan Zhang, and Francesco A. Evangelista.

  ==> Multireference Driven Similarity Renormalization Group <==

    Reading DSRG options ............................ Done
    Setting ambit MO space .......................... Done
    Preparing tensors for density cumulants ......... Done
    Building Fock matrix ............................ 
 Making a fock matrix 

---------Blocking Information-------

  3211264 / 375000000 = 0
  Block_size = 512 num_block = 1Done

  ==> Density Cumulant Summary <==

             2-cumulant   3-cumulant
    --------------------------------
    max        0.933600     0.200006
    norm       2.604231     1.545275
    --------------------------------

  ==> Checking Semicanonical Orbitals <==

    Fock core, active, virtual blocks (Fij, i != j)
                      core          active         virtual
    ------------------------------------------------------
       max    0.0000000000    0.0000000000    0.0000000000
    1-norm    0.0000000000    0.0000000000    0.0000000001
    ------------------------------------------------------

    Orbitals are semi-canonicalized.

                  --------------------------------------------
                    MR-DSRG Second-Order Perturbation Theory
                  --------------------------------------------


  ==> Computation Information <==

    Integral type                                     DISKDF
    Source operator                                 STANDARD
    Core-Virtual source type                          NORMAL
    Reference relaxation                                ONCE
    Internal amplitudes                                 NONE
    State type                                  SINGLE STATE
    Flow parameter                                 5.000e-01
    Taylor expansion threshold                     1.000e-03
    Intruder amplitudes threshold                  1.000e-01
    Number of amplitudes for printing                     15


  ==> DSRG-MRPT2 Memory Information <==

    Memory assigned by the user                    500.00 MB
    Memory available for MR-DSRG                   487.87 MB
    Generalized Fock matrix                          6.50 KB
    1-, 2-, and 3-density cumulants                  2.13 MB
    2-electron (4-index) integrals                 319.49 KB
    T2 cluster amplitudes                          638.98 KB
    T1 cluster amplitudes                            2.59 KB
    1- and 2-body Hbar                              33.28 KB
    Local 3-index integrals                          0.92 MB
    Local integrals for CCVV energy                 83.52 KB
    Local integrals for CAVV energy                381.95 KB
    Local integrals for CCAV energy                381.95 KB
    Local integrals for forming Hbar               239.62 KB
    Max memory for local intermediates               0.92 MB
    Memory currently available                     484.74 MB


  ==> First-Order Excitation Amplitudes Summary <==

    Active Indices:    3   11   12   13   14   15   16   19
    Largest T1 amplitudes (absolute values):
        i    a                i    a                i    a
    -----------------------------------------------------------------
    [   3    5] 0.0147799 [   2    3] 0.0146889 [  17   19] 0.0121471
    [  19   22] 0.0109797 [  19   21] 0.0100659 [   3    4] 0.0085836
    [   1    3] 0.0052418 [   0    3] 0.0036170 [  19   20] 0.0024604
    [  18   19] 0.0016899 [  24   27] 0.0006779 [   7   10] 0.0005960
    [   6    8] 0.0004898 [   0    5] 0.0004561 [  17   22] 0.0004364
    -----------------------------------------------------------------
    2-Norm of T1 vector:                            0.030479675863354
    Number of nonzero elements:                                   140
    -----------------------------------------------------------------
    Largest T2 amplitudes (absolute values):
        i    j    a    b                i    j    a    b                i    j    a    b
    -----------------------------------------------------------------------------------------------
    [  19    7    3   27] 0.0280840 [   3    7   19   27] 0.0275267 [  19   24   19   27] 0.0250316
    [   3   24    3   27] 0.0221849 [   3   24   19   10] 0.0208940 [  14   24   13    5] 0.0208431
    [  16   18   16   20] 0.0208387 [  12   18   12   20] 0.0206921 [  19   24    3   10] 0.0206720
    [   2   19   19    3] 0.0203843 [  15   24   11    5] 0.0201911 [  13   18   13   20] 0.0198296
    [  11    2   14   21] 0.0195661 [  13   24   14    5] 0.0194846 [  11   24   15    5] 0.0193411
    -----------------------------------------------------------------------------------------------
    2-Norm of T2 vector:                                                          0.327317741129596
    Number of nonzero elements:                                                                7661
    -----------------------------------------------------------------------------------------------

  ==> Possible Intruders <==

    T1 amplitudes larger than 0.1000: NULL
    T2 amplitudes larger than 0.1000: NULL

  ==> DSRG-MRPT2 Energy Summary <==

    E0 (reference)                 =   -226.688669588492587
    < Phi_0 | [Fr, T1] | Phi_0 >   =     -0.004913105873230
    < Phi_0 | [Fr, T2] | Phi_0 >   =      0.004370338978477
    < Phi_0 | [Vr, T1] | Phi_0 >   =      0.005196706121344
    < Phi_0 | [Vr, T2] | Phi_0 >   =     -0.227820240406635
      - [Vr, T2] L1 contribution   =     -0.310327888579906
      - [Vr, T2] L2 contribution   =      0.083664715335189
      - [Vr, T2] L3 contribution   =     -0.001157067161918
    DSRG-MRPT2 correlation energy  =     -0.223166301180045
    DSRG-MRPT2 total energy        =   -226.911835889672631

  ==> De-Normal-Order DSRG Transformed Hamiltonian <==

    Computing the scalar term                ... Done. Timing    0.000 s
    Computing the 1-body term                ... Done. Timing    0.000 s

  ==> Rotate DSRG Transformed Hamiltonian back to Original Basis <==

    Rotating 1-body term to original basis   ... Done. Timing    0.000 s
    Rotating 2-body term to original basis   ... Done. Timing    0.001 s

  ==> Summary of Active Space Solver Input <==

    Irrep.  Multi.(2ms)      N
    --------------------------
       Ag      1  (  0)      1
    --------------------------
    N: number of roots
    ms: spin z component
    Total number of roots:   1
    --------------------------


              ---------------------------------------------------
                Complete Active Space Configuration Interaction
                                  Chenyang Li
              ---------------------------------------------------


  ==> Input Summary <==

    No. a electrons in active      =     4
    No. b electrons in active      =     4
    multiplicity                   =     1
    spin ms (2 * Sz)               =     0

  ==> Orbital Spaces <==

    TOTAL MO                      [    8     6     1     2     1     2     8     6 ]
    FROZEN CORE                   [    2     1     0     0     0     0     2     1 ]
    FROZEN VIRTUAL                [    0     0     0     0     0     0     0     0 ]
    CORRELATED MO                 [    6     5     1     2     1     2     6     5 ]
    CORE                          [    3     2     0     0     0     0     2     3 ]
    ACTIVE                        [    1     0     1     2     1     2     1     0 ]
    VIRTUAL                       [    2     3     0     0     0     0     3     2 ]
  Forming alpha and beta strings      ...  Done. Timing        0.000166 s
  Forming determinants                ...  Done. Timing        0.000326 s

  ==> Determinants Summary <==

    number of alpha active electrons         =     4
    number of beta active electrons          =     4
    root symmetry (zero based)               =     0
    number of determinants                   =   660

  Diagonalizing Hamiltonian           ...

  ==> Computing Coupling Lists <==
  --------------------------------
        α          0.004089 s
        β          0.004093 s
        αα         0.005304 s
        ββ         0.005268 s
        αβ         0.012949 s
  --------------------------------

  Davidson-Liu solver algorithm using SigmaVectorSparseList sigma algorithm
  Initial guess space is incomplete!
  Trying to add 37 determinant(s).  37 determinant(s) added.
  Initial guess found 54 solutions with 2S+1 = 1 *
  Initial guess found 59 solutions with 2S+1 = 3  
  Initial guess found 22 solutions with 2S+1 = 5  
  Initial guess found 2 solutions with 2S+1 = 7  
  Adding guess 0 (multiplicity = 1.000000)
  Adding guess 1 (multiplicity = 1.000000)

  ==> Diagonalizing Hamiltonian <==

  -----------------------------------------------------
    Iter.      Avg. Energy       Delta_E     Res. Norm
  -----------------------------------------------------
      1     -297.460501052251  -2.975e+02  +1.757e-01
      2     -297.490066111801  -2.957e-02  +6.246e-02
      3     -297.492928114992  -2.862e-03  +2.408e-02
      4     -297.493306793032  -3.787e-04  +1.125e-02
      5     -297.493367924008  -6.113e-05  +4.621e-03
      6     -297.493386520483  -1.860e-05  +2.145e-03
      7     -297.493389645169  -3.125e-06  +9.783e-04
      8     -297.493390128585  -4.834e-07  +4.486e-04
      9     -297.493390299890  -1.713e-07  +2.391e-04
     10     -297.493390341086  -4.120e-08  +1.345e-04
     11     -297.493390349787  -8.701e-09  +6.515e-05
     12     -297.493390353507  -3.719e-09  +3.279e-05
     13     -297.493390354295  -7.881e-10  +2.248e-05
     14     -297.493390354542  -2.473e-10  +1.110e-05
     15     -297.493390354649  -1.070e-10  +5.904e-06
     16     -297.493390354673  -2.387e-11  +4.177e-06
     17     -297.493390354681  -7.958e-12  +2.020e-06
     18     -297.493390354684  -3.467e-12  +1.008e-06
     19     -297.493390354685  -6.253e-13  +7.233e-07
     20     -297.493390354685  -2.842e-13  +3.586e-07
     21     -297.493390354685  -1.137e-13  +1.924e-07
     22     -297.493390354686  -2.274e-13  +1.383e-07
     23     -297.493390354686  -5.684e-14  +6.730e-08
     24     -297.493390354686  +5.684e-14  +3.322e-08
     25     -297.493390354685  +1.705e-13  +2.402e-08
     26     -297.493390354686  -5.684e-14  +1.193e-08
     27     -297.493390354686  +0.000e+00  +6.387e-09
  -----------------------------------------------------
  The Davidson-Liu algorithm converged in 28 iterations.
  Davidson-Liu procedure took  0.166277 s  Done. Timing        0.201054 s

  * * * * * * * * * * * * * * * * *
  *  CI Vectors & Configurations  *
  * * * * * * * * * * * * * * * * *

  ==> Root No. 0 <==

    0 2 20 0 20 2          0.7404119937
    2 2 20 0 20 0         -0.5605520226
    0 0 20 2 20 2         -0.1193781083
    0 2 00 0 22 2         -0.0984506731
    2 0 20 2 20 0          0.0932572845
    a 2 b0 0 2b a          0.0881262264
    b 2 a0 0 2a b          0.0881262264
    2 2 00 0 22 0          0.0866550249
    0 a b0 a 2b 2          0.0714362237
    0 b a0 b 2a 2          0.0714362237
    a 2 a0 0 2b b         -0.0615899351
    b 2 b0 0 2a a         -0.0615899351
    2 a b0 a 2b 0         -0.0560629476
    2 b a0 b 2a 0         -0.0560629476
    0 b b0 a 2a 2          0.0519119578
    0 a a0 b 2b 2          0.0519119578

    Total Energy:   -226.915446301068442



  ==> Permanent Dipole Moments (Ag) <==

  Only print nonzero (> 1.0e-5) elements.


  ==> Energy Summary <==

    Multi.(2ms)  Irrep.  No.               Energy
    ---------------------------------------------
       1  (  0)    Ag     0     -226.915446301068
    ---------------------------------------------

  => SA-MRDSRG Reference Relaxation Energy Summary <=

                         Fixed Ref. (a.u.)              Relaxed Ref. (a.u.)
           -------------------------------  -------------------------------
    Iter.          Total Energy      Delta          Total Energy      Delta
    -----------------------------------------------------------------------
        1     -226.911835889673 -2.269e+02     -226.915446301068 -2.269e+02
    -----------------------------------------------------------------------

  ==> Total Timings (s) for Computing Commutators <==

             [H1, T1]    [H1, T2]    [H2, T1]    [H2, T2]
    -----------------------------------------------------
    -> C0       0.000       0.000       0.000       0.000
    -> C1       0.000       0.000       0.000       0.000
    -> C2                   0.000       0.000       0.000
    -----------------------------------------------------


  Time to prepare integrals:        0.554 seconds
  Time to run job          :        3.206 seconds
  Total                    :        3.206 seconds    DSRG-MRPT2 unrelaxed energy.......................................PASSED
    DSRG-MRPT2 partially relaxed energy...............................PASSED

    Psi4 stopped on: Tuesday, 19 May 2020 10:02AM
    Psi4 wall time for execution: 0:00:06.07

*** Psi4 exiting successfully. Buy a developer a beer!
