
    -----------------------------------------------------------------------
          Psi4: An Open-Source Ab Initio Electronic Structure Package
                               Psi4 1.9a1.dev50 

                         Git: Rev {fixtemp} 466ebc2 


    D. G. A. Smith, L. A. Burns, A. C. Simmonett, R. M. Parrish,
    M. C. Schieber, R. Galvelis, P. Kraus, H. Kruse, R. Di Remigio,
    A. Alenaizan, A. M. James, S. Lehtola, J. P. Misiewicz, M. Scheurer,
    R. A. Shaw, J. B. Schriber, Y. Xie, Z. L. Glick, D. A. Sirianni,
    J. S. O'Brien, J. M. Waldrop, A. Kumar, E. G. Hohenstein,
    B. P. Pritchard, B. R. Brooks, H. F. Schaefer III, A. Yu. Sokolov,
    K. Patkowski, A. E. DePrince III, U. Bozkaya, R. A. King,
    F. A. Evangelista, J. M. Turney, T. D. Crawford, C. D. Sherrill,
    J. Chem. Phys. 152(18) 184108 (2020). https://doi.org/10.1063/5.0006002

                            Additional Code Authors
    E. T. Seidl, C. L. Janssen, E. F. Valeev, M. L. Leininger,
    J. F. Gonthier, R. M. Richard, H. R. McAlexander, M. Saitow, X. Wang,
    P. Verma, M. H. Lechner, A. Jiang, S. Behnle, A. G. Heide,
    M. F. Herbst, and D. L. Poole

             Previous Authors, Complete List of Code Contributors,
                       and Citations for Specific Modules
    https://github.com/psi4/psi4/blob/master/codemeta.json
    https://github.com/psi4/psi4/graphs/contributors
    http://psicode.org/psi4manual/master/introduction.html#citing-psifour

    -----------------------------------------------------------------------


    Psi4 started on: Friday, 10 November 2023 04:13PM

    Process ID: 32653
    Host:       macbook-pro-158.wireless.emory.edu
    PSIDATADIR: /Users/fevange/Source/psi4/objdir-Release/stage/share/psi4
    Memory:     500.0 MiB
    Threads:    1
    
  ==> Input File <==

--------------------------------------------------------------------------
#! Generated using commit GITCOMMIT
# SA-GASSCF calculation

import forte

refgasscf = -75.82350097156640345

memory 6000mb
#! 6-31G** H2O Test RASSCF Energy Point
##! will default to only singles and doubles in the active space
molecule h2o{
  O
  H  1 1.00
  H  1 1.00 2 103.1
}

set global {
  basis 6-31g**
  e_convergence 10
  d_convergence 10
  r_convergence 10
  guess gwh
  scf_type pk
  reference rhf
}

set scf_type direct
set forte {
  active_space_solver aci
  ms 0.0
  multiplicity 1
  sigma 0.000
  nroot 1
  root_sym 0
  charge 0
  sci_enforce_spin_complete true
  e_convergence 10
  charge 0
  active_ref_type gas
  GAS1 [2,0,1,1]
  GAS2 [1,0,0,1]
  restricted_docc [1,0,0,0]
  restricted_uocc [8,2,3,5]
  GAS1MIN [6]
  GAS2MAX [2]
  avg_state [[0,1,2]]
  job_type casscf
  casscf_ci_solver aci
  casscf_maxiter 200
  casscf_e_convergence 1e-10
}

escf, wfn = energy('scf', return_wfn=True)
egasscf = energy('forte',ref_wfn=wfn)
compare_values(refgasscf, egasscf, 9, "GASSCF energy") #TEST
--------------------------------------------------------------------------

  Memory set to   5.588 GiB by Python driver.

Scratch directory: /tmp/
   => Libint2 <=

    Primary   basis highest AM E, G, H:  5, 4, 3
    Auxiliary basis highest AM E, G, H:  6, 5, 4
    Onebody   basis highest AM E, G, H:  6, 5, 4
    Solid Harmonics ordering:            gaussian

*** tstart() called on macbook-pro-158.wireless.emory.edu
*** at Fri Nov 10 16:13:14 2023

   => Loading Basis Set <=

    Name: 6-31G**
    Role: ORBITAL
    Keyword: BASIS
    atoms 1   entry O          line   149 file /Users/fevange/Source/psi4/objdir-Release/stage/share/psi4/basis/6-31gss.gbs 
    atoms 2-3 entry H          line    44 file /Users/fevange/Source/psi4/objdir-Release/stage/share/psi4/basis/6-31gss.gbs 


         ---------------------------------------------------------
                                   SCF
               by Justin Turney, Rob Parrish, Andy Simmonett
                          and Daniel G. A. Smith
                              RHF Reference
                        1 Threads,   5722 MiB Core
         ---------------------------------------------------------

  ==> Geometry <==

    Molecular point group: c2v
    Full point group: C2v

    Geometry (in Angstrom), charge = 0, multiplicity = 1:

       Center              X                  Y                   Z               Mass       
    ------------   -----------------  -----------------  -----------------  -----------------
         O            0.000000000000     0.000000000000    -0.069592187400    15.994914619570
         H            0.000000000000    -0.783151105291     0.552239257834     1.007825032230
         H            0.000000000000     0.783151105291     0.552239257834     1.007825032230

  Running in c2v symmetry.

  Rotational constants: A =     24.35462  B =     13.63610  C =      8.74166 [cm^-1]
  Rotational constants: A = 730133.21529  B = 408800.04239  C = 262068.46393 [MHz]
  Nuclear repulsion =    8.804686653247025

  Charge       = 0
  Multiplicity = 1
  Electrons    = 10
  Nalpha       = 5
  Nbeta        = 5

  ==> Algorithm <==

  SCF Algorithm Type is DIRECT.
  DIIS enabled.
  MOM disabled.
  Fractional occupation disabled.
  Guess Type is GWH.
  Energy threshold   = 1.00e-10
  Density threshold  = 1.00e-10
  Integral threshold = 1.00e-12

  ==> Primary Basis <==

  Basis Set: 6-31G**
    Blend: 6-31G**
    Number of shells: 12
    Number of basis functions: 25
    Number of Cartesian functions: 25
    Spherical Harmonics?: false
    Max angular momentum: 2

   => Loading Basis Set <=

    Name: (6-31G** AUX)
    Role: JKFIT
    Keyword: DF_BASIS_SCF
    atoms 1   entry O          line   221 file /Users/fevange/Source/psi4/objdir-Release/stage/share/psi4/basis/cc-pvdz-jkfit.gbs 
    atoms 2-3 entry H          line    51 file /Users/fevange/Source/psi4/objdir-Release/stage/share/psi4/basis/cc-pvdz-jkfit.gbs 

  Starting with a DF guess...

  ==> Integral Setup <==

  DFHelper Memory: AOs need 0.001 GiB; user supplied 4.191 GiB. 
  Using in-core AOs.

  ==> MemDFJK: Density-Fitted J/K Matrices <==

    J tasked:                   Yes
    K tasked:                   Yes
    wK tasked:                   No
    OpenMP threads:               1
    Memory [MiB]:              4291
    Algorithm:                 Core
    Schwarz Cutoff:           1E-12
    Mask sparsity (%):       0.0000
    Fitting Condition:        1E-10

   => Auxiliary Basis Set <=

  Basis Set: (6-31G** AUX)
    Blend: CC-PVDZ-JKFIT
    Number of shells: 42
    Number of basis functions: 131
    Number of Cartesian functions: 131
    Spherical Harmonics?: false
    Max angular momentum: 3

  Minimum eigenvalue in the overlap matrix is 2.2571686435E-02.
  Reciprocal condition number of the overlap matrix is 5.1514795888E-03.
    Using symmetric orthogonalization.

  ==> Pre-Iterations <==

  SCF Guess: Generalized Wolfsberg-Helmholtz applied to core Hamiltonian.

   -------------------------------------------------------
    Irrep   Nso     Nmo     Nalpha   Nbeta   Ndocc  Nsocc
   -------------------------------------------------------
     A1        12      12       3       3       3       0
     A2         2       2       0       0       0       0
     B1         4       4       1       1       1       0
     B2         7       7       1       1       1       0
   -------------------------------------------------------
    Total      25      25       5       5       5       0
   -------------------------------------------------------

  ==> Iterations <==

                           Total Energy        Delta E     RMS |[F,P]|

   @DF-RHF iter   1:   -74.69502194331444   -7.46950e+01   1.19380e-01 ADIIS
   @DF-RHF iter   2:   -75.63883488360122   -9.43813e-01   7.21524e-02 DIIS/ADIIS
   @DF-RHF iter   3:   -75.93342927299685   -2.94594e-01   3.35851e-02 DIIS/ADIIS
   @DF-RHF iter   4:   -76.01430516301365   -8.08759e-02   6.34354e-03 DIIS/ADIIS
   @DF-RHF iter   5:   -76.01724291941886   -2.93776e-03   2.66323e-04 DIIS/ADIIS
   @DF-RHF iter   6:   -76.01725899679892   -1.60774e-05   5.79129e-05 DIIS
   @DF-RHF iter   7:   -76.01725995996928   -9.63170e-07   9.69416e-06 DIIS
   @DF-RHF iter   8:   -76.01725998251197   -2.25427e-08   2.06478e-06 DIIS
   @DF-RHF iter   9:   -76.01725998413119   -1.61921e-09   5.25388e-07 DIIS
   @DF-RHF iter  10:   -76.01725998416302   -3.18323e-11   3.67583e-08 DIIS
   @DF-RHF iter  11:   -76.01725998416325   -2.27374e-13   3.41540e-09 DIIS
   @DF-RHF iter  12:   -76.01725998416322    2.84217e-14   5.26149e-10 DIIS
   @DF-RHF iter  13:   -76.01725998416323   -1.42109e-14   4.86461e-11 DIIS

  DF guess converged.

  ==> DirectJK: Integral-Direct J/K Matrices <==

    J tasked:                  Yes
    K tasked:                  Yes
    wK tasked:                  No
    Integrals threads:           1
    Screening Type:           CSAM
    Screening Cutoff:        1E-12
    Incremental Fock:           No

   @RHF iter  14:   -76.01729654450106   -7.60173e+01   1.19915e-05 DIIS
   @RHF iter  15:   -76.01729655577874   -1.12777e-08   1.64017e-06 DIIS
   @RHF iter  16:   -76.01729655606739   -2.88651e-10   4.89637e-07 DIIS
   @RHF iter  17:   -76.01729655608844   -2.10463e-11   1.68506e-07 DIIS
   @RHF iter  18:   -76.01729655609141   -2.97007e-12   4.58642e-08 DIIS
   @RHF iter  19:   -76.01729655609159   -1.84741e-13   5.21058e-09 DIIS
   @RHF iter  20:   -76.01729655609164   -4.26326e-14   7.84807e-10 DIIS
   @RHF iter  21:   -76.01729655609162    1.42109e-14   1.27027e-10 DIIS
   @RHF iter  22:   -76.01729655609171   -8.52651e-14   2.82297e-11 DIIS
  Energy and wave function converged.


  ==> Post-Iterations <==

    Orbital Energies [Eh]
    ---------------------

    Doubly Occupied:                                                      

       1A1   -20.569000     2A1    -1.320609     1B2    -0.678724  
       3A1    -0.563930     1B1    -0.495004  

    Virtual:                                                              

       4A1     0.202466     2B2     0.292719     3B2     0.981164  
       5A1     1.056318     6A1     1.129179     2B1     1.168639  
       4B2     1.294985     7A1     1.413596     1A2     1.802875  
       8A1     1.806916     3B1     1.918871     9A1     2.513249  
       5B2     2.537822     6B2     2.713577     2A2     2.921065  
       4B1     2.947486    10A1     3.291755    11A1     3.620730  
       7B2     3.874917    12A1     4.077740  

    Final Occupation by Irrep:
             A1    A2    B1    B2 
    DOCC [     3,    0,    1,    1 ]
    NA   [     3,    0,    1,    1 ]
    NB   [     3,    0,    1,    1 ]

  @RHF Final Energy:   -76.01729655609171

   => Energetics <=

    Nuclear Repulsion Energy =              8.8046866532470247
    One-Electron Energy =                -122.3894315645720070
    Two-Electron Energy =                  37.5674483552332674
    Total Energy =                        -76.0172965560917078

Computation Completed


Properties will be evaluated at   0.000000,   0.000000,   0.000000 [a0]

Properties computed using the SCF density matrix


 Multipole Moments:

 ------------------------------------------------------------------------------------
     Multipole            Electronic (a.u.)      Nuclear  (a.u.)        Total (a.u.)
 ------------------------------------------------------------------------------------

 L = 1.  Multiply by 2.5417464519 to convert [e a0] to [Debye]
 Dipole X            :          0.0000000            0.0000000            0.0000000
 Dipole Y            :          0.0000000            0.0000000            0.0000000
 Dipole Z            :         -0.1532271            1.0350805            0.8818534
 Magnitude           :                                                    0.8818534

 ------------------------------------------------------------------------------------

*** tstop() called on macbook-pro-158.wireless.emory.edu at Fri Nov 10 16:13:14 2023
Module time:
	user time   =       0.75 seconds =       0.01 minutes
	system time =       1.39 seconds =       0.02 minutes
	total time  =          0 seconds =       0.00 minutes
Total time:
	user time   =       0.75 seconds =       0.01 minutes
	system time =       1.39 seconds =       0.02 minutes
	total time  =          0 seconds =       0.00 minutes

Scratch directory: /tmp/

  Forte
  ----------------------------------------------------------------------------
  A suite of quantum chemistry methods for strongly correlated electrons

    git branch: strgas - git commit: 1d41137c

  Developed by:
    Francesco A. Evangelista, Chenyang Li, Kevin P. Hannon,
    Jeffrey B. Schriber, Tianyuan Zhang, Chenxi Cai,
    Nan He, Nicholas Stair, Shuhe Wang, Renke Huang
  ----------------------------------------------------------------------------

  Size of Determinant class: 128 bits

  Preparing forte objects from a Psi4 Wavefunction object
  Read options for space RESTRICTED_DOCC
  Read options for space GAS1
  Read options for space GAS2
  Read options for space RESTRICTED_UOCC
  Read options for space GAS1
  Read options for space GAS2
  Read options for space RESTRICTED_DOCC
  Read options for space RESTRICTED_UOCC

  ==> MO Space Information <==

  -------------------------------------------------
                       A1    A2    B1    B2   Sum
  -------------------------------------------------
    FROZEN_DOCC         0     0     0     0     0
    RESTRICTED_DOCC     1     0     0     0     1
    GAS1                2     0     1     1     4
    GAS2                1     0     0     1     2
    GAS3                0     0     0     0     0
    GAS4                0     0     0     0     0
    GAS5                0     0     0     0     0
    GAS6                0     0     0     0     0
    RESTRICTED_UOCC     8     2     3     5    18
    FROZEN_UOCC         0     0     0     0     0
    Total              12     2     4     7    25
  -------------------------------------------------   => Loading Basis Set <=

    Name: 6-31G**
    Role: ORBITAL
    Keyword: BASIS
    atoms 1   entry O          line   149 file /Users/fevange/Source/psi4/objdir-Release/stage/share/psi4/basis/6-31gss.gbs 
    atoms 2-3 entry H          line    44 file /Users/fevange/Source/psi4/objdir-Release/stage/share/psi4/basis/6-31gss.gbs 


  Checking orbital orthonormality against current geometry ... Done (OK)

   => Loading Basis Set <=

    Name: STO-3G
    Role: ORBITAL
    Keyword: MINAO_BASIS
    atoms 1   entry O          line    81 file /Users/fevange/Source/psi4/objdir-Release/stage/share/psi4/basis/sto-3g.gbs 
    atoms 2-3 entry H          line    19 file /Users/fevange/Source/psi4/objdir-Release/stage/share/psi4/basis/sto-3g.gbs 


  Forte will use psi4 integrals

  ==> Primary Basis Set Summary <==

  Basis Set: 6-31G**
    Blend: 6-31G**
    Number of shells: 12
    Number of basis functions: 25
    Number of Cartesian functions: 25
    Spherical Harmonics?: false
    Max angular momentum: 2


  JK created using conventional PK integrals
  Using in-core PK algorithm.
   Calculation information:
      Number of atoms:                   3
      Number of AO shells:              12
      Number of primitives:             25
      Number of atomic orbitals:        25
      Number of basis functions:        25

      Integral cutoff                 1.00e-12
      Number of threads:                 1

  Performing in-core PK
  Using 105950 doubles for integral storage.
  We computed 3081 shell quartets total.
  Whereas there are 3081 unique shell quartets.

  ==> DiskJK: Disk-Based J/K Matrices <==

    J tasked:                  Yes
    K tasked:                  Yes
    wK tasked:                  No
    Memory [MiB]:             4577
    Schwarz Cutoff:          1E-12

    OpenMP threads:              1



  ==> Integral Transformation <==

  Number of molecular orbitals:                         25
  Number of correlated molecular orbitals:              25
  Number of frozen occupied orbitals:                    0
  Number of frozen unoccupied orbitals:                  0
  Two-electron integral type:                 Conventional


  Computing Conventional Integrals	Presorting SO-basis two-electron integrals.
	Sorting File: SO Ints (nn|nn) nbuckets = 1
	Constructing frozen core operators
	Starting first half-transformation.
	Sorting half-transformed integrals.
	First half integral transformation complete.
	Starting second half-transformation.
	Two-electron integral transformation complete.

  Integral transformation done. 0.00891113 s
  Reading the two-electron integrals from disk
  Size of two-electron integrals:   0.008731 GB
  Timing for conventional integral transformation:            0.029 s.
  Timing for freezing core and virtual orbitals:              0.000 s.
  Timing for computing conventional integrals:                0.029 s.

                -----------------------------------------------
                  Complete Active Space Self Consistent Field
                                 Kevin Hannon
                -----------------------------------------------


  ==> CASSCF Iteration <==

  iter    ||g||           Delta_E            E_CASSCF       CONV_TYPE

  Transform Integrals takes 0.00456325 s.

  Performing a CAS with ACI

  ==> Summary of Active Space Solver Input <==

    Irrep.  Multi.(2ms)      N
    --------------------------
       A1      1  (  0)      2
    --------------------------
    N: number of roots
    ms: spin z component
    Total number of roots:   2
    --------------------------


--------------------------------------------------------------------------------
               Selected Configuration Interaction Excited States
  written by Jeffrey B. Schriber, Tianyuan Zhang, and Francesco A. Evangelista
--------------------------------------------------------------------------------

  ==> Calculation Information <==

  -----------------------------------------------------------------
    Multiplicity                             1    
    Symmetry                                 0    
    Number of roots                          2    
    Ms                                       0
    Excited Algorithm                        ROOT_ORTHOGONALIZE
  -----------------------------------------------------------------
  Using 1 thread(s)
  Computing wavefunction for root 0

        ---------------------------------------------------------------
                      Adaptive Configuration Interaction
          written by Jeffrey B. Schriber and Francesco A. Evangelista
        ---------------------------------------------------------------

  ==> Reference Information <==

  There are 1 frozen orbitals.
  There are 6 active orbitals.

  ==> Calculation Information <==

  -----------------------------------------------------------------
    Multiplicity                             1    
    Symmetry                                 0    
    Number of roots                          1    
    Root used for properties                 0    
    Roots used for averaging                 2    
    Root averaging offset                    0    
    Sigma (Eh)                               0.00e+00
    Gamma (Eh^(-1))                          1.00e+00
    Convergence threshold                    1.00e-09
    Ms                                       0
    Diagonalization algorithm                SPARSE
    Excited Algorithm                        ROOT_ORTHOGONALIZE
    Project out spin contaminants            True
    Enforce spin completeness of basis       True
    Enforce complete aimed selection         True
    Multiroot averaging                      Average
  -----------------------------------------------------------------
  Number of active orbitals: 6
  Number of active alpha electrons: 4
  Number of active beta electrons: 4

  ==> GAS Orbital Energies from SCF <==

    GAS        Energy  Index
    ------------------------
     1    -1.32060927      0
     1    -0.56393045      1
     1    -0.49500394      3
     1    -0.67872419      4
     2     0.20246590      2
     2     0.29271934      5
    ------------------------

  ==> Number of Electrons in GAS <==

    GAS  MAX  MIN
    -------------
      1    8    6
      2    2    0
    -------------

  ==> Possible Electron Occupations in GAS <==

    Config.  1_A  1_B  2_A  2_B
    ---------------------------
         1     4    4    0    0
         2     4    3    0    1
         3     4    2    0    2
         4     3    4    1    0
         5     3    3    1    1
         6     2    4    2    0
    ---------------------------
    n_A/B: # of alpha/beta electrons in GASn

  ==> Building GAS Determinants <==

    Config.  #Determinants     Time/s
    ---------------------------------
         1               1  1.081e-04
         2               3  1.248e-04
         3               2  1.270e-04
         4               3  1.166e-04
         5              20  1.545e-04
         6               2  1.190e-04
    ---------------------------------
    Total:              31  7.857e-04
    ---------------------------------


  ---------------------------------- Cycle 0 -----------------------------------

  ==> Diagonalizing the Hamiltonian in the P space <==

  Initial P space dimension: 31
  Spin-complete dimension of the P space: 31 determinants

  Davidson-Liu solver algorithm using SigmaVectorSparseList sigma algorithm

  Performing full diagonalization of the H matrix
  Found 18 roots with 2S+1 = 1 *
  Found 11 roots with 2S+1 = 3
  Found 2 roots with 2S+1 = 5
  Time spent diagonalizing H:   0.002175 s

    P-space  CI Energy Root   0        = -76.029683013020 Eh =   0.0000 eV, S^2 = 0.000000


  ==> Finding the Q space <==

  Using SR screening algorithm
  Time spent forming F space:             0.000628
  Time spent merging thread F spaces:             0.000014
  Size of F space: 0
  Time spent building sorting list: 0.000001
  Dimension of the PQ space:                  31
  Dimension of the PQ space (spin-complete) : 31
  Time spent building the model space: 0.000704

  ==> Diagonalizing the Hamiltonian in the P + Q space <==

  Number of reference roots: 1

  Davidson-Liu solver algorithm using SigmaVectorSparseList sigma algorithm

  Performing full diagonalization of the H matrix
  Found 18 roots with 2S+1 = 1 *
  Found 11 roots with 2S+1 = 3
  Found 2 roots with 2S+1 = 5
  Total time spent diagonalizing H:   0.002107 s

    PQ-space CI Energy Root   0        = -76.029683013020 Eh =   0.0000 eV, S^2 = 0.000000
    PQ-space CI Energy + EPT2 Root   0 = -76.029683013020 Eh =   0.0000 eV


  ==> GAS Contribution Analysis <==

  Root 0:
    Config.  1_A  1_B  2_A  2_B  Contribution
    -----------------------------------------
         1     4    4    0    0  99.14689344%
         2     4    3    0    1   0.03327792%
         3     4    2    0    2   0.03352426%
         4     3    4    1    0   0.03327792%
         5     3    3    1    1   0.71950219%
         6     2    4    2    0   0.03352426%
    -----------------------------------------
               GAS1      GAS2    Contribution
    -----------------------------------------
                  6         2     0.78655071%
                  7         1     0.06655584%
                  8         0    99.14689344%
    -----------------------------------------

  ==> Pruning the Q space <==

  Cycle 0 took: 0.005854 s


  ---------------------------------- Cycle 1 -----------------------------------

  ==> Diagonalizing the Hamiltonian in the P space <==

  Initial P space dimension: 31
  Spin-complete dimension of the P space: 31 determinants

  Davidson-Liu solver algorithm using SigmaVectorSparseList sigma algorithm

  Performing full diagonalization of the H matrix
  Found 18 roots with 2S+1 = 1 *
  Found 11 roots with 2S+1 = 3
  Found 2 roots with 2S+1 = 5
  Time spent diagonalizing H:   0.002662 s

    P-space  CI Energy Root   0        = -76.029683013020 Eh =   0.0000 eV, S^2 = 0.000000


  ==> Finding the Q space <==

  Using SR screening algorithm
  Time spent forming F space:             0.000852
  Time spent merging thread F spaces:             0.000010
  Size of F space: 0
  Time spent building sorting list: 0.000000
  Dimension of the PQ space:                  31
  Dimension of the PQ space (spin-complete) : 31
  Time spent building the model space: 0.000933

  ==> Diagonalizing the Hamiltonian in the P + Q space <==

  Number of reference roots: 1

  Davidson-Liu solver algorithm using SigmaVectorSparseList sigma algorithm

  Performing full diagonalization of the H matrix
  Found 18 roots with 2S+1 = 1 *
  Found 11 roots with 2S+1 = 3
  Found 2 roots with 2S+1 = 5
  Total time spent diagonalizing H:   0.002607 s

    PQ-space CI Energy Root   0        = -76.029683013020 Eh =   0.0000 eV, S^2 = 0.000000
    PQ-space CI Energy + EPT2 Root   0 = -76.029683013020 Eh =   0.0000 eV


  ==> GAS Contribution Analysis <==

  Root 0:
    Config.  1_A  1_B  2_A  2_B  Contribution
    -----------------------------------------
         1     4    4    0    0  99.14689344%
         2     4    3    0    1   0.03327792%
         3     4    2    0    2   0.03352426%
         4     3    4    1    0   0.03327792%
         5     3    3    1    1   0.71950219%
         6     2    4    2    0   0.03352426%
    -----------------------------------------
               GAS1      GAS2    Contribution
    -----------------------------------------
                  6         2     0.78655071%
                  7         1     0.06655584%
                  8         0    99.14689344%
    -----------------------------------------
  ***** Calculation Converged *****

  ==> ACI Natural Orbitals <==

        1B1     1.999783      1A1     1.999639      2A1     1.993312  
        1B2     1.991424      2B2     0.008564      3A1     0.007278  
  Saving root 0, ref_root is 0
  Number of old roots: 1
  Computing wavefunction for root 1

        ---------------------------------------------------------------
                      Adaptive Configuration Interaction
          written by Jeffrey B. Schriber and Francesco A. Evangelista
        ---------------------------------------------------------------

  ==> Reference Information <==

  There are 1 frozen orbitals.
  There are 6 active orbitals.

  ==> Calculation Information <==

  -----------------------------------------------------------------
    Multiplicity                             1    
    Symmetry                                 0    
    Number of roots                          2    
    Root used for properties                 1    
    Roots used for averaging                 2    
    Root averaging offset                    0    
    Sigma (Eh)                               0.00e+00
    Gamma (Eh^(-1))                          1.00e+00
    Convergence threshold                    1.00e-09
    Ms                                       0
    Diagonalization algorithm                SPARSE
    Excited Algorithm                        ROOT_ORTHOGONALIZE
    Project out spin contaminants            True
    Enforce spin completeness of basis       True
    Enforce complete aimed selection         True
    Multiroot averaging                      Average
  -----------------------------------------------------------------
  Number of active orbitals: 6
  Number of active alpha electrons: 4
  Number of active beta electrons: 4

  ==> GAS Orbital Energies from SCF <==

    GAS        Energy  Index
    ------------------------
     1    -1.32060927      0
     1    -0.56393045      1
     1    -0.49500394      3
     1    -0.67872419      4
     2     0.20246590      2
     2     0.29271934      5
    ------------------------

  ==> Number of Electrons in GAS <==

    GAS  MAX  MIN
    -------------
      1    8    6
      2    2    0
    -------------

  ==> Possible Electron Occupations in GAS <==

    Config.  1_A  1_B  2_A  2_B
    ---------------------------
         1     4    4    0    0
         2     4    3    0    1
         3     4    2    0    2
         4     3    4    1    0
         5     3    3    1    1
         6     2    4    2    0
    ---------------------------
    n_A/B: # of alpha/beta electrons in GASn

  ==> Building GAS Determinants <==

    Config.  #Determinants     Time/s
    ---------------------------------
         1               1  9.471e-05
         2               3  1.230e-04
         3               2  1.260e-04
         4               3  1.250e-04
         5              20  1.627e-04
         6               2  1.203e-04
    ---------------------------------
    Total:              31  7.982e-04
    ---------------------------------


  ---------------------------------- Cycle 0 -----------------------------------

  ==> Diagonalizing the Hamiltonian in the P space <==

  Initial P space dimension: 31
  Spin-complete dimension of the P space: 31 determinants
  Added 31 determinants from root 0

  Davidson-Liu solver algorithm using SigmaVectorSparseList sigma algorithm

  Performing full diagonalization of the H matrix
  Found 18 roots with 2S+1 = 1 *
  Found 11 roots with 2S+1 = 3
  Found 2 roots with 2S+1 = 5
  Time spent diagonalizing H:   0.002126 s

    P-space  CI Energy Root   0        = -75.600854412182 Eh =   0.0000 eV, S^2 = 0.000000
    P-space  CI Energy Root   1        = -75.332691232934 Eh =   7.2971 eV, S^2 = 0.000000


  ==> Finding the Q space <==

  Using AVERAGE screening algorithm
  Using 1 threads.
  Size of F space: 0
  Time spent building sorting list: 0.000001
  Dimension of the PQ space:                  31
  Dimension of the PQ space (spin-complete) : 31
  Added 31 determinants from root 0
  Time spent building the model space: 0.000892

  ==> Diagonalizing the Hamiltonian in the P + Q space <==

  Number of reference roots: 2

  Davidson-Liu solver algorithm using SigmaVectorSparseList sigma algorithm

  Performing full diagonalization of the H matrix
  Found 18 roots with 2S+1 = 1 *
  Found 11 roots with 2S+1 = 3
  Found 2 roots with 2S+1 = 5
  Total time spent diagonalizing H:   0.002639 s

    PQ-space CI Energy Root   0        = -75.600854412182 Eh =   0.0000 eV, S^2 = 0.000000
    PQ-space CI Energy + EPT2 Root   0 = -75.600854412182 Eh =   0.0000 eV
    PQ-space CI Energy Root   1        = -75.332691232934 Eh =   7.2971 eV, S^2 = 0.000000
    PQ-space CI Energy + EPT2 Root   1 = -75.332691232934 Eh =   7.2971 eV


  Computing overlap for root 0
 Root 0 has overlap 0.000000
  Saving reference for root 0

  Computing overlap for root 1
 Root 1 has overlap 1.000000
  Saving reference for root 1
  Setting reference root to: 1

  ==> GAS Contribution Analysis <==

  Root 0:
    Config.  1_A  1_B  2_A  2_B  Contribution
    -----------------------------------------
         1     4    4    0    0   0.06211137%
         2     4    3    0    1  47.85121439%
         3     4    2    0    2   0.27764548%
         4     3    4    1    0  47.85121439%
         5     3    3    1    1   3.68016889%
         6     2    4    2    0   0.27764548%
    -----------------------------------------
               GAS1      GAS2    Contribution
    -----------------------------------------
                  6         2     4.23545985%
                  7         1    95.70242877%
                  8         0     0.06211137%
    -----------------------------------------
  Root 1:
    Config.  1_A  1_B  2_A  2_B  Contribution
    -----------------------------------------
         1     4    4    0    0   0.11517380%
         2     4    3    0    1  47.88924925%
         3     4    2    0    2   0.15974700%
         4     3    4    1    0  47.88924925%
         5     3    3    1    1   3.78683371%
         6     2    4    2    0   0.15974700%
    -----------------------------------------
               GAS1      GAS2    Contribution
    -----------------------------------------
                  6         2     4.10632770%
                  7         1    95.77849850%
                  8         0     0.11517380%
    -----------------------------------------

  ==> Pruning the Q space <==

  Cycle 0 took: 0.006963 s


  ---------------------------------- Cycle 1 -----------------------------------

  ==> Diagonalizing the Hamiltonian in the P space <==

  Initial P space dimension: 31
  Spin-complete dimension of the P space: 31 determinants
  Added 31 determinants from root 0

  Davidson-Liu solver algorithm using SigmaVectorSparseList sigma algorithm

  Performing full diagonalization of the H matrix
  Found 18 roots with 2S+1 = 1 *
  Found 11 roots with 2S+1 = 3
  Found 2 roots with 2S+1 = 5
  Time spent diagonalizing H:   0.002127 s

  Computing overlap for root 0
 Root 0 has overlap 0.000000
  Saving reference for root 0

  Computing overlap for root 1
 Root 1 has overlap 1.000000
  Saving reference for root 1
  Setting reference root to: 1

    P-space  CI Energy Root   0        = -75.600854412182 Eh =   0.0000 eV, S^2 = 0.000000
    P-space  CI Energy Root   1        = -75.332691232934 Eh =   7.2971 eV, S^2 = 0.000000


  ==> Finding the Q space <==

  Using AVERAGE screening algorithm
  Using 1 threads.
  Size of F space: 0
  Time spent building sorting list: 0.000001
  Dimension of the PQ space:                  31
  Dimension of the PQ space (spin-complete) : 31
  Added 31 determinants from root 0
  Time spent building the model space: 0.000883

  ==> Diagonalizing the Hamiltonian in the P + Q space <==

  Number of reference roots: 2

  Davidson-Liu solver algorithm using SigmaVectorSparseList sigma algorithm

  Performing full diagonalization of the H matrix
  Found 18 roots with 2S+1 = 1 *
  Found 11 roots with 2S+1 = 3
  Found 2 roots with 2S+1 = 5
  Total time spent diagonalizing H:   0.002622 s

    PQ-space CI Energy Root   0        = -75.600854412182 Eh =   0.0000 eV, S^2 = 0.000000
    PQ-space CI Energy + EPT2 Root   0 = -75.600854412182 Eh =   0.0000 eV
    PQ-space CI Energy Root   1        = -75.332691232934 Eh =   7.2971 eV, S^2 = 0.000000
    PQ-space CI Energy + EPT2 Root   1 = -75.332691232934 Eh =   7.2971 eV


  Computing overlap for root 0
 Root 0 has overlap 0.000000
  Saving reference for root 0

  Computing overlap for root 1
 Root 1 has overlap 1.000000
  Saving reference for root 1
  Setting reference root to: 1

  ==> GAS Contribution Analysis <==

  Root 0:
    Config.  1_A  1_B  2_A  2_B  Contribution
    -----------------------------------------
         1     4    4    0    0   0.06211137%
         2     4    3    0    1  47.85121439%
         3     4    2    0    2   0.27764548%
         4     3    4    1    0  47.85121439%
         5     3    3    1    1   3.68016889%
         6     2    4    2    0   0.27764548%
    -----------------------------------------
               GAS1      GAS2    Contribution
    -----------------------------------------
                  6         2     4.23545985%
                  7         1    95.70242877%
                  8         0     0.06211137%
    -----------------------------------------
  Root 1:
    Config.  1_A  1_B  2_A  2_B  Contribution
    -----------------------------------------
         1     4    4    0    0   0.11517380%
         2     4    3    0    1  47.88924925%
         3     4    2    0    2   0.15974700%
         4     3    4    1    0  47.88924925%
         5     3    3    1    1   3.78683371%
         6     2    4    2    0   0.15974700%
    -----------------------------------------
               GAS1      GAS2    Contribution
    -----------------------------------------
                  6         2     4.10632770%
                  7         1    95.77849850%
                  8         0     0.11517380%
    -----------------------------------------

  ==> Pruning the Q space <==

  Cycle 1 took: 0.006992 s


  ---------------------------------- Cycle 2 -----------------------------------

  ==> Diagonalizing the Hamiltonian in the P space <==

  Initial P space dimension: 31
  Spin-complete dimension of the P space: 31 determinants
  Added 31 determinants from root 0

  Davidson-Liu solver algorithm using SigmaVectorSparseList sigma algorithm

  Performing full diagonalization of the H matrix
  Found 18 roots with 2S+1 = 1 *
  Found 11 roots with 2S+1 = 3
  Found 2 roots with 2S+1 = 5
  Time spent diagonalizing H:   0.002164 s

  Computing overlap for root 0
 Root 0 has overlap 0.000000
  Saving reference for root 0

  Computing overlap for root 1
 Root 1 has overlap 1.000000
  Saving reference for root 1
  Setting reference root to: 1

    P-space  CI Energy Root   0        = -75.600854412182 Eh =   0.0000 eV, S^2 = 0.000000
    P-space  CI Energy Root   1        = -75.332691232934 Eh =   7.2971 eV, S^2 = 0.000000


  ==> Finding the Q space <==

  Using AVERAGE screening algorithm
  Using 1 threads.
  Size of F space: 0
  Time spent building sorting list: 0.000000
  Dimension of the PQ space:                  31
  Dimension of the PQ space (spin-complete) : 31
  Added 31 determinants from root 0
  Time spent building the model space: 0.000660

  ==> Diagonalizing the Hamiltonian in the P + Q space <==

  Number of reference roots: 2

  Davidson-Liu solver algorithm using SigmaVectorSparseList sigma algorithm

  Performing full diagonalization of the H matrix
  Found 18 roots with 2S+1 = 1 *
  Found 11 roots with 2S+1 = 3
  Found 2 roots with 2S+1 = 5
  Total time spent diagonalizing H:   0.002092 s

    PQ-space CI Energy Root   0        = -75.600854412182 Eh =   0.0000 eV, S^2 = 0.000000
    PQ-space CI Energy + EPT2 Root   0 = -75.600854412182 Eh =   0.0000 eV
    PQ-space CI Energy Root   1        = -75.332691232934 Eh =   7.2971 eV, S^2 = 0.000000
    PQ-space CI Energy + EPT2 Root   1 = -75.332691232934 Eh =   7.2971 eV


  Computing overlap for root 0
 Root 0 has overlap 0.000000
  Saving reference for root 0

  Computing overlap for root 1
 Root 1 has overlap 1.000000
  Saving reference for root 1
  Setting reference root to: 1

  ==> GAS Contribution Analysis <==

  Root 0:
    Config.  1_A  1_B  2_A  2_B  Contribution
    -----------------------------------------
         1     4    4    0    0   0.06211137%
         2     4    3    0    1  47.85121439%
         3     4    2    0    2   0.27764548%
         4     3    4    1    0  47.85121439%
         5     3    3    1    1   3.68016889%
         6     2    4    2    0   0.27764548%
    -----------------------------------------
               GAS1      GAS2    Contribution
    -----------------------------------------
                  6         2     4.23545985%
                  7         1    95.70242877%
                  8         0     0.06211137%
    -----------------------------------------
  Root 1:
    Config.  1_A  1_B  2_A  2_B  Contribution
    -----------------------------------------
         1     4    4    0    0   0.11517380%
         2     4    3    0    1  47.88924925%
         3     4    2    0    2   0.15974700%
         4     3    4    1    0  47.88924925%
         5     3    3    1    1   3.78683371%
         6     2    4    2    0   0.15974700%
    -----------------------------------------
               GAS1      GAS2    Contribution
    -----------------------------------------
                  6         2     4.10632770%
                  7         1    95.77849850%
                  8         0     0.11517380%
    -----------------------------------------

  ==> Pruning the Q space <==

  Cycle 2 took: 0.006125 s


  ---------------------------------- Cycle 3 -----------------------------------

  ==> Diagonalizing the Hamiltonian in the P space <==

  Initial P space dimension: 31
  Spin-complete dimension of the P space: 31 determinants
  Added 31 determinants from root 0

  Davidson-Liu solver algorithm using SigmaVectorSparseList sigma algorithm

  Performing full diagonalization of the H matrix
  Found 18 roots with 2S+1 = 1 *
  Found 11 roots with 2S+1 = 3
  Found 2 roots with 2S+1 = 5
  Time spent diagonalizing H:   0.002121 s

  Computing overlap for root 0
 Root 0 has overlap 0.000000
  Saving reference for root 0

  Computing overlap for root 1
 Root 1 has overlap 1.000000
  Saving reference for root 1
  Setting reference root to: 1

    P-space  CI Energy Root   0        = -75.600854412182 Eh =   0.0000 eV, S^2 = 0.000000
    P-space  CI Energy Root   1        = -75.332691232934 Eh =   7.2971 eV, S^2 = 0.000000


  ==> Finding the Q space <==

  Using AVERAGE screening algorithm
  Using 1 threads.
  Size of F space: 0
  Time spent building sorting list: 0.000000
  Dimension of the PQ space:                  31
  Dimension of the PQ space (spin-complete) : 31
  Added 31 determinants from root 0
  Time spent building the model space: 0.000653

  ==> Diagonalizing the Hamiltonian in the P + Q space <==

  Number of reference roots: 2

  Davidson-Liu solver algorithm using SigmaVectorSparseList sigma algorithm

  Performing full diagonalization of the H matrix
  Found 18 roots with 2S+1 = 1 *
  Found 11 roots with 2S+1 = 3
  Found 2 roots with 2S+1 = 5
  Total time spent diagonalizing H:   0.002124 s

    PQ-space CI Energy Root   0        = -75.600854412182 Eh =   0.0000 eV, S^2 = 0.000000
    PQ-space CI Energy + EPT2 Root   0 = -75.600854412182 Eh =   0.0000 eV
    PQ-space CI Energy Root   1        = -75.332691232934 Eh =   7.2971 eV, S^2 = 0.000000
    PQ-space CI Energy + EPT2 Root   1 = -75.332691232934 Eh =   7.2971 eV


  Computing overlap for root 0
 Root 0 has overlap 0.000000
  Saving reference for root 0

  Computing overlap for root 1
 Root 1 has overlap 1.000000
  Saving reference for root 1
  Setting reference root to: 1

  ==> GAS Contribution Analysis <==

  Root 0:
    Config.  1_A  1_B  2_A  2_B  Contribution
    -----------------------------------------
         1     4    4    0    0   0.06211137%
         2     4    3    0    1  47.85121439%
         3     4    2    0    2   0.27764548%
         4     3    4    1    0  47.85121439%
         5     3    3    1    1   3.68016889%
         6     2    4    2    0   0.27764548%
    -----------------------------------------
               GAS1      GAS2    Contribution
    -----------------------------------------
                  6         2     4.23545985%
                  7         1    95.70242877%
                  8         0     0.06211137%
    -----------------------------------------
  Root 1:
    Config.  1_A  1_B  2_A  2_B  Contribution
    -----------------------------------------
         1     4    4    0    0   0.11517380%
         2     4    3    0    1  47.88924925%
         3     4    2    0    2   0.15974700%
         4     3    4    1    0  47.88924925%
         5     3    3    1    1   3.78683371%
         6     2    4    2    0   0.15974700%
    -----------------------------------------
               GAS1      GAS2    Contribution
    -----------------------------------------
                  6         2     4.10632770%
                  7         1    95.77849850%
                  8         0     0.11517380%
    -----------------------------------------

  ==> Pruning the Q space <==

  Cycle 3 took: 0.006104 s


  ---------------------------------- Cycle 4 -----------------------------------

  ==> Diagonalizing the Hamiltonian in the P space <==

  Initial P space dimension: 31
  Spin-complete dimension of the P space: 31 determinants
  Added 31 determinants from root 0

  Davidson-Liu solver algorithm using SigmaVectorSparseList sigma algorithm

  Performing full diagonalization of the H matrix
  Found 18 roots with 2S+1 = 1 *
  Found 11 roots with 2S+1 = 3
  Found 2 roots with 2S+1 = 5
  Time spent diagonalizing H:   0.002076 s

  Computing overlap for root 0
 Root 0 has overlap 0.000000
  Saving reference for root 0

  Computing overlap for root 1
 Root 1 has overlap 1.000000
  Saving reference for root 1
  Setting reference root to: 1

    P-space  CI Energy Root   0        = -75.600854412182 Eh =   0.0000 eV, S^2 = 0.000000
    P-space  CI Energy Root   1        = -75.332691232934 Eh =   7.2971 eV, S^2 = 0.000000


  ==> Finding the Q space <==

  Using AVERAGE screening algorithm
  Using 1 threads.
  Size of F space: 0
  Time spent building sorting list: 0.000001
  Dimension of the PQ space:                  31
  Dimension of the PQ space (spin-complete) : 31
  Added 31 determinants from root 0
  Time spent building the model space: 0.000912

  ==> Diagonalizing the Hamiltonian in the P + Q space <==

  Number of reference roots: 2

  Davidson-Liu solver algorithm using SigmaVectorSparseList sigma algorithm

  Performing full diagonalization of the H matrix
  Found 18 roots with 2S+1 = 1 *
  Found 11 roots with 2S+1 = 3
  Found 2 roots with 2S+1 = 5
  Total time spent diagonalizing H:   0.002284 s

    PQ-space CI Energy Root   0        = -75.600854412182 Eh =   0.0000 eV, S^2 = 0.000000
    PQ-space CI Energy + EPT2 Root   0 = -75.600854412182 Eh =   0.0000 eV
    PQ-space CI Energy Root   1        = -75.332691232934 Eh =   7.2971 eV, S^2 = 0.000000
    PQ-space CI Energy + EPT2 Root   1 = -75.332691232934 Eh =   7.2971 eV


  Computing overlap for root 0
 Root 0 has overlap 0.000000
  Saving reference for root 0

  Computing overlap for root 1
 Root 1 has overlap 1.000000
  Saving reference for root 1
  Setting reference root to: 1

  ==> GAS Contribution Analysis <==

  Root 0:
    Config.  1_A  1_B  2_A  2_B  Contribution
    -----------------------------------------
         1     4    4    0    0   0.06211137%
         2     4    3    0    1  47.85121439%
         3     4    2    0    2   0.27764548%
         4     3    4    1    0  47.85121439%
         5     3    3    1    1   3.68016889%
         6     2    4    2    0   0.27764548%
    -----------------------------------------
               GAS1      GAS2    Contribution
    -----------------------------------------
                  6         2     4.23545985%
                  7         1    95.70242877%
                  8         0     0.06211137%
    -----------------------------------------
  Root 1:
    Config.  1_A  1_B  2_A  2_B  Contribution
    -----------------------------------------
         1     4    4    0    0   0.11517380%
         2     4    3    0    1  47.88924925%
         3     4    2    0    2   0.15974700%
         4     3    4    1    0  47.88924925%
         5     3    3    1    1   3.78683371%
         6     2    4    2    0   0.15974700%
    -----------------------------------------
               GAS1      GAS2    Contribution
    -----------------------------------------
                  6         2     4.10632770%
                  7         1    95.77849850%
                  8         0     0.11517380%
    -----------------------------------------

  ==> Pruning the Q space <==

  Cycle 4 took: 0.006557 s


  ---------------------------------- Cycle 5 -----------------------------------

  ==> Diagonalizing the Hamiltonian in the P space <==

  Initial P space dimension: 31
  Spin-complete dimension of the P space: 31 determinants
  Added 31 determinants from root 0

  Davidson-Liu solver algorithm using SigmaVectorSparseList sigma algorithm

  Performing full diagonalization of the H matrix
  Found 18 roots with 2S+1 = 1 *
  Found 11 roots with 2S+1 = 3
  Found 2 roots with 2S+1 = 5
  Time spent diagonalizing H:   0.002094 s

  Computing overlap for root 0
 Root 0 has overlap 0.000000
  Saving reference for root 0

  Computing overlap for root 1
 Root 1 has overlap 1.000000
  Saving reference for root 1
  Setting reference root to: 1

    P-space  CI Energy Root   0        = -75.600854412182 Eh =   0.0000 eV, S^2 = 0.000000
    P-space  CI Energy Root   1        = -75.332691232934 Eh =   7.2971 eV, S^2 = 0.000000


  ==> Finding the Q space <==

  Using AVERAGE screening algorithm
  Using 1 threads.
  Size of F space: 0
  Time spent building sorting list: 0.000001
  Dimension of the PQ space:                  31
  Dimension of the PQ space (spin-complete) : 31
  Added 31 determinants from root 0
  Time spent building the model space: 0.000891

  ==> Diagonalizing the Hamiltonian in the P + Q space <==

  Number of reference roots: 2

  Davidson-Liu solver algorithm using SigmaVectorSparseList sigma algorithm

  Performing full diagonalization of the H matrix
  Found 18 roots with 2S+1 = 1 *
  Found 11 roots with 2S+1 = 3
  Found 2 roots with 2S+1 = 5
  Total time spent diagonalizing H:   0.002570 s

    PQ-space CI Energy Root   0        = -75.600854412182 Eh =   0.0000 eV, S^2 = 0.000000
    PQ-space CI Energy + EPT2 Root   0 = -75.600854412182 Eh =   0.0000 eV
    PQ-space CI Energy Root   1        = -75.332691232934 Eh =   7.2971 eV, S^2 = 0.000000
    PQ-space CI Energy + EPT2 Root   1 = -75.332691232934 Eh =   7.2971 eV


  Computing overlap for root 0
 Root 0 has overlap 0.000000
  Saving reference for root 0

  Computing overlap for root 1
 Root 1 has overlap 1.000000
  Saving reference for root 1
  Setting reference root to: 1

  ==> GAS Contribution Analysis <==

  Root 0:
    Config.  1_A  1_B  2_A  2_B  Contribution
    -----------------------------------------
         1     4    4    0    0   0.06211137%
         2     4    3    0    1  47.85121439%
         3     4    2    0    2   0.27764548%
         4     3    4    1    0  47.85121439%
         5     3    3    1    1   3.68016889%
         6     2    4    2    0   0.27764548%
    -----------------------------------------
               GAS1      GAS2    Contribution
    -----------------------------------------
                  6         2     4.23545985%
                  7         1    95.70242877%
                  8         0     0.06211137%
    -----------------------------------------
  Root 1:
    Config.  1_A  1_B  2_A  2_B  Contribution
    -----------------------------------------
         1     4    4    0    0   0.11517380%
         2     4    3    0    1  47.88924925%
         3     4    2    0    2   0.15974700%
         4     3    4    1    0  47.88924925%
         5     3    3    1    1   3.78683371%
         6     2    4    2    0   0.15974700%
    -----------------------------------------
               GAS1      GAS2    Contribution
    -----------------------------------------
                  6         2     4.10632770%
                  7         1    95.77849850%
                  8         0     0.11517380%
    -----------------------------------------
  Procedure is stuck! Quitting...

  ==> ACI Natural Orbitals <==

        1B1     1.999947      1A1     1.998886      1B2     1.969547  
        2A1     1.184882      3A1     0.813480      2B2     0.033258  
  Saving root 1, ref_root is 1
  Number of old roots: 2

  ==> Excited state solver summary <==

  Iterations required:                         5
  Dimension of optimized determinant space:    31

  * Selected-CI Energy Root   0        = -76.029683013020 Eh =   0.0000 eV
  * Selected-CI Energy Root   0 + EPT2 = -76.029683013020 Eh =   0.0000 eV
  * Selected-CI Energy Root   1        = -75.600854412182 Eh =  11.6690 eV
  * Selected-CI Energy Root   1 + EPT2 = -75.600854412182 Eh =  11.6690 eV

  Saving information for root: 1

  ==> Energy Summary <==

    Multi.(2ms)  Irrep.  No.               Energy      <S^2>
    --------------------------------------------------------
       1  (  0)    A1     0      -76.029683013020   0.000000
       1  (  0)    A1     1      -75.600854412182   0.000000
    --------------------------------------------------------

  ==> Dipole Moments [e a0] (Nuclear + Electronic) for Singlet (Ms = 0) A1 <==

  1-RDM  took 0.000604 s (determinant)
  1-RDM  took 0.000570 s (determinant)
       State           DM_X           DM_Y           DM_Z           |DM|
    --------------------------------------------------------------------
         0A1     0.00000000    -0.00000000    -0.32576627     0.32576627
         1A1     0.00000000     0.00000000     0.25748048     0.25748048
    --------------------------------------------------------------------
     Nuclear     0.00000000     0.00000000     1.03508051     1.03508051
    --------------------------------------------------------------------

  ==> Quadrupole Moments [e a0^2] (Nuclear + Electronic) for Singlet (Ms = 0) A1 <==

  1-RDM  took 0.000555 s (determinant)
  1-RDM  took 0.000563 s (determinant)
       State          QM_XX          QM_XY          QM_XZ          QM_YY          QM_YZ          QM_ZZ
    --------------------------------------------------------------------------------------------------
         0A1    -6.53951285     0.00000000     0.00000000    -6.79435968    -0.00000000    -6.29127587
         1A1    -6.26267047     0.00000000     0.00000000    -6.57412643    -0.00000000    -6.38123707
    --------------------------------------------------------------------------------------------------
     Nuclear     0.00000000     0.00000000     0.00000000     4.38045134     0.00000000     2.31648182
    --------------------------------------------------------------------------------------------------
  1-RDM  took 0.000547 s (determinant)
  2-RDMS took 0.001265 s (determinant)
  1-RDM  took 0.000563 s (determinant)
  2-RDMS took 0.001385 s (determinant)

 CAS took 0.064411 seconds.

 FormFockIntermediates took 0.00096667 s.

 FormOrbitalGradient took 0.00022121 s.

 FormDiagHessian took 0.00009137 s.

 Update function takes 0.00130862 s
    1 0.035493783062   -75.815268712601   -75.815268712601    0.1 s       ~

  Transform Integrals takes 0.00427833 s.

  Performing a CAS with ACI

  ==> Summary of Active Space Solver Input <==

    Irrep.  Multi.(2ms)      N
    --------------------------
       A1      1  (  0)      2
    --------------------------
    N: number of roots
    ms: spin z component
    Total number of roots:   2
    --------------------------


--------------------------------------------------------------------------------
               Selected Configuration Interaction Excited States
  written by Jeffrey B. Schriber, Tianyuan Zhang, and Francesco A. Evangelista
--------------------------------------------------------------------------------

  ==> Calculation Information <==

  -----------------------------------------------------------------
    Multiplicity                             1    
    Symmetry                                 0    
    Number of roots                          2    
    Ms                                       0
    Excited Algorithm                        ROOT_ORTHOGONALIZE
  -----------------------------------------------------------------
  Using 1 thread(s)
  Computing wavefunction for root 0

        ---------------------------------------------------------------
                      Adaptive Configuration Interaction
          written by Jeffrey B. Schriber and Francesco A. Evangelista
        ---------------------------------------------------------------

  ==> Reference Information <==

  There are 1 frozen orbitals.
  There are 6 active orbitals.

  ==> Calculation Information <==

  -----------------------------------------------------------------
    Multiplicity                             1    
    Symmetry                                 0    
    Number of roots                          1    
    Root used for properties                 0    
    Roots used for averaging                 2    
    Root averaging offset                    0    
    Sigma (Eh)                               0.00e+00
    Gamma (Eh^(-1))                          1.00e+00
    Convergence threshold                    1.00e-09
    Ms                                       0
    Diagonalization algorithm                SPARSE
    Excited Algorithm                        ROOT_ORTHOGONALIZE
    Project out spin contaminants            True
    Enforce spin completeness of basis       True
    Enforce complete aimed selection         True
    Multiroot averaging                      Average
  -----------------------------------------------------------------
  Number of active orbitals: 6
  Number of active alpha electrons: 4
  Number of active beta electrons: 4

  ==> GAS Orbital Energies from SCF <==

    GAS        Energy  Index
    ------------------------
     1    -1.32060927      0
     1    -0.56393045      1
     1    -0.49500394      3
     1    -0.67872419      4
     2     0.20246590      2
     2     0.29271934      5
    ------------------------

  ==> Number of Electrons in GAS <==

    GAS  MAX  MIN
    -------------
      1    8    6
      2    2    0
    -------------

  ==> Possible Electron Occupations in GAS <==

    Config.  1_A  1_B  2_A  2_B
    ---------------------------
         1     4    4    0    0
         2     4    3    0    1
         3     4    2    0    2
         4     3    4    1    0
         5     3    3    1    1
         6     2    4    2    0
    ---------------------------
    n_A/B: # of alpha/beta electrons in GASn

  ==> Building GAS Determinants <==

    Config.  #Determinants     Time/s
    ---------------------------------
         1               1  9.925e-05
         2               3  1.232e-04
         3               2  1.260e-04
         4               3  1.154e-04
         5              20  1.492e-04
         6               2  1.192e-04
    ---------------------------------
    Total:              31  7.719e-04
    ---------------------------------


  ---------------------------------- Cycle 0 -----------------------------------

  ==> Diagonalizing the Hamiltonian in the P space <==

  Initial P space dimension: 31
  Spin-complete dimension of the P space: 31 determinants

  Davidson-Liu solver algorithm using SigmaVectorSparseList sigma algorithm

  Performing full diagonalization of the H matrix
  Found 18 roots with 2S+1 = 1 *
  Found 11 roots with 2S+1 = 3
  Found 2 roots with 2S+1 = 5
  Time spent diagonalizing H:   0.002141 s

    P-space  CI Energy Root   0        = -76.016301671091 Eh =   0.0000 eV, S^2 = 0.000000


  ==> Finding the Q space <==

  Using SR screening algorithm
  Time spent forming F space:             0.000632
  Time spent merging thread F spaces:             0.000009
  Size of F space: 0
  Time spent building sorting list: 0.000000
  Dimension of the PQ space:                  31
  Dimension of the PQ space (spin-complete) : 31
  Time spent building the model space: 0.000701

  ==> Diagonalizing the Hamiltonian in the P + Q space <==

  Number of reference roots: 1

  Davidson-Liu solver algorithm using SigmaVectorSparseList sigma algorithm

  Performing full diagonalization of the H matrix
  Found 18 roots with 2S+1 = 1 *
  Found 11 roots with 2S+1 = 3
  Found 2 roots with 2S+1 = 5
  Total time spent diagonalizing H:   0.002085 s

    PQ-space CI Energy Root   0        = -76.016301671091 Eh =   0.0000 eV, S^2 = 0.000000
    PQ-space CI Energy + EPT2 Root   0 = -76.016301671091 Eh =   0.0000 eV


  ==> GAS Contribution Analysis <==

  Root 0:
    Config.  1_A  1_B  2_A  2_B  Contribution
    -----------------------------------------
         1     4    4    0    0  98.12515411%
         2     4    3    0    1   0.33551628%
         3     4    2    0    2   0.04722762%
         4     3    4    1    0   0.33551628%
         5     3    3    1    1   1.10935809%
         6     2    4    2    0   0.04722762%
    -----------------------------------------
               GAS1      GAS2    Contribution
    -----------------------------------------
                  6         2     1.20381332%
                  7         1     0.67103257%
                  8         0    98.12515411%
    -----------------------------------------

  ==> Pruning the Q space <==

  Cycle 0 took: 0.005827 s


  ---------------------------------- Cycle 1 -----------------------------------

  ==> Diagonalizing the Hamiltonian in the P space <==

  Initial P space dimension: 31
  Spin-complete dimension of the P space: 31 determinants

  Davidson-Liu solver algorithm using SigmaVectorSparseList sigma algorithm

  Performing full diagonalization of the H matrix
  Found 18 roots with 2S+1 = 1 *
  Found 11 roots with 2S+1 = 3
  Found 2 roots with 2S+1 = 5
  Time spent diagonalizing H:   0.002759 s

    P-space  CI Energy Root   0        = -76.016301671091 Eh =   0.0000 eV, S^2 = 0.000000


  ==> Finding the Q space <==

  Using SR screening algorithm
  Time spent forming F space:             0.000941
  Time spent merging thread F spaces:             0.000012
  Size of F space: 0
  Time spent building sorting list: 0.000001
  Dimension of the PQ space:                  31
  Dimension of the PQ space (spin-complete) : 31
  Time spent building the model space: 0.001030

  ==> Diagonalizing the Hamiltonian in the P + Q space <==

  Number of reference roots: 1

  Davidson-Liu solver algorithm using SigmaVectorSparseList sigma algorithm

  Performing full diagonalization of the H matrix
  Found 18 roots with 2S+1 = 1 *
  Found 11 roots with 2S+1 = 3
  Found 2 roots with 2S+1 = 5
  Total time spent diagonalizing H:   0.002882 s

    PQ-space CI Energy Root   0        = -76.016301671091 Eh =   0.0000 eV, S^2 = 0.000000
    PQ-space CI Energy + EPT2 Root   0 = -76.016301671091 Eh =   0.0000 eV


  ==> GAS Contribution Analysis <==

  Root 0:
    Config.  1_A  1_B  2_A  2_B  Contribution
    -----------------------------------------
         1     4    4    0    0  98.12515411%
         2     4    3    0    1   0.33551628%
         3     4    2    0    2   0.04722762%
         4     3    4    1    0   0.33551628%
         5     3    3    1    1   1.10935809%
         6     2    4    2    0   0.04722762%
    -----------------------------------------
               GAS1      GAS2    Contribution
    -----------------------------------------
                  6         2     1.20381332%
                  7         1     0.67103257%
                  8         0    98.12515411%
    -----------------------------------------
  ***** Calculation Converged *****

  ==> ACI Natural Orbitals <==

        1B1     1.999566      1A1     1.999442      2A1     1.988837  
        1B2     1.986633      2B2     0.013188      3A1     0.012334  
  Saving root 0, ref_root is 0
  Number of old roots: 1
  Computing wavefunction for root 1

        ---------------------------------------------------------------
                      Adaptive Configuration Interaction
          written by Jeffrey B. Schriber and Francesco A. Evangelista
        ---------------------------------------------------------------

  ==> Reference Information <==

  There are 1 frozen orbitals.
  There are 6 active orbitals.

  ==> Calculation Information <==

  -----------------------------------------------------------------
    Multiplicity                             1    
    Symmetry                                 0    
    Number of roots                          2    
    Root used for properties                 1    
    Roots used for averaging                 2    
    Root averaging offset                    0    
    Sigma (Eh)                               0.00e+00
    Gamma (Eh^(-1))                          1.00e+00
    Convergence threshold                    1.00e-09
    Ms                                       0
    Diagonalization algorithm                SPARSE
    Excited Algorithm                        ROOT_ORTHOGONALIZE
    Project out spin contaminants            True
    Enforce spin completeness of basis       True
    Enforce complete aimed selection         True
    Multiroot averaging                      Average
  -----------------------------------------------------------------
  Number of active orbitals: 6
  Number of active alpha electrons: 4
  Number of active beta electrons: 4

  ==> GAS Orbital Energies from SCF <==

    GAS        Energy  Index
    ------------------------
     1    -1.32060927      0
     1    -0.56393045      1
     1    -0.49500394      3
     1    -0.67872419      4
     2     0.20246590      2
     2     0.29271934      5
    ------------------------

  ==> Number of Electrons in GAS <==

    GAS  MAX  MIN
    -------------
      1    8    6
      2    2    0
    -------------

  ==> Possible Electron Occupations in GAS <==

    Config.  1_A  1_B  2_A  2_B
    ---------------------------
         1     4    4    0    0
         2     4    3    0    1
         3     4    2    0    2
         4     3    4    1    0
         5     3    3    1    1
         6     2    4    2    0
    ---------------------------
    n_A/B: # of alpha/beta electrons in GASn

  ==> Building GAS Determinants <==

    Config.  #Determinants     Time/s
    ---------------------------------
         1               1  1.033e-04
         2               3  1.310e-04
         3               2  1.259e-04
         4               3  1.160e-04
         5              20  1.515e-04
         6               2  1.185e-04
    ---------------------------------
    Total:              31  7.854e-04
    ---------------------------------


  ---------------------------------- Cycle 0 -----------------------------------

  ==> Diagonalizing the Hamiltonian in the P space <==

  Initial P space dimension: 31
  Spin-complete dimension of the P space: 31 determinants
  Added 31 determinants from root 0

  Davidson-Liu solver algorithm using SigmaVectorSparseList sigma algorithm

  Performing full diagonalization of the H matrix
  Found 18 roots with 2S+1 = 1 *
  Found 11 roots with 2S+1 = 3
  Found 2 roots with 2S+1 = 5
  Time spent diagonalizing H:   0.002293 s

    P-space  CI Energy Root   0        = -75.630855039340 Eh =   0.0000 eV, S^2 = 0.000000
    P-space  CI Energy Root   1        = -75.328926772804 Eh =   8.2159 eV, S^2 = 0.000000


  ==> Finding the Q space <==

  Using AVERAGE screening algorithm
  Using 1 threads.
  Size of F space: 0
  Time spent building sorting list: 0.000001
  Dimension of the PQ space:                  31
  Dimension of the PQ space (spin-complete) : 31
  Added 31 determinants from root 0
  Time spent building the model space: 0.000816

  ==> Diagonalizing the Hamiltonian in the P + Q space <==

  Number of reference roots: 2

  Davidson-Liu solver algorithm using SigmaVectorSparseList sigma algorithm

  Performing full diagonalization of the H matrix
  Found 18 roots with 2S+1 = 1 *
  Found 11 roots with 2S+1 = 3
  Found 2 roots with 2S+1 = 5
  Total time spent diagonalizing H:   0.002159 s

    PQ-space CI Energy Root   0        = -75.630855039340 Eh =   0.0000 eV, S^2 = 0.000000
    PQ-space CI Energy + EPT2 Root   0 = -75.630855039340 Eh =   0.0000 eV
    PQ-space CI Energy Root   1        = -75.328926772804 Eh =   8.2159 eV, S^2 = 0.000000
    PQ-space CI Energy + EPT2 Root   1 = -75.328926772804 Eh =   8.2159 eV


  Computing overlap for root 0
 Root 0 has overlap 0.000000
  Saving reference for root 0

  Computing overlap for root 1
 Root 1 has overlap 1.000000
  Saving reference for root 1
  Setting reference root to: 1

  ==> GAS Contribution Analysis <==

  Root 0:
    Config.  1_A  1_B  2_A  2_B  Contribution
    -----------------------------------------
         1     4    4    0    0   0.28421627%
         2     4    3    0    1  48.05241273%
         3     4    2    0    2   0.16929976%
         4     3    4    1    0  48.05241273%
         5     3    3    1    1   3.27235874%
         6     2    4    2    0   0.16929976%
    -----------------------------------------
               GAS1      GAS2    Contribution
    -----------------------------------------
                  6         2     3.61095826%
                  7         1    96.10482546%
                  8         0     0.28421627%
    -----------------------------------------
  Root 1:
    Config.  1_A  1_B  2_A  2_B  Contribution
    -----------------------------------------
         1     4    4    0    0   0.60855547%
         2     4    3    0    1  47.76630236%
         3     4    2    0    2   0.06825890%
         4     3    4    1    0  47.76630236%
         5     3    3    1    1   3.72232201%
         6     2    4    2    0   0.06825890%
    -----------------------------------------
               GAS1      GAS2    Contribution
    -----------------------------------------
                  6         2     3.85883981%
                  7         1    95.53260472%
                  8         0     0.60855547%
    -----------------------------------------

  ==> Pruning the Q space <==

  Cycle 0 took: 0.006480 s


  ---------------------------------- Cycle 1 -----------------------------------

  ==> Diagonalizing the Hamiltonian in the P space <==

  Initial P space dimension: 31
  Spin-complete dimension of the P space: 31 determinants
  Added 31 determinants from root 0

  Davidson-Liu solver algorithm using SigmaVectorSparseList sigma algorithm

  Performing full diagonalization of the H matrix
  Found 18 roots with 2S+1 = 1 *
  Found 11 roots with 2S+1 = 3
  Found 2 roots with 2S+1 = 5
  Time spent diagonalizing H:   0.002103 s

  Computing overlap for root 0
 Root 0 has overlap 0.000000
  Saving reference for root 0

  Computing overlap for root 1
 Root 1 has overlap 1.000000
  Saving reference for root 1
  Setting reference root to: 1

    P-space  CI Energy Root   0        = -75.630855039340 Eh =   0.0000 eV, S^2 = 0.000000
    P-space  CI Energy Root   1        = -75.328926772804 Eh =   8.2159 eV, S^2 = 0.000000


  ==> Finding the Q space <==

  Using AVERAGE screening algorithm
  Using 1 threads.
  Size of F space: 0
  Time spent building sorting list: 0.000000
  Dimension of the PQ space:                  31
  Dimension of the PQ space (spin-complete) : 31
  Added 31 determinants from root 0
  Time spent building the model space: 0.000907

  ==> Diagonalizing the Hamiltonian in the P + Q space <==

  Number of reference roots: 2

  Davidson-Liu solver algorithm using SigmaVectorSparseList sigma algorithm

  Performing full diagonalization of the H matrix
  Found 18 roots with 2S+1 = 1 *
  Found 11 roots with 2S+1 = 3
  Found 2 roots with 2S+1 = 5
  Total time spent diagonalizing H:   0.002630 s

    PQ-space CI Energy Root   0        = -75.630855039340 Eh =   0.0000 eV, S^2 = 0.000000
    PQ-space CI Energy + EPT2 Root   0 = -75.630855039340 Eh =   0.0000 eV
    PQ-space CI Energy Root   1        = -75.328926772804 Eh =   8.2159 eV, S^2 = 0.000000
    PQ-space CI Energy + EPT2 Root   1 = -75.328926772804 Eh =   8.2159 eV


  Computing overlap for root 0
 Root 0 has overlap 0.000000
  Saving reference for root 0

  Computing overlap for root 1
 Root 1 has overlap 1.000000
  Saving reference for root 1
  Setting reference root to: 1

  ==> GAS Contribution Analysis <==

  Root 0:
    Config.  1_A  1_B  2_A  2_B  Contribution
    -----------------------------------------
         1     4    4    0    0   0.28421627%
         2     4    3    0    1  48.05241273%
         3     4    2    0    2   0.16929976%
         4     3    4    1    0  48.05241273%
         5     3    3    1    1   3.27235874%
         6     2    4    2    0   0.16929976%
    -----------------------------------------
               GAS1      GAS2    Contribution
    -----------------------------------------
                  6         2     3.61095826%
                  7         1    96.10482546%
                  8         0     0.28421627%
    -----------------------------------------
  Root 1:
    Config.  1_A  1_B  2_A  2_B  Contribution
    -----------------------------------------
         1     4    4    0    0   0.60855547%
         2     4    3    0    1  47.76630236%
         3     4    2    0    2   0.06825890%
         4     3    4    1    0  47.76630236%
         5     3    3    1    1   3.72232201%
         6     2    4    2    0   0.06825890%
    -----------------------------------------
               GAS1      GAS2    Contribution
    -----------------------------------------
                  6         2     3.85883981%
                  7         1    95.53260472%
                  8         0     0.60855547%
    -----------------------------------------

  ==> Pruning the Q space <==

  Cycle 1 took: 0.007360 s


  ---------------------------------- Cycle 2 -----------------------------------

  ==> Diagonalizing the Hamiltonian in the P space <==

  Initial P space dimension: 31
  Spin-complete dimension of the P space: 31 determinants
  Added 31 determinants from root 0

  Davidson-Liu solver algorithm using SigmaVectorSparseList sigma algorithm

  Performing full diagonalization of the H matrix
  Found 18 roots with 2S+1 = 1 *
  Found 11 roots with 2S+1 = 3
  Found 2 roots with 2S+1 = 5
  Time spent diagonalizing H:   0.002423 s

  Computing overlap for root 0
 Root 0 has overlap 0.000000
  Saving reference for root 0

  Computing overlap for root 1
 Root 1 has overlap 1.000000
  Saving reference for root 1
  Setting reference root to: 1

    P-space  CI Energy Root   0        = -75.630855039340 Eh =   0.0000 eV, S^2 = 0.000000
    P-space  CI Energy Root   1        = -75.328926772804 Eh =   8.2159 eV, S^2 = 0.000000


  ==> Finding the Q space <==

  Using AVERAGE screening algorithm
  Using 1 threads.
  Size of F space: 0
  Time spent building sorting list: 0.000001
  Dimension of the PQ space:                  31
  Dimension of the PQ space (spin-complete) : 31
  Added 31 determinants from root 0
  Time spent building the model space: 0.000887

  ==> Diagonalizing the Hamiltonian in the P + Q space <==

  Number of reference roots: 2

  Davidson-Liu solver algorithm using SigmaVectorSparseList sigma algorithm

  Performing full diagonalization of the H matrix
  Found 18 roots with 2S+1 = 1 *
  Found 11 roots with 2S+1 = 3
  Found 2 roots with 2S+1 = 5
  Total time spent diagonalizing H:   0.002591 s

    PQ-space CI Energy Root   0        = -75.630855039340 Eh =   0.0000 eV, S^2 = 0.000000
    PQ-space CI Energy + EPT2 Root   0 = -75.630855039340 Eh =   0.0000 eV
    PQ-space CI Energy Root   1        = -75.328926772804 Eh =   8.2159 eV, S^2 = 0.000000
    PQ-space CI Energy + EPT2 Root   1 = -75.328926772804 Eh =   8.2159 eV


  Computing overlap for root 0
 Root 0 has overlap 0.000000
  Saving reference for root 0

  Computing overlap for root 1
 Root 1 has overlap 1.000000
  Saving reference for root 1
  Setting reference root to: 1

  ==> GAS Contribution Analysis <==

  Root 0:
    Config.  1_A  1_B  2_A  2_B  Contribution
    -----------------------------------------
         1     4    4    0    0   0.28421627%
         2     4    3    0    1  48.05241273%
         3     4    2    0    2   0.16929976%
         4     3    4    1    0  48.05241273%
         5     3    3    1    1   3.27235874%
         6     2    4    2    0   0.16929976%
    -----------------------------------------
               GAS1      GAS2    Contribution
    -----------------------------------------
                  6         2     3.61095826%
                  7         1    96.10482546%
                  8         0     0.28421627%
    -----------------------------------------
  Root 1:
    Config.  1_A  1_B  2_A  2_B  Contribution
    -----------------------------------------
         1     4    4    0    0   0.60855547%
         2     4    3    0    1  47.76630236%
         3     4    2    0    2   0.06825890%
         4     3    4    1    0  47.76630236%
         5     3    3    1    1   3.72232201%
         6     2    4    2    0   0.06825890%
    -----------------------------------------
               GAS1      GAS2    Contribution
    -----------------------------------------
                  6         2     3.85883981%
                  7         1    95.53260472%
                  8         0     0.60855547%
    -----------------------------------------

  ==> Pruning the Q space <==

  Cycle 2 took: 0.007494 s


  ---------------------------------- Cycle 3 -----------------------------------

  ==> Diagonalizing the Hamiltonian in the P space <==

  Initial P space dimension: 31
  Spin-complete dimension of the P space: 31 determinants
  Added 31 determinants from root 0

  Davidson-Liu solver algorithm using SigmaVectorSparseList sigma algorithm

  Performing full diagonalization of the H matrix
  Found 18 roots with 2S+1 = 1 *
  Found 11 roots with 2S+1 = 3
  Found 2 roots with 2S+1 = 5
  Time spent diagonalizing H:   0.002610 s

  Computing overlap for root 0
 Root 0 has overlap 0.000000
  Saving reference for root 0

  Computing overlap for root 1
 Root 1 has overlap 1.000000
  Saving reference for root 1
  Setting reference root to: 1

    P-space  CI Energy Root   0        = -75.630855039340 Eh =   0.0000 eV, S^2 = 0.000000
    P-space  CI Energy Root   1        = -75.328926772804 Eh =   8.2159 eV, S^2 = 0.000000


  ==> Finding the Q space <==

  Using AVERAGE screening algorithm
  Using 1 threads.
  Size of F space: 0
  Time spent building sorting list: 0.000002
  Dimension of the PQ space:                  31
  Dimension of the PQ space (spin-complete) : 31
  Added 31 determinants from root 0
  Time spent building the model space: 0.000814

  ==> Diagonalizing the Hamiltonian in the P + Q space <==

  Number of reference roots: 2

  Davidson-Liu solver algorithm using SigmaVectorSparseList sigma algorithm

  Performing full diagonalization of the H matrix
  Found 18 roots with 2S+1 = 1 *
  Found 11 roots with 2S+1 = 3
  Found 2 roots with 2S+1 = 5
  Total time spent diagonalizing H:   0.002255 s

    PQ-space CI Energy Root   0        = -75.630855039340 Eh =   0.0000 eV, S^2 = 0.000000
    PQ-space CI Energy + EPT2 Root   0 = -75.630855039340 Eh =   0.0000 eV
    PQ-space CI Energy Root   1        = -75.328926772804 Eh =   8.2159 eV, S^2 = 0.000000
    PQ-space CI Energy + EPT2 Root   1 = -75.328926772804 Eh =   8.2159 eV


  Computing overlap for root 0
 Root 0 has overlap 0.000000
  Saving reference for root 0

  Computing overlap for root 1
 Root 1 has overlap 1.000000
  Saving reference for root 1
  Setting reference root to: 1

  ==> GAS Contribution Analysis <==

  Root 0:
    Config.  1_A  1_B  2_A  2_B  Contribution
    -----------------------------------------
         1     4    4    0    0   0.28421627%
         2     4    3    0    1  48.05241273%
         3     4    2    0    2   0.16929976%
         4     3    4    1    0  48.05241273%
         5     3    3    1    1   3.27235874%
         6     2    4    2    0   0.16929976%
    -----------------------------------------
               GAS1      GAS2    Contribution
    -----------------------------------------
                  6         2     3.61095826%
                  7         1    96.10482546%
                  8         0     0.28421627%
    -----------------------------------------
  Root 1:
    Config.  1_A  1_B  2_A  2_B  Contribution
    -----------------------------------------
         1     4    4    0    0   0.60855547%
         2     4    3    0    1  47.76630236%
         3     4    2    0    2   0.06825890%
         4     3    4    1    0  47.76630236%
         5     3    3    1    1   3.72232201%
         6     2    4    2    0   0.06825890%
    -----------------------------------------
               GAS1      GAS2    Contribution
    -----------------------------------------
                  6         2     3.85883981%
                  7         1    95.53260472%
                  8         0     0.60855547%
    -----------------------------------------

  ==> Pruning the Q space <==

  Cycle 3 took: 0.006988 s


  ---------------------------------- Cycle 4 -----------------------------------

  ==> Diagonalizing the Hamiltonian in the P space <==

  Initial P space dimension: 31
  Spin-complete dimension of the P space: 31 determinants
  Added 31 determinants from root 0

  Davidson-Liu solver algorithm using SigmaVectorSparseList sigma algorithm

  Performing full diagonalization of the H matrix
  Found 18 roots with 2S+1 = 1 *
  Found 11 roots with 2S+1 = 3
  Found 2 roots with 2S+1 = 5
  Time spent diagonalizing H:   0.002154 s

  Computing overlap for root 0
 Root 0 has overlap 0.000000
[...]
    -----------------------------------------
                  6         2     7.58643500%
                  7         1    92.38362961%
                  8         0     0.02993538%
    -----------------------------------------
  Root 1:
    Config.  1_A  1_B  2_A  2_B  Contribution
    -----------------------------------------
         1     4    4    0    0   0.06550654%
         2     4    3    0    1  45.60310810%
         3     4    2    0    2   0.56040476%
         4     3    4    1    0  45.60310810%
         5     3    3    1    1   7.60746775%
         6     2    4    2    0   0.56040476%
    -----------------------------------------
               GAS1      GAS2    Contribution
    -----------------------------------------
                  6         2     8.72827727%
                  7         1    91.20621619%
                  8         0     0.06550654%
    -----------------------------------------

  ==> Pruning the Q space <==

  Cycle 1 took: 0.006858 s


  ---------------------------------- Cycle 2 -----------------------------------

  ==> Diagonalizing the Hamiltonian in the P space <==

  Initial P space dimension: 31
  Spin-complete dimension of the P space: 31 determinants
  Added 31 determinants from root 0

  Davidson-Liu solver algorithm using SigmaVectorSparseList sigma algorithm

  Performing full diagonalization of the H matrix
  Found 18 roots with 2S+1 = 1 *
  Found 11 roots with 2S+1 = 3
  Found 2 roots with 2S+1 = 5
  Time spent diagonalizing H:   0.002516 s

  Computing overlap for root 0
 Root 0 has overlap 0.000000
  Saving reference for root 0

  Computing overlap for root 1
 Root 1 has overlap 1.000000
  Saving reference for root 1
  Setting reference root to: 1

    P-space  CI Energy Root   0        = -75.629335769557 Eh =   0.0000 eV, S^2 = 0.000000
    P-space  CI Energy Root   1        = -75.338587877595 Eh =   7.9117 eV, S^2 = 0.000000


  ==> Finding the Q space <==

  Using AVERAGE screening algorithm
  Using 1 threads.
  Size of F space: 0
  Time spent building sorting list: 0.000001
  Dimension of the PQ space:                  31
  Dimension of the PQ space (spin-complete) : 31
  Added 31 determinants from root 0
  Time spent building the model space: 0.000666

  ==> Diagonalizing the Hamiltonian in the P + Q space <==

  Number of reference roots: 2

  Davidson-Liu solver algorithm using SigmaVectorSparseList sigma algorithm

  Performing full diagonalization of the H matrix
  Found 18 roots with 2S+1 = 1 *
  Found 11 roots with 2S+1 = 3
  Found 2 roots with 2S+1 = 5
  Total time spent diagonalizing H:   0.002122 s

    PQ-space CI Energy Root   0        = -75.629335769557 Eh =   0.0000 eV, S^2 = 0.000000
    PQ-space CI Energy + EPT2 Root   0 = -75.629335769557 Eh =   0.0000 eV
    PQ-space CI Energy Root   1        = -75.338587877595 Eh =   7.9117 eV, S^2 = 0.000000
    PQ-space CI Energy + EPT2 Root   1 = -75.338587877595 Eh =   7.9117 eV


  Computing overlap for root 0
 Root 0 has overlap 0.000000
  Saving reference for root 0

  Computing overlap for root 1
 Root 1 has overlap 1.000000
  Saving reference for root 1
  Setting reference root to: 1

  ==> GAS Contribution Analysis <==

  Root 0:
    Config.  1_A  1_B  2_A  2_B  Contribution
    -----------------------------------------
         1     4    4    0    0   0.02993538%
         2     4    3    0    1  46.19181481%
         3     4    2    0    2   0.65324488%
         4     3    4    1    0  46.19181481%
         5     3    3    1    1   6.27994523%
         6     2    4    2    0   0.65324488%
    -----------------------------------------
               GAS1      GAS2    Contribution
    -----------------------------------------
                  6         2     7.58643500%
                  7         1    92.38362961%
                  8         0     0.02993538%
    -----------------------------------------
  Root 1:
    Config.  1_A  1_B  2_A  2_B  Contribution
    -----------------------------------------
         1     4    4    0    0   0.06550654%
         2     4    3    0    1  45.60310810%
         3     4    2    0    2   0.56040476%
         4     3    4    1    0  45.60310810%
         5     3    3    1    1   7.60746775%
         6     2    4    2    0   0.56040476%
    -----------------------------------------
               GAS1      GAS2    Contribution
    -----------------------------------------
                  6         2     8.72827727%
                  7         1    91.20621619%
                  8         0     0.06550654%
    -----------------------------------------

  ==> Pruning the Q space <==

  Cycle 2 took: 0.006906 s


  ---------------------------------- Cycle 3 -----------------------------------

  ==> Diagonalizing the Hamiltonian in the P space <==

  Initial P space dimension: 31
  Spin-complete dimension of the P space: 31 determinants
  Added 31 determinants from root 0

  Davidson-Liu solver algorithm using SigmaVectorSparseList sigma algorithm

  Performing full diagonalization of the H matrix
  Found 18 roots with 2S+1 = 1 *
  Found 11 roots with 2S+1 = 3
  Found 2 roots with 2S+1 = 5
  Time spent diagonalizing H:   0.002577 s

  Computing overlap for root 0
 Root 0 has overlap 0.000000
  Saving reference for root 0

  Computing overlap for root 1
 Root 1 has overlap 1.000000
  Saving reference for root 1
  Setting reference root to: 1

    P-space  CI Energy Root   0        = -75.629335769557 Eh =   0.0000 eV, S^2 = 0.000000
    P-space  CI Energy Root   1        = -75.338587877595 Eh =   7.9117 eV, S^2 = 0.000000


  ==> Finding the Q space <==

  Using AVERAGE screening algorithm
  Using 1 threads.
  Size of F space: 0
  Time spent building sorting list: 0.000000
  Dimension of the PQ space:                  31
  Dimension of the PQ space (spin-complete) : 31
  Added 31 determinants from root 0
  Time spent building the model space: 0.000876

  ==> Diagonalizing the Hamiltonian in the P + Q space <==

  Number of reference roots: 2

  Davidson-Liu solver algorithm using SigmaVectorSparseList sigma algorithm

  Performing full diagonalization of the H matrix
  Found 18 roots with 2S+1 = 1 *
  Found 11 roots with 2S+1 = 3
  Found 2 roots with 2S+1 = 5
  Total time spent diagonalizing H:   0.002510 s

    PQ-space CI Energy Root   0        = -75.629335769557 Eh =   0.0000 eV, S^2 = 0.000000
    PQ-space CI Energy + EPT2 Root   0 = -75.629335769557 Eh =   0.0000 eV
    PQ-space CI Energy Root   1        = -75.338587877595 Eh =   7.9117 eV, S^2 = 0.000000
    PQ-space CI Energy + EPT2 Root   1 = -75.338587877595 Eh =   7.9117 eV


  Computing overlap for root 0
 Root 0 has overlap 0.000000
  Saving reference for root 0

  Computing overlap for root 1
 Root 1 has overlap 1.000000
  Saving reference for root 1
  Setting reference root to: 1

  ==> GAS Contribution Analysis <==

  Root 0:
    Config.  1_A  1_B  2_A  2_B  Contribution
    -----------------------------------------
         1     4    4    0    0   0.02993538%
         2     4    3    0    1  46.19181481%
         3     4    2    0    2   0.65324488%
         4     3    4    1    0  46.19181481%
         5     3    3    1    1   6.27994523%
         6     2    4    2    0   0.65324488%
    -----------------------------------------
               GAS1      GAS2    Contribution
    -----------------------------------------
                  6         2     7.58643500%
                  7         1    92.38362961%
                  8         0     0.02993538%
    -----------------------------------------
  Root 1:
    Config.  1_A  1_B  2_A  2_B  Contribution
    -----------------------------------------
         1     4    4    0    0   0.06550654%
         2     4    3    0    1  45.60310810%
         3     4    2    0    2   0.56040476%
         4     3    4    1    0  45.60310810%
         5     3    3    1    1   7.60746775%
         6     2    4    2    0   0.56040476%
    -----------------------------------------
               GAS1      GAS2    Contribution
    -----------------------------------------
                  6         2     8.72827727%
                  7         1    91.20621619%
                  8         0     0.06550654%
    -----------------------------------------

  ==> Pruning the Q space <==

  Cycle 3 took: 0.007343 s


  ---------------------------------- Cycle 4 -----------------------------------

  ==> Diagonalizing the Hamiltonian in the P space <==

  Initial P space dimension: 31
  Spin-complete dimension of the P space: 31 determinants
  Added 31 determinants from root 0

  Davidson-Liu solver algorithm using SigmaVectorSparseList sigma algorithm

  Performing full diagonalization of the H matrix
  Found 18 roots with 2S+1 = 1 *
  Found 11 roots with 2S+1 = 3
  Found 2 roots with 2S+1 = 5
  Time spent diagonalizing H:   0.002243 s

  Computing overlap for root 0
 Root 0 has overlap 0.000000
  Saving reference for root 0

  Computing overlap for root 1
 Root 1 has overlap 1.000000
  Saving reference for root 1
  Setting reference root to: 1

    P-space  CI Energy Root   0        = -75.629335769557 Eh =   0.0000 eV, S^2 = 0.000000
    P-space  CI Energy Root   1        = -75.338587877595 Eh =   7.9117 eV, S^2 = 0.000000


  ==> Finding the Q space <==

  Using AVERAGE screening algorithm
  Using 1 threads.
  Size of F space: 0
  Time spent building sorting list: 0.000001
  Dimension of the PQ space:                  31
  Dimension of the PQ space (spin-complete) : 31
  Added 31 determinants from root 0
  Time spent building the model space: 0.000942

  ==> Diagonalizing the Hamiltonian in the P + Q space <==

  Number of reference roots: 2

  Davidson-Liu solver algorithm using SigmaVectorSparseList sigma algorithm

  Performing full diagonalization of the H matrix
  Found 18 roots with 2S+1 = 1 *
  Found 11 roots with 2S+1 = 3
  Found 2 roots with 2S+1 = 5
  Total time spent diagonalizing H:   0.002624 s

    PQ-space CI Energy Root   0        = -75.629335769557 Eh =   0.0000 eV, S^2 = 0.000000
    PQ-space CI Energy + EPT2 Root   0 = -75.629335769557 Eh =   0.0000 eV
    PQ-space CI Energy Root   1        = -75.338587877595 Eh =   7.9117 eV, S^2 = 0.000000
    PQ-space CI Energy + EPT2 Root   1 = -75.338587877595 Eh =   7.9117 eV


  Computing overlap for root 0
 Root 0 has overlap 0.000000
  Saving reference for root 0

  Computing overlap for root 1
 Root 1 has overlap 1.000000
  Saving reference for root 1
  Setting reference root to: 1

  ==> GAS Contribution Analysis <==

  Root 0:
    Config.  1_A  1_B  2_A  2_B  Contribution
    -----------------------------------------
         1     4    4    0    0   0.02993538%
         2     4    3    0    1  46.19181481%
         3     4    2    0    2   0.65324488%
         4     3    4    1    0  46.19181481%
         5     3    3    1    1   6.27994523%
         6     2    4    2    0   0.65324488%
    -----------------------------------------
               GAS1      GAS2    Contribution
    -----------------------------------------
                  6         2     7.58643500%
                  7         1    92.38362961%
                  8         0     0.02993538%
    -----------------------------------------
  Root 1:
    Config.  1_A  1_B  2_A  2_B  Contribution
    -----------------------------------------
         1     4    4    0    0   0.06550654%
         2     4    3    0    1  45.60310810%
         3     4    2    0    2   0.56040476%
         4     3    4    1    0  45.60310810%
         5     3    3    1    1   7.60746775%
         6     2    4    2    0   0.56040476%
    -----------------------------------------
               GAS1      GAS2    Contribution
    -----------------------------------------
                  6         2     8.72827727%
                  7         1    91.20621619%
                  8         0     0.06550654%
    -----------------------------------------

  ==> Pruning the Q space <==

  Cycle 4 took: 0.007429 s


  ---------------------------------- Cycle 5 -----------------------------------

  ==> Diagonalizing the Hamiltonian in the P space <==

  Initial P space dimension: 31
  Spin-complete dimension of the P space: 31 determinants
  Added 31 determinants from root 0

  Davidson-Liu solver algorithm using SigmaVectorSparseList sigma algorithm

  Performing full diagonalization of the H matrix
  Found 18 roots with 2S+1 = 1 *
  Found 11 roots with 2S+1 = 3
  Found 2 roots with 2S+1 = 5
  Time spent diagonalizing H:   0.002570 s

  Computing overlap for root 0
 Root 0 has overlap 0.000000
  Saving reference for root 0

  Computing overlap for root 1
 Root 1 has overlap 1.000000
  Saving reference for root 1
  Setting reference root to: 1

    P-space  CI Energy Root   0        = -75.629335769557 Eh =   0.0000 eV, S^2 = 0.000000
    P-space  CI Energy Root   1        = -75.338587877595 Eh =   7.9117 eV, S^2 = 0.000000


  ==> Finding the Q space <==

  Using AVERAGE screening algorithm
  Using 1 threads.
  Size of F space: 0
  Time spent building sorting list: 0.000000
  Dimension of the PQ space:                  31
  Dimension of the PQ space (spin-complete) : 31
  Added 31 determinants from root 0
  Time spent building the model space: 0.000884

  ==> Diagonalizing the Hamiltonian in the P + Q space <==

  Number of reference roots: 2

  Davidson-Liu solver algorithm using SigmaVectorSparseList sigma algorithm

  Performing full diagonalization of the H matrix
  Found 18 roots with 2S+1 = 1 *
  Found 11 roots with 2S+1 = 3
  Found 2 roots with 2S+1 = 5
  Total time spent diagonalizing H:   0.002555 s

    PQ-space CI Energy Root   0        = -75.629335769557 Eh =   0.0000 eV, S^2 = 0.000000
    PQ-space CI Energy + EPT2 Root   0 = -75.629335769557 Eh =   0.0000 eV
    PQ-space CI Energy Root   1        = -75.338587877595 Eh =   7.9117 eV, S^2 = 0.000000
    PQ-space CI Energy + EPT2 Root   1 = -75.338587877595 Eh =   7.9117 eV


  Computing overlap for root 0
 Root 0 has overlap 0.000000
  Saving reference for root 0

  Computing overlap for root 1
 Root 1 has overlap 1.000000
  Saving reference for root 1
  Setting reference root to: 1

  ==> GAS Contribution Analysis <==

  Root 0:
    Config.  1_A  1_B  2_A  2_B  Contribution
    -----------------------------------------
         1     4    4    0    0   0.02993538%
         2     4    3    0    1  46.19181481%
         3     4    2    0    2   0.65324488%
         4     3    4    1    0  46.19181481%
         5     3    3    1    1   6.27994523%
         6     2    4    2    0   0.65324488%
    -----------------------------------------
               GAS1      GAS2    Contribution
    -----------------------------------------
                  6         2     7.58643500%
                  7         1    92.38362961%
                  8         0     0.02993538%
    -----------------------------------------
  Root 1:
    Config.  1_A  1_B  2_A  2_B  Contribution
    -----------------------------------------
         1     4    4    0    0   0.06550654%
         2     4    3    0    1  45.60310810%
         3     4    2    0    2   0.56040476%
         4     3    4    1    0  45.60310810%
         5     3    3    1    1   7.60746775%
         6     2    4    2    0   0.56040476%
    -----------------------------------------
               GAS1      GAS2    Contribution
    -----------------------------------------
                  6         2     8.72827727%
                  7         1    91.20621619%
                  8         0     0.06550654%
    -----------------------------------------
  Procedure is stuck! Quitting...

  ==> ACI Natural Orbitals <==

        1B1     1.999824      1A1     1.998388      1B2     1.968172  
        2A1     1.186235      3A1     0.813568      2B2     0.033813  
  Saving root 1, ref_root is 1
  Number of old roots: 2

  ==> Excited state solver summary <==

  Iterations required:                         5
  Dimension of optimized determinant space:    31

  * Selected-CI Energy Root   0        = -76.017666173497 Eh =   0.0000 eV
  * Selected-CI Energy Root   0 + EPT2 = -76.017666173497 Eh =   0.0000 eV
  * Selected-CI Energy Root   1        = -75.629335769557 Eh =  10.5670 eV
  * Selected-CI Energy Root   1 + EPT2 = -75.629335769557 Eh =  10.5670 eV

  Saving information for root: 1

  ==> Energy Summary <==

    Multi.(2ms)  Irrep.  No.               Energy      <S^2>
    --------------------------------------------------------
       1  (  0)    A1     0      -76.017666173497   0.000000
       1  (  0)    A1     1      -75.629335769557   0.000000
    --------------------------------------------------------

  ==> Dipole Moments [e a0] (Nuclear + Electronic) for Singlet (Ms = 0) A1 <==

  1-RDM  took 0.000728 s (determinant)
  1-RDM  took 0.000713 s (determinant)
       State           DM_X           DM_Y           DM_Z           |DM|
    --------------------------------------------------------------------
         0A1     0.00000000     0.00000000    -0.21817448     0.21817448
         1A1     0.00000000     0.00000000     0.27046609     0.27046609
    --------------------------------------------------------------------
     Nuclear     0.00000000     0.00000000     1.03508051     1.03508051
    --------------------------------------------------------------------

  ==> Quadrupole Moments [e a0^2] (Nuclear + Electronic) for Singlet (Ms = 0) A1 <==

  1-RDM  took 0.000579 s (determinant)
  1-RDM  took 0.000577 s (determinant)
       State          QM_XX          QM_XY          QM_XZ          QM_YY          QM_YZ          QM_ZZ
    --------------------------------------------------------------------------------------------------
         0A1    -6.26025694     0.00000000     0.00000000    -6.45124753     0.00000000    -5.88676885
         1A1    -6.05572092     0.00000000     0.00000000    -6.42396610     0.00000000    -6.21211558
    --------------------------------------------------------------------------------------------------
     Nuclear     0.00000000     0.00000000     0.00000000     4.38045134     0.00000000     2.31648182
    --------------------------------------------------------------------------------------------------
  1-RDM  took 0.000583 s (determinant)
  2-RDMS took 0.001342 s (determinant)
  1-RDM  took 0.000555 s (determinant)
  2-RDMS took 0.001248 s (determinant)

 CAS took 0.070485 seconds.

 FormFockIntermediates took 0.00098229 s.

 FormOrbitalGradient took 0.00021237 s.

 FormDiagHessian took 0.00009258 s.

 Update function takes 0.00129825 s
    36   0.000000000021   -0.000000000010   -75.823500971527    0.076518 s

  A miracle has come to pass: CASSCF iterations have converged.

 @ Final CASSCF Energy =  -75.823500971527309


  ==> Semicanonicalize Orbitals <==

    MIX INACTIVE ORBITALS   ...... FALSE
    MIX GAS ACTIVE ORBITALS ...... FALSE
    FROZEN_DOCC     ...  CANONICAL
    FROZEN_UOCC     ...  CANONICAL
    GAS1            ...  CANONICAL
    GAS2            ...  CANONICAL
    RESTRICTED_DOCC ...  CANONICAL
    RESTRICTED_UOCC ...  CANONICAL

    Off-Diag. Elements       Max           2-Norm
    ------------------------------------------------
    GAS1                 0.0092140976   0.0130307018
    GAS2                 0.0000000000   0.0000000000
    RESTRICTED_DOCC      0.0000000000   0.0000000000
    RESTRICTED_UOCC      0.0283938987   0.1134378770
    ------------------------------------------------

    Canonicalization test failed

  Timing for orbital canonicalization:                        0.001 s.

  Time to prepare integrals:        0.043 seconds
  Time to run job          :        2.713 seconds
  Total                    :        2.756 seconds
    GASSCF energy.........................................................................PASSED

    Psi4 stopped on: Friday, 10 November 2023 04:13PM
    Psi4 wall time for execution: 0:00:03.15

*** Psi4 exiting successfully. Buy a developer a beer!
