
    -----------------------------------------------------------------------
          Psi4: An Open-Source Ab Initio Electronic Structure Package
                               Psi4 1.2a1.dev704 

                         Git: Rev {master} a7fc050 


    R. M. Parrish, L. A. Burns, D. G. A. Smith, A. C. Simmonett,
    A. E. DePrince III, E. G. Hohenstein, U. Bozkaya, A. Yu. Sokolov,
    R. Di Remigio, R. M. Richard, J. F. Gonthier, A. M. James,
    H. R. McAlexander, A. Kumar, M. Saitow, X. Wang, B. P. Pritchard,
    P. Verma, H. F. Schaefer III, K. Patkowski, R. A. King, E. F. Valeev,
    F. A. Evangelista, J. M. Turney, T. D. Crawford, and C. D. Sherrill,
    J. Chem. Theory Comput. 13(7) pp 3185--3197 (2017).
    (doi: 10.1021/acs.jctc.7b00174)

    -----------------------------------------------------------------------


    Psi4 started on: Monday, 04 December 2017 01:41PM

    Process ID:  34152
    PSIDATADIR: /Users/york/src/psi4new/psi4/share/psi4
    Memory:     500.0 MiB
    Threads:    1
    
  ==> Input File <==

--------------------------------------------------------------------------
#! Generated using commit GITCOMMIT

ref_cas = -77.748792522752780
ref_pt3 = -78.337068954478539

import forte

molecule C2H4{
0 1
H  0.000000  0.923274  1.238289
H  0.000000 -0.923274  1.238289
H  0.000000  0.923274 -1.238289
H  0.000000 -0.923274 -1.238289
C  0.000000  0.000000  0.668188
C  0.000000  0.000000 -0.668188
symmetry c2v
}

set {
  reference           rhf
  scf_type            out_of_core
  basis               cc-pvdz
  e_convergence       10
  d_convergence       12
  maxiter             100
  docc                [5,0,1,2]
  restricted_docc     [5,0,0,2]
  active              [0,0,2,0]
  mcscf_r_convergence 8
  mcscf_e_convergence 10
  mcscf_maxiter       200
  mcscf_diis_start    15
  mcscf_max_rot       0.1
  num_roots           3
  avg_states          [0,1,2]
}
Ecas, wfn = energy('casscf', return_wfn=True)
compare_values(ref_cas,Ecas,10,"CASSCF energy")

set forte{
  job_type             dsrg-mrpt3
  frozen_docc          [2,0,0,0]
  restricted_docc      [3,0,0,2]
  active               [0,0,2,0]
  frozen_uocc          [0,0,0,0]
  dsrg_s               0.5
  cas_type             cas
  avg_state            [[0,1,3]]
  dsrg_dipole          true
}
Esapt3 = energy('forte', ref_wfn = wfn)
compare_values(ref_pt3,Esapt3,8,"SA-DSRG-PT3 energy root 0")
--------------------------------------------------------------------------

*** tstart() called on yorks-mac.wireless.emory.edu
*** at Mon Dec  4 13:41:44 2017

   => Loading Basis Set <=

    Name: CC-PVDZ
    Role: ORBITAL
    Keyword: BASIS
    atoms 1-4 entry H          line    22 file /Users/york/src/psi4new/psi4/share/psi4/basis/cc-pvdz.gbs 
    atoms 5-6 entry C          line   138 file /Users/york/src/psi4new/psi4/share/psi4/basis/cc-pvdz.gbs 


         ---------------------------------------------------------
                                   SCF
            by Justin Turney, Rob Parrish, Andy Simmonett
                             and Daniel Smith
                              RHF Reference
                        1 Threads,    500 MiB Core
         ---------------------------------------------------------

  ==> Geometry <==

    Molecular point group: c2v
    Full point group: D2h

    Geometry (in Angstrom), charge = 0, multiplicity = 1:

       Center              X                  Y                   Z               Mass       
    ------------   -----------------  -----------------  -----------------  -----------------
           H         -0.000000000000     0.923274000000     1.238289000000     1.007825032070
           H          0.000000000000    -0.923274000000     1.238289000000     1.007825032070
           H         -0.000000000000     0.923274000000    -1.238289000000     1.007825032070
           H          0.000000000000    -0.923274000000    -1.238289000000     1.007825032070
           C          0.000000000000     0.000000000000     0.668188000000    12.000000000000
           C          0.000000000000     0.000000000000    -0.668188000000    12.000000000000

  Running in c2v symmetry.

  Rotational constants: A =      4.90558  B =      0.99768  C =      0.82907 [cm^-1]
  Rotational constants: A = 147065.51639  B =  29909.67957  C =  24854.79644 [MHz]
  Nuclear repulsion =   33.298097662285691

  Charge       = 0
  Multiplicity = 1
  Electrons    = 16
  Nalpha       = 8
  Nbeta        = 8

  ==> Algorithm <==

  SCF Algorithm Type is OUT_OF_CORE.
  DIIS enabled.
  MOM disabled.
  Fractional occupation disabled.
  Guess Type is SAD.
  Energy threshold   = 1.00e-10
  Density threshold  = 1.00e-12
  Integral threshold = 0.00e+00

  ==> Primary Basis <==

  Basis Set: CC-PVDZ
    Blend: CC-PVDZ
    Number of shells: 24
    Number of basis function: 48
    Number of Cartesian functions: 50
    Spherical Harmonics?: true
    Max angular momentum: 2

  ==> Pre-Iterations <==

   -------------------------------------------------------
    Irrep   Nso     Nmo     Nalpha   Nbeta   Ndocc  Nsocc
   -------------------------------------------------------
     A1        22      22       5       5       5       0
     A2         4       4       0       0       0       0
     B1         8       8       1       1       1       0
     B2        14      14       2       2       2       0
   -------------------------------------------------------
    Total      48      48       8       8       8       0
   -------------------------------------------------------

  ==> Integral Setup <==

  ==> DiskJK: Disk-Based J/K Matrices <==

    J tasked:                  Yes
    K tasked:                  Yes
    wK tasked:                  No
    Memory (MB):               375
    Schwarz Cutoff:          1E-12

  Minimum eigenvalue in the overlap matrix is 4.8552890517E-03.
  Using Symmetric Orthogonalization.

  SCF Guess: Superposition of Atomic Densities via on-the-fly atomic UHF.

  ==> Iterations <==

                        Total Energy        Delta E     RMS |[F,P]|

   @RHF iter   0:   -78.57661164184705   -7.85766e+01   9.31369e-02 
   @RHF iter   1:   -78.00216643506208    5.74445e-01   7.52048e-03 
   @RHF iter   2:   -78.03593901071147   -3.37726e-02   2.41019e-03 DIIS
   @RHF iter   3:   -78.03940193117873   -3.46292e-03   8.20283e-04 DIIS
   @RHF iter   4:   -78.03983901574155   -4.37085e-04   9.63744e-05 DIIS
   @RHF iter   5:   -78.03984830410120   -9.28836e-06   9.90753e-06 DIIS
   @RHF iter   6:   -78.03984838791102   -8.38098e-08   1.25874e-06 DIIS
   @RHF iter   7:   -78.03984838921043   -1.29941e-09   1.32883e-07 DIIS
   @RHF iter   8:   -78.03984838922528   -1.48503e-11   2.26912e-08 DIIS
   @RHF iter   9:   -78.03984838922592   -6.39488e-13   2.85604e-09 DIIS
   @RHF iter  10:   -78.03984838922577    1.56319e-13   2.43930e-10 DIIS
   @RHF iter  11:   -78.03984838922585   -8.52651e-14   3.35705e-11 DIIS
   @RHF iter  12:   -78.03984838922588   -2.84217e-14   4.05553e-12 DIIS
   @RHF iter  13:   -78.03984838922582    5.68434e-14   6.83871e-13 DIIS

  ==> Post-Iterations <==

    Orbital Energies (a.u.)
    -----------------------

    Doubly Occupied:                                                      

       1A1   -11.237132     2A1   -11.235505     3A1    -1.030189  
       4A1    -0.789942     1B2    -0.637452     5A1    -0.583297  
       2B2    -0.502717     1B1    -0.373390  

    Virtual:                                                              

       2B1     0.167257     6A1     0.203559     3B2     0.232823  
       7A1     0.237644     4B2     0.303090     8A1     0.463083  
       9A1     0.580387     5B2     0.609438     3B1     0.689610  
      10A1     0.709028    11A1     0.779796     4B1     0.807307  
       6B2     0.861157     7B2     0.932382    12A1     0.970837  
      13A1     1.008640     1A2     1.131643    14A1     1.234271  
       8B2     1.240802     5B1     1.261600     2A2     1.292745  
      15A1     1.599391     9B2     1.737713    10B2     1.752975  
       6B1     1.814177    16A1     1.849372    17A1     1.860320  
      11B2     1.907415     3A2     1.968897     7B1     1.979535  
       8B1     2.226403    18A1     2.250735     4A2     2.363897  
      12B2     2.439418    19A1     2.507675    20A1     2.637327  
      21A1     2.702843    13B2     2.814595    22A1     3.116593  
      14B2     3.390147  

    Final Occupation by Irrep:
             A1    A2    B1    B2 
    DOCC [     5,    0,    1,    2 ]

  Energy converged.

  @RHF Final Energy:   -78.03984838922582

   => Energetics <=

    Nuclear Repulsion Energy =             33.2980976622856915
    One-Electron Energy =                -169.8966436681191965
    Two-Electron Energy =                  58.5586976166076738
    Total Energy =                        -78.0398483892258241



Properties will be evaluated at   0.000000,   0.000000,   0.000000 Bohr

Properties computed using the SCF density matrix

  Nuclear Dipole Moment: (a.u.)
     X:     0.0000      Y:     0.0000      Z:     0.0000

  Electronic Dipole Moment: (a.u.)
     X:     0.0000      Y:     0.0000      Z:    -0.0000

  Dipole Moment: (a.u.)
     X:     0.0000      Y:     0.0000      Z:    -0.0000     Total:     0.0000

  Dipole Moment: (Debye)
     X:     0.0000      Y:     0.0000      Z:    -0.0000     Total:     0.0000


*** tstop() called on yorks-mac.wireless.emory.edu at Mon Dec  4 13:41:45 2017
Module time:
	user time   =       1.34 seconds =       0.02 minutes
	system time =       0.07 seconds =       0.00 minutes
	total time  =          1 seconds =       0.02 minutes
Total time:
	user time   =       1.34 seconds =       0.02 minutes
	system time =       0.07 seconds =       0.00 minutes
	total time  =          1 seconds =       0.02 minutes
 MINTS: Wrapper to libmints.
   by Justin Turney

   Calculation information:
      Number of threads:                 1
      Number of atoms:                   6
      Number of AO shells:              24
      Number of SO shells:              18
      Number of primitives:             64
      Number of atomic orbitals:        50
      Number of basis functions:        48

      Number of irreps:                  4
      Integral cutoff                 1.00e-12
      Number of functions per irrep: [  22    4    8   14 ]

 OEINTS: Overlap, kinetic, potential, dipole, and quadrupole integrals
         stored in file 35.

      Computing two-electron integrals...done
      Computed 182944 non-zero two-electron integrals.
        Stored in file 33.


         ---------------------------------------------------------
                Multi-Configurational Self-Consistent Field
                            (a 'D E T C I' module)

                 Daniel G. A. Smith, C. David Sherrill, and
                              Matt L. Leininger
         ---------------------------------------------------------


   ==> Parameters <==

    EX LEVEL       =        2      H0 BLOCKSIZE  =     1000
    VAL EX LEVEL   =        0      H0 GUESS SIZE =     1000
    H0COUPLINGSIZE =        0      H0 COUPLING   =       NO
    MAXITER        =       12      NUM PRINT     =       20
    NUM ROOTS      =        3      ICORE         =        1
    PRINT LVL      =        1      FCI           =      YES
    R CONV         = 1.00e-07      MIXED         =      YES
    E CONV         = 1.00e-10      MIXED4        =      YES
    R4S            =       NO      REPL OTF      =       NO
    DIAG METHOD    =      SEM      FOLLOW ROOT   =        0
    PRECONDITIONER = DAVIDSON      UPDATE        = DAVIDSON
    S              =   0.0000      Ms0           =      YES
    GUESS VECTOR   =  H0BLOCK      OPENTYPE      =     NONE
    COLLAPSE SIZE  =        1      HD AVG        = EVANGELISTI
    MAX NUM VECS   =       39      REF SYM       =     AUTO
    IOPEN        =       NO

    EX ALLOW       =  1  1 
    STATE AVERAGE  =  0(0.33)  1(0.33)  2(0.33) 

   ==> CI Orbital and Space information <==

   ------------------------------------------------------
               Space    Total    A1    A2    B1    B2
   ------------------------------------------------------
                 Nso       48    22     4     8    14
                 Nmo       48    22     4     8    14
               Ndocc        8     5     0     1     2
               Nsocc        0     0     0     0     0
   ------------------------------------------------------
                        MCSCF Spaces
   ------------------------------------------------------
         Frozen DOCC        0     0     0     0     0
     Restricted DOCC        7     5     0     0     2
              Active        2     0     0     2     0
     Restricted UOCC       39    17     4     6    12
         Frozen UOCC        0     0     0     0     0
   ------------------------------------------------------

   ==> Setting up CI strings <==

    There are 2 alpha and 2 beta strings
    The CI space requires 4 (4.00E+00) determinants and 1 blocks

   ==> Setting up MCSCF integrals <==

  ==> DiskJK: Disk-Based J/K Matrices <==

    J tasked:                  Yes
    K tasked:                  Yes
    wK tasked:                  No
    Memory (MB):              3200
    Schwarz Cutoff:          1E-12


   ==> Starting MCSCF iterations <==

        Iter         Total Energy       Delta E   Orb RMS    CI RMS  NCI NORB
(sem_iter): H0block_->H0b_diag[1][1] - H0block_->H0b_diag[2][1] = -0.707107 - 0.707107 = -1.414214 > 1.0E-8
   @MCSCF  1:    -77.741580348940    2.9827e-01  2.50e-02  2.35e-14    1    1  Initial CI
   @MCSCF  2:    -77.747992238078   -6.4119e-03  8.76e-03  2.24e-14    1    1  TS
   @MCSCF  3:    -77.748669244080   -6.7701e-04  3.32e-03  2.30e-14    1    1  TS
   @MCSCF  4:    -77.748773043333   -1.0380e-04  1.40e-03  2.28e-14    1    1  TS
   @MCSCF  5:    -77.748789358654   -1.6315e-05  5.51e-04  2.28e-14    1    1  TS
   @MCSCF  6:    -77.748792003805   -2.6452e-06  2.34e-04  2.28e-14    1    1  TS
   @MCSCF  7:    -77.748792436873   -4.3307e-07  9.23e-05  2.29e-14    1    1  TS
   @MCSCF  8:    -77.748792508479   -7.1606e-08  3.90e-05  2.29e-14    1    1  TS
   @MCSCF  9:    -77.748792520373   -1.1893e-08  1.55e-05  2.28e-14    1    1  TS
   @MCSCF 10:    -77.748792522355   -1.9825e-09  6.53e-06  2.28e-14    1    1  TS
   @MCSCF 11:    -77.748792522686   -3.3104e-10  2.60e-06  2.29e-14    1    1  TS
   @MCSCF 12:    -77.748792522741   -5.5337e-11  1.09e-06  2.30e-14    1    1  TS
   @MCSCF 13:    -77.748792522751   -9.3365e-12  4.38e-07  2.29e-14    1    1  TS
   @MCSCF 14:    -77.748792522752   -1.5206e-12  1.83e-07  2.29e-14    1    1  TS
   @MCSCF 15:    -77.748792522753   -2.7001e-13  7.35e-08  2.28e-14    1    1  TS
   @MCSCF 16:    -77.748792522753   -1.1369e-13  3.06e-08  2.29e-14    1    1  TS, DIIS
   @MCSCF 17:    -77.748792522753    5.6843e-14  1.24e-08  2.30e-14    1    1  TS, DIIS
   @MCSCF 18:    -77.748792522753   -2.8422e-14  7.33e-09  2.29e-14    1    1  TS, DIIS

          @MCSCF has converged!

   @MCSCF Final Energy:  -77.748792522752694

   Computing CI Semicanonical Orbitals

   ==> Energetics <==

    SCF energy =          -78.039848389225824
    Total MCSCF energy =  -77.748792522752694

   ==> MCSCF root 0 information <==

    MCSCF Root 0 energy =   -78.054893417975336

   Active Space Natural occupation numbers:

        B1   1.927656        B1   0.072344

   The 4 most important determinants:

    *   1   -0.981747  (    0,    0)  1B1X 
    *   2    0.190189  (    1,    1)  2B1X 


   ==> MCSCF root 1 information <==

    MCSCF Root 1 energy =   -77.689989506989264

   Active Space Natural occupation numbers:

        B1   1.000000        B1   1.000000

   The 4 most important determinants:

    *   1    0.707107  (    1,    0)  1B1B 2B1A 
    *   2    0.707107  (    0,    1)  1B1A 2B1B 


   ==> MCSCF root 2 information <==

    MCSCF Root 2 energy =   -77.501494643293483

   Active Space Natural occupation numbers:

        B1   1.927656        B1   0.072344

   The 4 most important determinants:

    *   1   -0.981747  (    1,    1)  2B1X 
    *   2   -0.190189  (    0,    0)  1B1X 



Properties will be evaluated at   0.000000,   0.000000,   0.000000 Bohr

Properties computed using the CASSCF density matrix

  Nuclear Dipole Moment: (a.u.)
     X:     0.0000      Y:     0.0000      Z:     0.0000

  Electronic Dipole Moment: (a.u.)
     X:     0.0000      Y:     0.0000      Z:     0.0000

  Dipole Moment: (a.u.)
     X:     0.0000      Y:     0.0000      Z:     0.0000     Total:     0.0000

  Dipole Moment: (Debye)
     X:     0.0000      Y:     0.0000      Z:     0.0000     Total:     0.0000

	CASSCF energy.....................................................PASSED
   => Loading Basis Set <=

    Name: STO-3G
    Role: ORBITAL
    Keyword: MINAO_BASIS
    atoms 1-4 entry H          line    19 file /Users/york/src/psi4new/psi4/share/psi4/basis/sto-3g.gbs 
    atoms 5-6 entry C          line    61 file /Users/york/src/psi4new/psi4/share/psi4/basis/sto-3g.gbs 


Reading options from the FORTE block
Calling plugin forte.so.



  Forte
  ----------------------------------------------------------------------------
  A suite of quantum chemistry methods for strongly correlated electrons

    git branch: master - git commit: 1c92254a

  Developed by:
    Francesco A. Evangelista, Chenyang Li, Kevin P. Hannon,
    Jeffrey B. Schriber, Tianyuan Zhang, Chenxi Cai
  ----------------------------------------------------------------------------

  Size of Determinant class: 32

  ==> MO Space Information <==

  Read options for space FROZEN_DOCC
  Read options for space RESTRICTED_DOCC
  Read options for space ACTIVE
  Read options for space FROZEN_UOCC
 Removing orbital 0
 Removing orbital 1
  -------------------------------------------------
                       A1    A2    B1    B2   Sum
  -------------------------------------------------
    FROZEN_DOCC         2     0     0     0     2
    RESTRICTED_DOCC     3     0     0     2     5
    ACTIVE              0     0     2     0     2
    RESTRICTED_UOCC    17     4     6    12    39
    FROZEN_UOCC         0     0     0     0     0
    Total              22     4     8    14    48
  -------------------------------------------------

  ==> Integral Transformation <==

  Number of molecular orbitals:               48
  Number of correlated molecular orbitals:    46
  Number of frozen occupied orbitals:          2
  Number of frozen unoccupied orbitals:        0


  Overall Conventional Integrals timings

	Presorting SO-basis two-electron integrals.
	Sorting File: SO Ints (nn|nn) nbuckets = 1
	Transforming the one-electron integrals and constructing Fock matrices
	Starting first half-transformation.
	Sorting half-transformed integrals.
	First half integral transformation complete.
	Starting second half-transformation.
	Two-electron integral transformation complete.

  Integral transformation done. 0.20120900 s
  Reading the two-electron integrals from disk
  Size of two-electron integrals:   0.118652 GB
  Frozen-core energy            -78.536663613353 a.u.

  FrozenOneBody Operator takes  0.46727100 s
  Resorting integrals after freezing core.
  Conventional integrals take 1.74854300 s

              ---------------------------------------------------
                Complete Active Space Configuration Interaction
                                  Chenyang Li
              ---------------------------------------------------


  ==> Input Summary <==

    No. a electrons in active      =     1
    No. b electrons in active      =     1
    multiplicity                   =     1
    spin ms (2 * Sz)               =     0

  ==> Orbital Spaces <==

    TOTAL MO                      [   22     4     8    14 ]
    FROZEN CORE                   [    2     0     0     0 ]
    FROZEN VIRTUAL                [    0     0     0     0 ]
    CORRELATED MO                 [   20     4     8    14 ]
    CORE                          [    3     0     0     2 ]
    ACTIVE                        [    0     0     2     0 ]
    VIRTUAL                       [   17     4     6    12 ]

  ==> State Averaging Summary <==

    Irrep.  Multi.  Nstates            Weights
    ------------------------------------------
      A1       1        3    0.333 0.333 0.333
    ------------------------------------------
    Total number of states: 3
    ------------------------------------------

  Forming alpha and beta strings      ...  Done. Timing        0.000052 s
  Forming determinants                ...  Done. Timing        0.000021 s

  ==> Determinants Summary <==

    number of alpha active electrons    =     1
    number of beta active electrons     =     1
    root symmetry (zero based)          =     0
    number of determinants              =     4

  Diagonalizing Hamiltonian           ...
  Found 3 roots with 2S+1 = 1 *
  Found 1 roots with 2S+1 = 3  Done. Timing        0.000356 s

  * * * * * * * * * * * * * * * * *
  *  CI Vectors & Configurations  *
  * * * * * * * * * * * * * * * * *

  ==> Root No. 0 <==

    20          0.9817474498
    02         -0.1901892341

    Total Energy:   -78.054893417975322


  ==> Root No. 1 <==

    ba          0.7071067812
    ab          0.7071067812

    Total Energy:   -77.689989506989249


  ==> Root No. 2 <==

    02          0.9817474498
    20          0.1901892341

    Total Energy:   -77.501494643293483



  ==> Permanent Dipole Moments (A1) <==

  Only print nonzero (> 1.0e-5) elements.


  ==> Transition Dipole Moments (A1 -> A1) <==

  Only print nonzero (> 1.0e-5) elements.
  Transition dipole moments (a.u.) 0 -> 1:  X:  0.0000  Y:  0.0000  Z: -1.5317  Total:  1.5317
  Transition dipole moments (a.u.) 1 -> 2:  X:  0.0000  Y:  0.0000  Z: -2.2677  Total:  2.2677


  ==> Oscillator Strength (A1 -> A1) <==

  Only print nonzero (> 1.0e-5) elements.
  Oscillator strength (a.u.) 0 -> 1:  X:  0.0000  Y:  0.0000  Z:  0.5707  Total:  0.5707
  Oscillator strength (a.u.) 1 -> 2:  X:  0.0000  Y:  0.0000  Z:  0.6462  Total:  0.6462

  Total Energy (averaged over 3 states):  -77.748792522752680

  Computing 1-, 2- and 3-cumulants ... Done. Timing        0.011090 s


       -----------------------------------------------------------------
                            Semi-Canonical Orbitals
         Chenyang Li, Jeffrey B. Schriber and Francesco A. Evangelista
       -----------------------------------------------------------------

  Took 0.001953 s to build Fock matrix

  ==> Checking Fock Matrix Diagonal Blocks <==

    Off-Diag. Elements       Max           2-Norm
    ------------------------------------------------
    Fa actv              0.0000000000   0.0000000000
    Fb actv              0.0000000000   0.0000000000
    ------------------------------------------------
    Fa core              0.0000000000   0.0000000000
    Fb core              0.0000000000   0.0000000000
    ------------------------------------------------
    Fa virt              0.0000000000   0.0000000000
    Fb virt              0.0000000000   0.0000000000
    ------------------------------------------------
  Orbitals are already semicanonicalized.

  ==> Multireference Driven Similarity Renormalization Group <==

    Reading DSRG options ............................ Done
    Setting ambit MO space .......................... Done
    Preparing tensors for density cumulants ......... Done
    Building Fock matrix ............................ Done
    Preparing ambit tensors for dipole moments ...... Done

                  -------------------------------------------
                    MR-DSRG Third-Order Perturbation Theory
                                  Chenyang Li
                  -------------------------------------------

    Reference:
      J. Chem. Phys. 2017, 146, 124132.

  ==> Calculation Information <==

    ntamp                                                 15
    flow parameter                                 5.000e-01
    taylor expansion threshold                     1.000e-03
    intruder_tamp                                  1.000e-01
    int_type                                    CONVENTIONAL
    source operator                                 STANDARD
    reference relaxation                                NONE
    state_type                                   MULTI-STATE
    multi-state type                                 SA_FULL

  ==> Memory Infomation <==

    Memory asigned                                 513.80 MB
    Memory used before DSRG                        107.58 MB
    Density Cumulants (1, 2)                       512.00  B
    Asym MO tei (hhpp)                               1.98 MB
    Fock matrix                                     68.45 KB
    Hbar active (aa, aaaa)                         448.00  B
    Amplitudes (hp, hhpp)                            1.98 MB
    O intermediates (hp, hhpp)                       1.98 MB
    Memory remaining                               400.22 MB
    Energy part 1 min                                1.99 MB
    Energy part 2 min                               37.80 MB

  ==> Checking Semicanonical Orbitals <==

    Abs. max of Fock core, active, virtual blocks (Fij, i != j)
                  core          active         virtual
    --------------------------------------------------
    Fα    0.0000000000    0.0000000000    0.0000000000
    Fβ    0.0000000000    0.0000000000    0.0000000000
    --------------------------------------------------

    1-Norm of Fock core, active, virtual blocks (Fij, i != j)
                  core          active         virtual
    --------------------------------------------------
    Fα    0.0000000000    0.0000000000    0.0000000000
    Fβ    0.0000000000    0.0000000000    0.0000000000
    --------------------------------------------------

    Orbitals are semi-canonicalized.

  ==> First-Order Amplitudes <==

    Computing T2 amplitudes                  ...  Done. Timing      0.063 s
    Computing T1 amplitudes                  ...  Done. Timing      0.004 s
    Active Indices:   24   25 
    Largest T1 amplitudes for spin case A:
       i       a                  i       a                  i       a               
    --------------------------------------------------------------------------------
    [ 24      28    ] 0.019067 [ 24      30    ]-0.005708 [ 25      27    ]-0.003244 
    [ 24      26    ] 0.003086 [ 25      31    ] 0.003013 [ 25      29    ] 0.001842 
    [ 33      38    ]-0.000000 [ 32      37    ] 0.000000 [  2       6    ]-0.000000 
    [  0      10    ]-0.000000 [ 32      34    ]-0.000000 [  1      11    ] 0.000000 
    [  2       7    ]-0.000000 [  1       4    ] 0.000000 [  0       6    ] 0.000000 
    --------------------------------------------------------------------------------
    Norm of T1A vector: (nonzero elements: 43)                    0.020703248591999.
    --------------------------------------------------------------------------------
    Largest T1 amplitudes for spin case B:
       _       _                  _       _                  _       _               
       i       a                  i       a                  i       a               
    --------------------------------------------------------------------------------
    [ 24      28    ] 0.019067 [ 24      30    ]-0.005708 [ 25      27    ]-0.003244 
    [ 24      26    ] 0.003086 [ 25      31    ] 0.003013 [ 25      29    ] 0.001842 
    [ 33      38    ]-0.000000 [ 32      37    ] 0.000000 [  2       6    ]-0.000000 
    [  0      10    ]-0.000000 [ 32      34    ]-0.000000 [  1      11    ] 0.000000 
    [  2       7    ]-0.000000 [  1       4    ] 0.000000 [  0       6    ] 0.000000 
    --------------------------------------------------------------------------------
    Norm of T1B vector: (nonzero elements: 43)                    0.020703248591999.
    --------------------------------------------------------------------------------
    Largest T2 amplitudes for spin case AA:
       i   j   a   b              i   j   a   b              i   j   a   b           
    --------------------------------------------------------------------------------
    [ 24  25  25  28]-0.025635 [ 24  33  24  38]-0.025346 [  2  24   6  24]-0.024978 
    [ 24  32  24  37] 0.022924 [ 24  32  24  34]-0.022036 [  2  24   9  25]-0.021553 
    [  2  25   9  24]-0.019775 [ 25  33  25  38]-0.019690 [  0  24  10  24]-0.019066 
    [ 24  33  24  35]-0.018733 [  0  24   7  24] 0.018527 [  2  25   6  25]-0.018271 
    [ 25  32  25  37] 0.018005 [  2  25   8  28] 0.017985 [  1  24   4  24] 0.017875 
    --------------------------------------------------------------------------------
    Norm of T2AA vector: (nonzero elements: 8828)                 0.325265495810122.
    --------------------------------------------------------------------------------
    Largest T2 amplitudes for spin case AB:
           _       _                  _       _                  _       _           
       i   j   a   b              i   j   a   b              i   j   a   b           
    --------------------------------------------------------------------------------
    [ 24  24  24  26] 0.032473 [ 24  25  24  27]-0.031840 [  0   0  24  24]-0.031590 
    [ 25  25  27  27]-0.031144 [ 24  24  26  26]-0.029241 [ 24  25  26  27] 0.028438 
    [ 24  33  24  38]-0.026877 [ 24  25  25  28]-0.026501 [ 25  25  25  27]-0.026255 
    [  2  24   6  24]-0.024939 [ 24  32  24  34]-0.024024 [ 24  32  24  37] 0.023259 
    [  2  24   9  25]-0.022923 [  2  25   9  24]-0.022648 [ 25  25  24  28]-0.022613 
    --------------------------------------------------------------------------------
    Norm of T2AB vector: (nonzero elements: 10705)                0.361647353388998.
    --------------------------------------------------------------------------------
    Largest T2 amplitudes for spin case BB:
       _   _   _   _              _   _   _   _              _   _   _   _           
       i   j   a   b              i   j   a   b              i   j   a   b           
    --------------------------------------------------------------------------------
    [ 24  25  25  28]-0.025635 [ 24  33  24  38]-0.025346 [  2  24   6  24]-0.024978 
    [ 24  32  24  37] 0.022924 [ 24  32  24  34]-0.022036 [  2  24   9  25]-0.021553 
    [  2  25   9  24]-0.019775 [ 25  33  25  38]-0.019690 [  0  24  10  24]-0.019066 
    [ 24  33  24  35]-0.018733 [  0  24   7  24] 0.018527 [  2  25   6  25]-0.018271 
    [ 25  32  25  37] 0.018005 [  2  25   8  28] 0.017985 [  1  24   4  24] 0.017875 
    --------------------------------------------------------------------------------
    Norm of T2BB vector: (nonzero elements: 8828)                 0.325265495810122.
    --------------------------------------------------------------------------------

  ==> Possible Intruders <==

    T1 amplitudes larger than 0.1000 for spin case A: NULL
    T1 amplitudes larger than 0.1000 for spin case B: NULL
    T2 amplitudes larger than 0.1000 for spin case AA: NULL
    T2 amplitudes larger than 0.1000 for spin case AB: NULL
    T2 amplitudes larger than 0.1000 for spin case BB: NULL

  ==> Computing 3rd-Order Dipole Moment Contribution (1/2) <==

    Computing direction X                    ...  Done. Timing      3.295 s
    Computing direction Y                    ...  Done. Timing      3.717 s
    Computing direction Z                    ...  Done. Timing      3.535 s

  ==> Computing 3rd-Order Energy Contribution (1/3) <==

    Computing 3rd-order energy (1/3)         ...  Done. Timing      1.980 s
    Computing integrals for ref. relaxation  ...  Done. Timing      0.357 s

  ==> Computing 2nd-Order Correlation Energy <==

    Renormalizing two-electron integrals     ...  Done. Timing      0.057 s
    Renormalizing Fock matrix elements       ...  Done. Timing      0.005 s
    Computing 2nd-order energy               ...  Done. Timing      0.140 s
    Computing integrals for ref. relaxation  ...  Done. Timing      0.354 s

  ==> Computing 3rd-Order Energy Contribution (2/3) <==

    Preparing 2nd-order amplitudes           ...  Done. Timing      6.432 s
    Computing T2 amplitudes                  ...  Done. Timing      0.059 s
    Computing T1 amplitudes                  ...  Done. Timing      0.004 s
    Computing 3rd-order energy (2/3)         ...  Done. Timing      0.102 s
    Computing integrals for ref. relaxation  ...  Done. Timing      0.266 s

  ==> Second-Order Amplitudes Summary <==

    Active Indices:   24   25 
    Largest T1 amplitudes for spin case A:
       i       a                  i       a                  i       a               
    --------------------------------------------------------------------------------
    [ 25      27    ] 0.007620 [ 24      26    ]-0.006635 [  2      13    ] 0.003171 
    [ 33      43    ]-0.003120 [ 32      36    ] 0.003051 [  2      16    ]-0.002733 
    [ 32      37    ]-0.002641 [ 32      44    ] 0.002477 [ 32      41    ]-0.002444 
    [  0      13    ]-0.002233 [  2      18    ] 0.001942 [  1      11    ]-0.001930 
    [  1      14    ] 0.001822 [  2      12    ] 0.001810 [  1      17    ]-0.001723 
    --------------------------------------------------------------------------------
    Norm of T1A vector: (nonzero elements: 43)                    0.014409086675783.
    --------------------------------------------------------------------------------
    Largest T1 amplitudes for spin case B:
       _       _                  _       _                  _       _               
       i       a                  i       a                  i       a               
    --------------------------------------------------------------------------------
    [ 25      27    ] 0.007620 [ 24      26    ]-0.006635 [  2      13    ] 0.003171 
    [ 33      43    ]-0.003120 [ 32      36    ] 0.003051 [  2      16    ]-0.002733 
    [ 32      37    ]-0.002641 [ 32      44    ] 0.002477 [ 32      41    ]-0.002444 
    [  0      13    ]-0.002233 [  2      18    ] 0.001942 [  1      11    ]-0.001930 
    [  1      14    ] 0.001822 [  2      12    ] 0.001810 [  1      17    ]-0.001723 
    --------------------------------------------------------------------------------
    Norm of T1B vector: (nonzero elements: 43)                    0.014409086675783.
    --------------------------------------------------------------------------------
    Largest T2 amplitudes for spin case AA:
       i   j   a   b              i   j   a   b              i   j   a   b           
    --------------------------------------------------------------------------------
    [ 24  25  25  28] 0.007192 [ 24  33  24  38] 0.006247 [  2  24   6  24] 0.005837 
    [ 24  25  24  27] 0.005594 [ 24  32  24  37]-0.005392 [ 25  33  25  38] 0.004817 
    [ 24  32  24  34] 0.004817 [ 24  25  27  28] 0.004301 [ 25  32  25  37]-0.004298 
    [  2  25   6  25] 0.004102 [  2  24   7  24] 0.004084 [ 24  25  25  26] 0.003759 
    [  2  24   9  25] 0.003660 [ 25  32  25  34] 0.003619 [ 24  32  25  38] 0.003548 
    --------------------------------------------------------------------------------
    Norm of T2AA vector: (nonzero elements: 8828)                 0.055352594499689.
    --------------------------------------------------------------------------------
    Largest T2 amplitudes for spin case AB:
           _       _                  _       _                  _       _           
       i   j   a   b              i   j   a   b              i   j   a   b           
    --------------------------------------------------------------------------------
    [ 24  24  24  26]-0.010665 [ 24  25  24  27] 0.009860 [ 25  25  25  27] 0.008074 
    [  2  24   6  24] 0.005764 [ 24  33  24  38] 0.005517 [ 24  24  25  27] 0.005420 
    [ 24  25  25  28] 0.005340 [ 25  25  24  28] 0.005120 [ 24  32  24  37]-0.005056 
    [ 25  25  27  27] 0.004664 [ 24  32  24  34] 0.004422 [  2  25   6  25] 0.004334 
    [ 25  33  25  38] 0.004103 [ 24  25  25  26]-0.004012 [ 25  32  25  37]-0.003908 
    --------------------------------------------------------------------------------
    Norm of T2AB vector: (nonzero elements: 10705)                0.062269905447093.
    --------------------------------------------------------------------------------
    Largest T2 amplitudes for spin case BB:
       _   _   _   _              _   _   _   _              _   _   _   _           
       i   j   a   b              i   j   a   b              i   j   a   b           
    --------------------------------------------------------------------------------
    [ 24  25  25  28] 0.007192 [ 24  33  24  38] 0.006247 [  2  24   6  24] 0.005837 
    [ 24  25  24  27] 0.005594 [ 24  32  24  37]-0.005392 [ 25  33  25  38] 0.004817 
    [ 24  32  24  34] 0.004817 [ 24  25  27  28] 0.004301 [ 25  32  25  37]-0.004298 
    [  2  25   6  25] 0.004102 [  2  24   7  24] 0.004084 [ 24  25  25  26] 0.003759 
    [  2  24   9  25] 0.003660 [ 25  32  25  34] 0.003619 [ 24  32  25  38] 0.003548 
    --------------------------------------------------------------------------------
    Norm of T2BB vector: (nonzero elements: 8828)                 0.055352594499689.
    --------------------------------------------------------------------------------

  ==> Computing 3rd-Order Energy Contribution (3/3) <==

    Renormalizing Fock matrix elements       ...  Done. Timing      0.004 s
    Renormalizing two-electron integrals     ...  Done. Timing      0.050 s
    Computing 3rd-order energy (3/3)         ...  Done. Timing      0.096 s
    Computing integrals for ref. relaxation  ...  Done. Timing      0.269 s

  ==> DSRG-MRPT3 Energy Summary <==

    E0 (reference)                      =    -77.748792522752680
    2nd-order corr. energy              =     -0.292118816714759
    3rd-order corr. energy part 1       =      0.001348415649160
    3rd-order corr. energy part 2       =     -0.014741712658347
    3rd-order corr. energy part 3       =      0.001242666607853
    3rd-order corr. energy              =     -0.012150630401334
    DSRG-MRPT3 corr. energy             =     -0.304269447116093
    DSRG-MRPT3 total energy             =    -78.053061969868779

    Notes:
      3rd-order energy part 1: -1.0 / 12.0 * [[[H0th, A1st], A1st], A1st]
      3rd-order energy part 2: 0.5 * [H1st + Hbar1st, A2nd]
      3rd-order energy part 3: 0.5 * [Hbar2nd, A1st]
      Hbar1st = H1st + [H0th, A1st]
      Hbar2nd = 0.5 * [H1st + Hbar1st, A1st] + [H0th, A2nd]

  ==> Computing 3rd-Order Dipole Moment Contribution (2/2) <==

    Computing direction X                    ...  Done. Timing      1.824 s
    Computing direction Y                    ...  Done. Timing      1.752 s
    Computing direction Z                    ...  Done. Timing      1.743 s

  ==> DSRG-MRPT3 (unrelaxed) Dipole Moments (a.u.) <==

    Nuclear dipole moment:
      X:   0.000000  Y:   0.000000  Z:   0.000000

    Reference electronic dipole moment:
      X:   0.000000  Y:  -0.000000  Z:   0.000000

    DSRG-MRPT2 electronic dipole moment:
      X:   0.000000  Y:  -0.000000  Z:   0.000000

    DSRG-MRPT2 (2nd-order complete) electronic dipole moment:
      X:   0.000000  Y:  -0.000000  Z:   0.000000

    DSRG-MRPT3 electronic dipole moment:
      X:   0.000000  Y:  -0.000000  Z:   0.000000

    Reference dipole moment:
      X:   0.000000  Y:  -0.000000  Z:   0.000000  Total:   0.000000

    DSRG-MRPT2 dipole moment:
      X:   0.000000  Y:  -0.000000  Z:   0.000000  Total:   0.000000

    DSRG-MRPT2 (2nd-order complete) dipole moment:
      X:   0.000000  Y:  -0.000000  Z:   0.000000  Total:   0.000000

    DSRG-MRPT3 dipole moment:
      X:   0.000000  Y:  -0.000000  Z:   0.000000  Total:   0.000000


  ==> De-Normal-Order DSRG Transformed Hamiltonian <==

    Computing the scalar term                ... Done. Timing    0.002 s
    Computing the 1-body term                ... Done. Timing    0.001 s

  ==> Rotate DSRG Transformed Hamiltonian back to Original Basis <==

    Rotating 1-body term to original basis   ... Done. Timing    0.001 s
    Rotating 2-body term to original basis   ... Done. Timing    0.017 s

              ---------------------------------------------------
                Complete Active Space Configuration Interaction
                                  Chenyang Li
              ---------------------------------------------------


  ==> Input Summary <==

    No. a electrons in active      =     1
    No. b electrons in active      =     1
    multiplicity                   =     1
    spin ms (2 * Sz)               =     0

  ==> Orbital Spaces <==

    TOTAL MO                      [   22     4     8    14 ]
    FROZEN CORE                   [    2     0     0     0 ]
    FROZEN VIRTUAL                [    0     0     0     0 ]
    CORRELATED MO                 [   20     4     8    14 ]
    CORE                          [    3     0     0     2 ]
    ACTIVE                        [    0     0     2     0 ]
    VIRTUAL                       [   17     4     6    12 ]

  ==> State Averaging Summary <==

    Irrep.  Multi.  Nstates            Weights
    ------------------------------------------
      A1       1        3    0.333 0.333 0.333
    ------------------------------------------
    Total number of states: 3
    ------------------------------------------

  Forming alpha and beta strings      ...  Done. Timing        0.000031 s
  Forming determinants                ...  Done. Timing        0.000012 s

  ==> Determinants Summary <==

    number of alpha active electrons    =     1
    number of beta active electrons     =     1
    root symmetry (zero based)          =     0
    number of determinants              =     4

  Diagonalizing Hamiltonian           ...
  Found 3 roots with 2S+1 = 1 *
  Found 1 roots with 2S+1 = 3  Done. Timing        0.000295 s

  * * * * * * * * * * * * * * * * *
  *  CI Vectors & Configurations  *
  * * * * * * * * * * * * * * * * *

  ==> Root No. 0 <==

    20          0.9870848387
    02         -0.1601983808

    Total Energy:   -78.337068954478468


  ==> Root No. 1 <==

    ba          0.7071067812
    ab          0.7071067812

    Total Energy:   -78.005524020146765


  ==> Root No. 2 <==

    02          0.9870848387
    20          0.1601983808

    Total Energy:   -77.816592934981145



  ==> Permanent Dipole Moments (A1) <==

  Only print nonzero (> 1.0e-5) elements.


  ==> Transition Dipole Moments (A1 -> A1) <==

  Only print nonzero (> 1.0e-5) elements.
  Transition dipole moments (a.u.) 0 -> 1:  X:  0.0000  Y:  0.0000  Z: -1.6000  Total:  1.6000
  Transition dipole moments (a.u.) 1 -> 2:  X:  0.0000  Y:  0.0000  Z: -2.2200  Total:  2.2200


  ==> Oscillator Strength (A1 -> A1) <==

  Only print nonzero (> 1.0e-5) elements.
  Oscillator strength (a.u.) 0 -> 1:  X:  0.0000  Y:  0.0000  Z:  0.5658  Total:  0.5658
  Oscillator strength (a.u.) 1 -> 2:  X:  0.0000  Y:  0.0000  Z:  0.6207  Total:  0.6207

  Total Energy (averaged over 3 states):  -78.053061969868793


  ==> De-Normal-Order DSRG Transformed Dipole X Integrals <==

    Computing the scalar term                ... Done. Timing    0.002 s
    Computing the 1-body term                ... Done. Timing    0.001 s

  ==> Rotate DSRG Transformed Dipole X Integrals back to Original Basis <==

    Rotating 1-body term to original basis   ... Done. Timing    0.001 s
    Rotating 2-body term to original basis   ... Done. Timing    0.023 s

  ==> De-Normal-Order DSRG Transformed Dipole Y Integrals <==

    Computing the scalar term                ... Done. Timing    0.002 s
    Computing the 1-body term                ... Done. Timing    0.001 s

  ==> Rotate DSRG Transformed Dipole Y Integrals back to Original Basis <==

    Rotating 1-body term to original basis   ... Done. Timing    0.001 s
    Rotating 2-body term to original basis   ... Done. Timing    0.019 s

  ==> De-Normal-Order DSRG Transformed Dipole Z Integrals <==

    Computing the scalar term                ... Done. Timing    0.002 s
    Computing the 1-body term                ... Done. Timing    0.001 s

  ==> Rotate DSRG Transformed Dipole Z Integrals back to Original Basis <==

    Rotating 1-body term to original basis   ... Done. Timing    0.001 s
    Rotating 2-body term to original basis   ... Done. Timing    0.017 s

  ==> SA-DSRG-PT3 Dipole Moment (in a.u.) Summary <==

             State           X           Y           Z
    --------------------------------------------------
      0 Singlet A1    0.000000    0.000000    0.000000
      1 Singlet A1    0.000000    0.000000    0.000000
      2 Singlet A1    0.000000    0.000000    0.000000
    --------------------------------------------------

  ==> SA-DSRG-PT3 Oscillator Strength (in a.u.) Summary <==

                               State           X           Y           Z       Total
    --------------------------------------------------------------------------------
       0 Singlet A1 ->  1 Singlet A1    0.000000    0.000000    0.499676    0.499676
       0 Singlet A1 ->  2 Singlet A1    0.000000    0.000000    0.000000    0.000000
       1 Singlet A1 ->  2 Singlet A1    0.000000    0.000000    0.500290    0.500290
    --------------------------------------------------------------------------------

  ==> State-Average DSRG-MRPT3 Energy Summary <==

    Multi.  Irrep.  No.    DSRG-MRPT3 Energy
    -----------------------------------------
       1      A1     0       -78.337068954478
       1      A1     1       -78.005524020147
       1      A1     2       -77.816592934981
    -----------------------------------------

  ==> Total Timings (s) for Computing Commutators <==

             [H1, T1]    [H1, T2]    [H2, T1]    [H2, T2]
    -----------------------------------------------------
    -> C0       0.044       0.092       0.082       1.764
    -> C1       0.085       0.692       0.545       6.184
    -> C2                   2.914       1.182       7.226
    -----------------------------------------------------
	SA-DSRG-PT3 energy root 0.........................................PASSED

*** Psi4 exiting successfully. Buy a developer a beer!
