    -----------------------------------------------------------------------
          Psi4: An Open-Source Ab Initio Electronic Structure Package
                              Psi4 0.3.71 Driver

                          Git: Rev {master} 47c6ad3 dirty

    J. M. Turney, A. C. Simmonett, R. M. Parrish, E. G. Hohenstein,
    F. A. Evangelista, J. T. Fermann, B. J. Mintz, L. A. Burns, J. J. Wilke,
    M. L. Abrams, N. J. Russ, M. L. Leininger, C. L. Janssen, E. T. Seidl,
    W. D. Allen, H. F. Schaefer, R. A. King, E. F. Valeev, C. D. Sherrill,
    and T. D. Crawford, WIREs Comput. Mol. Sci. 2, 556-565 (2012)
    (doi: 10.1002/wcms.93)

                         Additional Contributions by
    A. E. DePrince, M. Saitow, U. Bozkaya, A. Yu. Sokolov
    -----------------------------------------------------------------------


    Psi4 started on: Thu Sep 17 14:46:42 2015

    Process ID:  22897
    PSI4DATADIR: /Users/ChenyangLi/src/psi4private/lib
    Memory level set to 256.000 MB

  ==> Input File <==

--------------------------------------------------------------------------
#! L-CTSD DZ energy for a H4 molecule.  This tests CT without symmetry.
#! The reference value is from a spin-integrated code.
#! Generated using commit GITCOMMIT

import forte

refscf = -2.00742527761572 #TEST
refct  = -2.069601874659799 #TEST

molecule hf {
0 1
H -0.4  0.0 0.0
H  0.4  0.0 0.0
H  0.1 -0.3 1.0
H -0.1  0.5 1.0
}

set {
  reference     rhf
  e_convergence 12
  freeze_core   false
  scf_type      pk
  df_scf_guess  false
}

set forte {
  job_type  sr-dsrg
  dsrg_s    1.0  
}

set basis DZ

energy('scf')
compare_values(refscf,get_variable("CURRENT ENERGY"),10,"SCF energy") #TEST

energy('forte')
compare_values(refct,get_variable("CURRENT ENERGY"),10,"SR-CTSD energy") #TEST
--------------------------------------------------------------------------
/Users/ChenyangLi/src/forte/forte.so loaded.

*** tstart() called on dhcp189-188.emerson.emory.edu
*** at Thu Sep 17 14:46:42 2015


         ---------------------------------------------------------
                                   SCF
            by Justin Turney, Rob Parrish, and Andy Simmonett
                              RHF Reference
                        1 Threads,    256 MiB Core
         ---------------------------------------------------------

  ==> Geometry <==

    Molecular point group: c1
    Full point group: C1

    Geometry (in Angstrom), charge = 0, multiplicity = 1:

       Center              X                  Y                   Z               Mass       
    ------------   -----------------  -----------------  -----------------  -----------------
           H         -0.400000000000    -0.050000000000    -0.500000000000     1.007825032070
           H          0.400000000000    -0.050000000000    -0.500000000000     1.007825032070
           H          0.100000000000    -0.350000000000     0.500000000000     1.007825032070
           H         -0.100000000000     0.450000000000     0.500000000000     1.007825032070

  Running in c1 symmetry.

  Rotational constants: A =     25.52952  B =     13.25079  C =     11.75880 [cm^-1]
  Rotational constants: A = 765355.63070  B = 397248.78268  C = 352519.82412 [MHz]
  Nuclear repulsion =    3.136690588132506

  Charge       = 0
  Multiplicity = 1
  Electrons    = 4
  Nalpha       = 2
  Nbeta        = 2

  ==> Algorithm <==

  SCF Algorithm Type is PK.
  DIIS enabled.
  MOM disabled.
  Fractional occupation disabled.
  Guess Type is CORE.
  Energy threshold   = 1.00e-12
  Density threshold  = 1.00e-06
  Integral threshold = 0.00e+00

  ==> Primary Basis <==

  Basis Set: DZ
    Number of shells: 8
    Number of basis function: 8
    Number of Cartesian functions: 8
    Spherical Harmonics?: false
    Max angular momentum: 0

  ==> Pre-Iterations <==

   -------------------------------------------------------
    Irrep   Nso     Nmo     Nalpha   Nbeta   Ndocc  Nsocc
   -------------------------------------------------------
     A          8       8       0       0       0       0
   -------------------------------------------------------
    Total       8       8       2       2       2       0
   -------------------------------------------------------

 OEINTS: Overlap, kinetic, potential, dipole, and quadrupole integrals
         stored in file 35.

  ==> Integral Setup <==

 MINTS: Wrapper to libmints.
   by Justin Turney

   Calculation information:
      Number of atoms:                   4
      Number of AO shells:               8
      Number of SO shells:               8
      Number of primitives:             16
      Number of atomic orbitals:         8
      Number of basis functions:         8

      Number of irreps:                  1
      Integral cutoff                 0.00e+00
      Number of functions per irrep: [   8 ]

 OEINTS: Overlap, kinetic, potential, dipole, and quadrupole integrals
         stored in file 35.

      Computing two-electron integrals...done
      Computed 666 non-zero two-electron integrals.
        Stored in file 33.

	Batch   1 pq = [       0,      36] index = [             0,666]
  ==> DiskJK: Disk-Based J/K Matrices <==

    J tasked:                  Yes
    K tasked:                  Yes
    wK tasked:                  No
    Memory (MB):               183
    Schwarz Cutoff:          1E-12

  Minimum eigenvalue in the overlap matrix is 9.7278882263E-02.
  Using Symmetric Orthogonalization.
  SCF Guess: Core (One-Electron) Hamiltonian.

  ==> Iterations <==

                        Total Energy        Delta E     RMS |[F,P]|

   @RHF iter   1:    -1.77009458860854   -1.77009e+00   6.38960e-02 
   @RHF iter   2:    -2.00455057535386   -2.34456e-01   7.27092e-03 DIIS
   @RHF iter   3:    -2.00741430172617   -2.86373e-03   4.13107e-04 DIIS
   @RHF iter   4:    -2.00742477843823   -1.04767e-05   5.30469e-05 DIIS
   @RHF iter   5:    -2.00742518429395   -4.05856e-07   2.02162e-05 DIIS
   @RHF iter   6:    -2.00742527746232   -9.31684e-08   1.25336e-06 DIIS
   @RHF iter   7:    -2.00742527759999   -1.37670e-10   3.49254e-07 DIIS
   @RHF iter   8:    -2.00742527761540   -1.54028e-11   7.93886e-08 DIIS
   @RHF iter   9:    -2.00742527761572   -3.28626e-13   2.18852e-09 DIIS

  ==> Post-Iterations <==

    Orbital Energies (a.u.)
    -----------------------

    Doubly Occupied:                                                      

       1A     -0.827678     2A     -0.346614  

    Virtual:                                                              

       3A      0.169316     4A      0.220596     5A      0.822585  
       6A      0.924490     7A      1.301996     8A      1.379181  

    Final Occupation by Irrep:
              A 
    DOCC [     2 ]

  Energy converged.

  @RHF Final Energy:    -2.00742527761572

   => Energetics <=

    Nuclear Repulsion Energy =              3.1366905881325060
    One-Electron Energy =                  -7.9396477644374066
    Two-Electron Energy =                   2.7955318986891768
    DFT Exchange-Correlation Energy =       0.0000000000000000
    Empirical Dispersion Energy =           0.0000000000000000
    PCM Polarization Energy =               0.0000000000000000
    EFP Energy =                            0.0000000000000000
    Total Energy =                         -2.0074252776157238

    Alert: EFP and PCM quantities not currently incorporated into SCF psivars.

Properties will be evaluated at   0.000000,   0.000000,   0.000000 Bohr
  ==> Properties <==


Properties computed using the SCF density matrix

  Nuclear Dipole Moment: (a.u.)
     X:     0.0000      Y:     0.0000      Z:     0.0000

  Electronic Dipole Moment: (a.u.)
     X:     0.0021      Y:    -0.0419      Z:    -0.0212

  Dipole Moment: (a.u.)
     X:     0.0021      Y:    -0.0419      Z:    -0.0212     Total:     0.0469

  Dipole Moment: (Debye)
     X:     0.0054      Y:    -0.1064      Z:    -0.0538     Total:     0.1193


  Saving occupied orbitals to File 180.

*** tstop() called on dhcp189-188.emerson.emory.edu at Thu Sep 17 14:46:42 2015
Module time:
	user time   =       0.18 seconds =       0.00 minutes
	system time =       0.01 seconds =       0.00 minutes
	total time  =          0 seconds =       0.00 minutes
Total time:
	user time   =       0.18 seconds =       0.00 minutes
	system time =       0.01 seconds =       0.00 minutes
	total time  =          0 seconds =       0.00 minutes
Reading options from the FORTE block
Calling plugin /Users/ChenyangLi/src/forte/forte.so.


  ==> MO Space Information <==

  -------------------------------
                        A   Sum
  -------------------------------
    FROZEN_DOCC         0     0
    RESTRICTED_DOCC     0     0
    ACTIVE              8     8
    RESTRICTED_UOCC     0     0
    FROZEN_UOCC         0     0
    Total               8     8
  -------------------------------

  ==> Integral Transformation <==

  Number of molecular orbitals:                8
  Number of correlated molecular orbitals:     8
  Number of frozen occupied orbitals:          0
  Number of frozen unoccupied orbitals:        0


 Overall Conventional Integrals timings	Presorting SO-basis two-electron integrals.
	Sorting File: SO Ints (nn|nn) nbuckets = 1
	Transforming the one-electron integrals and constructing Fock matrices
	Starting first half-transformation.
	Sorting half-transformed integrals.
	First half integral transformation complete.
	Starting second half-transformation.
	Two-electron integral transformation complete.

  Integral transformation done. 0.00482100 s
  Reading the two-electron integrals from disk
  Size of two-electron integrals:   0.000092 GB
 Conventional integrals take 0.00539900 s

      --------------------------------------
          Similarity Renormalization Group
                tensor-based code

                Version 0.2.2

       written by Francesco A. Evangelista
      --------------------------------------

      Debug level = 0
      Print level = 1

      Energy convergence = 1.000000e-12


    SCF energy                            =   -2.007425277615724
    SRG-PT2 correlation energy            =   -0.039235500955058
  * SRG-PT2 total energy                  =   -2.046660778570782

  Driven Similarity Renormalization Group with Singles and Doubles (s = 1.000000 a.u.)
  --------------------------------------------------------------------------------------------------
         Cycle     Energy (a.u.)     Delta(E)   |Hbar1|    |Hbar2|     |S1|    |S2|  max(S1) max(S2)
  --------------------------------------------------------------------------------------------------
    @CT    0      -2.066888943691  -2.067e+00  9.665e-03  5.830e-02  0.0089  0.1644  0.0060 -0.0434
    @CT    1      -2.068607971964  -1.719e-03  7.195e-03  4.391e-02  0.0132  0.1807  0.0089 -0.0474
    @CT    2      -2.069181970365  -5.740e-04  6.139e-03  3.947e-02  0.0151  0.1876  0.0102 -0.0489
    @CT    3      -2.069412359653  -2.304e-04  5.698e-03  3.789e-02  0.0159  0.1907  0.0108 -0.0496
    @CT    4      -2.069513885060  -1.015e-04  5.510e-03  3.725e-02  0.0162  0.1921  0.0111 -0.0498
    @CT    5      -2.069560553682  -4.667e-05  5.427e-03  3.697e-02  0.0164  0.1927  0.0112 -0.0499
    @CT    6      -2.069582387095  -2.183e-05  5.390e-03  3.684e-02  0.0165  0.1930  0.0112 -0.0500 -> DIIS
    @CT    7      -2.069601870082  -1.948e-05  5.360e-03  3.673e-02  0.0165  0.1933  0.0113 -0.0500
    @CT    8      -2.069601872335  -2.253e-09  5.360e-03  3.673e-02  0.0165  0.1933  0.0113 -0.0500
    @CT    9      -2.069601873355  -1.020e-09  5.360e-03  3.673e-02  0.0165  0.1933  0.0113 -0.0500
    @CT   10      -2.069601873900  -5.449e-10  5.360e-03  3.673e-02  0.0165  0.1933  0.0113 -0.0500
    @CT   11      -2.069601874214  -3.137e-10  5.360e-03  3.673e-02  0.0165  0.1933  0.0113 -0.0500 -> DIIS
    @CT   12      -2.069601874649  -4.351e-10  5.360e-03  3.673e-02  0.0165  0.1933  0.0113 -0.0500
    @CT   13      -2.069601874655  -6.371e-12  5.360e-03  3.673e-02  0.0165  0.1933  0.0113 -0.0500
    @CT   14      -2.069601874658  -2.769e-12  5.360e-03  3.673e-02  0.0165  0.1933  0.0113 -0.0500
    @CT   15      -2.069601874659  -1.240e-12  5.360e-03  3.673e-02  0.0165  0.1933  0.0113 -0.0500
    @CT   16      -2.069601874660  -5.631e-13  5.360e-03  3.673e-02  0.0165  0.1933  0.0113 -0.0500
  --------------------------------------------------------------------------------------------------


    DSRG-SD correlation energy      =        -0.062176597044078
  * DSRG-SD total energy            =        -2.069601874659802


              ============== TIMINGS ============
              Time for [A1,B1] -> C0 :      0.063
              Time for [A1,B1] -> C1 :      0.203
              Time for [A1,B2] -> C0 :      0.000
              Time for [A1,B2] -> C1 :      0.827
              Time for [A1,B2] -> C2 :      5.621
              Time for [A2,B2] -> C0 :      0.230
              Time for [A2,B2] -> C1 :      1.309
              Time for [A2,B2] -> C2 :      4.617
              ===================================

              The commutator was called 193 times

 Your calculation took 14.31952100 seconds
*** PSI4 exiting successfully. Buy a developer a beer!
