    -----------------------------------------------------------------------
          PSI4: An Open-Source Ab Initio Electronic Structure Package
                              PSI 4.0 Driver

               Git: Rev {master} 556e8139d3cfa1f96ccffe2cdf22cc56a185d2b2

    J. M. Turney, A. C. Simmonett, R. M. Parrish, E. G. Hohenstein,
    F. A. Evangelista, J. T. Fermann, B. J. Mintz, L. A. Burns, J. J. Wilke,
    M. L. Abrams, N. J. Russ, M. L. Leininger, C. L. Janssen, E. T. Seidl,
    W. D. Allen, H. F. Schaefer, R. A. King, E. F. Valeev, C. D. Sherrill,
    and T. D. Crawford, WIREs Comput. Mol. Sci. 2, 556-565 (2012)
    (doi: 10.1002/wcms.93)

                         Additional Contributions by
    A. E. DePrince, M. Saitow, U. Bozkaya, A. Yu. Sokolov
    -----------------------------------------------------------------------

    Process ID:   2500
    PSI4DATADIR: /Users/kevinhannon/Programs/psi4cmake/psi4/lib
    Memory level set to 256.000 MB

  ==> Input File <==

--------------------------------------------------------------------------
import libbtl
import libadaptive

refrhf       = -2.17907771115918
refdsrgpt2   = -2.238711801896253

memory 500 mb

molecule H4{
  0 1
  H  0.0 0.0 0.0
  H  0.0 0.0 0.7
  H  0.0 1.4 0.0
  H  0.0 1.4 0.7
}

set globals{
   basis                   cc-pvdz
   df_basis_mp2            cc-pvdz-ri
   reference               rhf
   scf_type                pk
   d_convergence           12
   e_convergence           15
   maxiter                 300
}

set libadaptive{
   restricted_docc         [0,0,0,0,0,0,0,0]
   active                  [1,0,0,1,0,1,1,0]
   root_sym                0
   nroot                   1
   dsrg_s                  0.5
   threepdc                mk
   int_type                df
}

energy('rhf')
energy('three-dsrg-mrpt2')

compare_values(refrhf,get_variable("SCF total energy"),10,"SCF energy")
compare_values(refdsrgpt2,get_variable("CURRENT ENERGY"),10,"DSRG-MRPT2 energy")
--------------------------------------------------------------------------

*** tstart() called on Kevins-MacBook-Pro.local
*** at Wed Apr  8 11:54:04 2015

/Users/kevinhannon/Programs/DSRG/libbtl/libbtl.so loaded.
/Users/kevinhannon/Programs/DSRG/libadaptive/libadaptive.so loaded.

  Memory set to 500.000 MiB by Python script.

*** tstart() called on Kevins-MacBook-Pro.local
*** at Wed Apr  8 11:54:04 2015


         ---------------------------------------------------------
                                   SCF
            by Justin Turney, Rob Parrish, and Andy Simmonett
                              RHF Reference
                        1 Threads,    500 MiB Core
         ---------------------------------------------------------

  ==> Geometry <==

    Molecular point group: d2h
    Full point group: D2h

    Geometry (in Angstrom), charge = 0, multiplicity = 1:

       Center              X                  Y                   Z       
    ------------   -----------------  -----------------  -----------------
           H          0.000000000000    -0.700000000000    -0.350000000000
           H          0.000000000000    -0.700000000000     0.350000000000
           H         -0.000000000000     0.700000000000    -0.350000000000
           H         -0.000000000000     0.700000000000     0.350000000000

  Running in d2h symmetry.

  Rotational constants: A =     34.13621  B =      8.53405  C =      6.82724 [cm^-1]
  Rotational constants: A = 1023377.76068  B = 255844.44017  C = 204675.55214 [MHz]
  Nuclear repulsion =    2.944060157129043

  Charge       = 0
  Multiplicity = 1
  Electrons    = 4
  Nalpha       = 2
  Nbeta        = 2

  ==> Algorithm <==

  SCF Algorithm Type is PK.
  DIIS enabled.
  MOM disabled.
  Fractional occupation disabled.
  Guess Type is CORE.
  Energy threshold   = 1.00e-15
  Density threshold  = 1.00e-12
  Integral threshold = 0.00e+00

  ==> Primary Basis <==

  Basis Set: CC-PVDZ
    Number of shells: 12
    Number of basis function: 20
    Number of Cartesian functions: 20
    Spherical Harmonics?: true
    Max angular momentum: 1

  ==> Pre-Iterations <==

   -------------------------------------------------------
    Irrep   Nso     Nmo     Nalpha   Nbeta   Ndocc  Nsocc
   -------------------------------------------------------
     Ag         4       4       0       0       0       0
     B1g        1       1       0       0       0       0
     B2g        1       1       0       0       0       0
     B3g        4       4       0       0       0       0
     Au         1       1       0       0       0       0
     B1u        4       4       0       0       0       0
     B2u        4       4       0       0       0       0
     B3u        1       1       0       0       0       0
   -------------------------------------------------------
    Total      20      20       2       2       2       0
   -------------------------------------------------------

  Starting with a DF guess...

 OEINTS: Overlap, kinetic, potential, dipole, and quadrupole integrals
         stored in file 35.

  ==> Integral Setup <==

  ==> DFJK: Density-Fitted J/K Matrices <==

    J tasked:                  Yes
    K tasked:                  Yes
    wK tasked:                  No
    OpenMP threads:              1
    Integrals threads:           1
    Memory (MB):               357
    Algorithm:                Core
    Integral Cache:           NONE
    Schwarz Cutoff:          1E-12
    Fitting Condition:       1E-12

   => Auxiliary Basis Set <=

  Basis Set: 
    Number of shells: 36
    Number of basis function: 92
    Number of Cartesian functions: 100
    Spherical Harmonics?: true
    Max angular momentum: 2

  Minimum eigenvalue in the overlap matrix is 2.4975801198E-02.
  Using Symmetric Orthogonalization.
  SCF Guess: Core (One-Electron) Hamiltonian.

  ==> Iterations <==

                           Total Energy        Delta E     RMS |[F,P]|

   @DF-RHF iter   1:    -1.95292987017424   -1.95293e+00   6.19459e-02 
   @DF-RHF iter   2:    -2.17582780032457   -2.22898e-01   6.77175e-03 DIIS
   @DF-RHF iter   3:    -2.17904859752647   -3.22080e-03   6.61407e-04 DIIS
   @DF-RHF iter   4:    -2.17907233222067   -2.37347e-05   4.89893e-05 DIIS
   @DF-RHF iter   5:    -2.17907249980573   -1.67585e-07   5.36655e-06 DIIS
   @DF-RHF iter   6:    -2.17907250153058   -1.72485e-09   4.17443e-07 DIIS
   @DF-RHF iter   7:    -2.17907250154434   -1.37570e-11   9.17096e-09 DIIS
   @DF-RHF iter   8:    -2.17907250154434   -1.77636e-15   1.21254e-09 DIIS
   @DF-RHF iter   9:    -2.17907250154434   -3.55271e-15   8.69193e-12 DIIS
   @DF-RHF iter  10:    -2.17907250154434    0.00000e+00   1.01363e-12 DIIS
   @DF-RHF iter  11:    -2.17907250154434    8.88178e-16   3.24065e-15 DIIS

  DF guess converged.

  ==> Integral Setup <==

 MINTS: Wrapper to libmints.
   by Justin Turney

   Calculation information:
      Number of atoms:                   4
      Number of AO shells:              12
      Number of SO shells:               3
      Number of primitives:             20
      Number of atomic orbitals:        20
      Number of basis functions:        20

      Number of irreps:                  8
      Integral cutoff                 0.00e+00
      Number of functions per irrep: [   4    1    1    4    1    4    4    1 ]

 OEINTS: Overlap, kinetic, potential, dipole, and quadrupole integrals
         stored in file 35.

      Computing two-electron integrals...done
      Computed 3319 non-zero two-electron integrals.
        Stored in file 33.

	Batch   1 pq = [       0,      44] index = [             0,990]
  ==> DiskJK: Disk-Based J/K Matrices <==

    J tasked:                  Yes
    K tasked:                  Yes
    wK tasked:                  No
    Memory (MB):               357
    Schwarz Cutoff:          1E-12

   @RHF iter  12:    -2.17907770604337   -5.20450e-06   1.04416e-05 DIIS
   @RHF iter  13:    -2.17907771100497   -4.96161e-09   1.50828e-06 DIIS
   @RHF iter  14:    -2.17907771115520   -1.50231e-10   2.30619e-07 DIIS
   @RHF iter  15:    -2.17907771115918   -3.97282e-12   4.51505e-09 DIIS
   @RHF iter  16:    -2.17907771115918    0.00000e+00   1.24905e-10 DIIS
   @RHF iter  17:    -2.17907771115918   -1.77636e-15   1.93900e-11 DIIS
   @RHF iter  18:    -2.17907771115918    8.88178e-16   5.98632e-13 DIIS

  ==> Post-Iterations <==

    Orbital Energies (a.u.)
    -----------------------

    Doubly Occupied:                                                      

       1Ag    -0.731109     1B2u   -0.473172  

    Virtual:                                                              

       1B1u    0.149152     1B3g    0.312110     2Ag     0.467948  
       2B2u    0.487205     2B1u    0.888424     2B3g    1.029316  
       3Ag     1.093503     1B3u    1.157482     1B1g    1.442832  
       3B1u    1.883852     4Ag     1.902987     1B2g    1.930967  
       3B2u    1.999378     4B2u    2.160832     1Au     2.213770  
       3B3g    2.724004     4B1u    3.829643     4B3g    4.017613  

    Final Occupation by Irrep:
             Ag   B1g   B2g   B3g    Au   B1u   B2u   B3u 
    DOCC [     1,    0,    0,    0,    0,    0,    1,    0 ]

  Energy converged.

  @RHF Final Energy:    -2.17907771115918

   => Energetics <=

    Nuclear Repulsion Energy =              2.9440601571290435
    One-Electron Energy =                  -7.8377143748750129
    Two-Electron Energy =                   2.7145765065867917
    DFT Exchange-Correlation Energy =       0.0000000000000000
    Empirical Dispersion Energy =           0.0000000000000000
    PCM Polarization Energy =               0.0000000000000000
    EFP Energy =                            0.0000000000000000
    Total Energy =                         -2.1790777111591777

    Alert: EFP and PCM quantities not currently incorporated into SCF psivars.

Properties will be evaluated at   0.000000,   0.000000,   0.000000 Bohr
  ==> Properties <==


Properties computed using the SCF density matrix

  Nuclear Dipole Moment: (a.u.)
     X:     0.0000      Y:     0.0000      Z:     0.0000

  Electronic Dipole Moment: (a.u.)
     X:     0.0000      Y:     0.0000      Z:     0.0000

  Dipole Moment: (a.u.)
     X:     0.0000      Y:     0.0000      Z:     0.0000     Total:     0.0000

  Dipole Moment: (Debye)
     X:     0.0000      Y:     0.0000      Z:     0.0000     Total:     0.0000


  Saving occupied orbitals to File 180.

*** tstop() called on Kevins-MacBook-Pro.local at Wed Apr  8 11:54:04 2015
Module time:
	user time   =       0.41 seconds =       0.01 minutes
	system time =       0.01 seconds =       0.00 minutes
	total time  =          0 seconds =       0.00 minutes
Total time:
	user time   =       0.42 seconds =       0.01 minutes
	system time =       0.02 seconds =       0.00 minutes
	total time  =          0 seconds =       0.00 minutes
Reading options from the LIBADAPTIVE block
Calling plugin libadaptive.so.

  ==> Integral Transformation <==

  Number of molecular orbitals:               20
  Number of correlated molecular orbitals:    20
  Number of frozen occupied orbitals:          0
  Number of frozen unoccupied orbitals:        0

	Presorting SO-basis two-electron integrals.
	Sorting File: SO Ints (nn|nn) nbuckets = 1
	Transforming the one-electron integrals and constructing Fock matrices
	Starting first half-transformation.
	Sorting half-transformed integrals.
	First half integral transformation complete.
	Starting second half-transformation.
	Two-electron integral transformation complete.

  Integral transformation done.	Presorting SO-basis two-electron integrals.
	Sorting File: SO Ints (nn|nn) nbuckets = 1
	Transforming the one-electron integrals and constructing Fock matrices
	Starting first half-transformation.
	Sorting half-transformed integrals.
	First half integral transformation complete.
	Starting second half-transformation.
	Two-electron integral transformation complete.

  Integral transformation done.
 Computing Density fitted integrals 

 Number of auxiliary basis functions:  56

  ***************************************************
  *                                                 *
  * Complete Active Space Configuration Interaction *
  *                                                 *
  *                 by Chenyang Li                  *
  *                                                 *
  ***************************************************


  Options:
  ----------------------------------------------------------------------------
  ACTIVE                      => [ 1, 0, 0, 1, 0, 1, 1, 0 ] !
  ADAPTIVE_BETA               => FALSE                       
  BENCH                       => 0                           
  CASTYPE                     => CAS                         
  CC_TYPE                     => CONVENTIONAL                
  CHARGE                      => 0                           
  CHOLESKY_TOLERANCE          => 1e-06                       
  COMPUTE_ENERGY              => TRUE                        
  DEATH_PARENT_ONLY           => FALSE                       
  DEBUG                       => 0                           
  DELTA_EXPONENT              => 2                           
  DEN_THRESHOLD               => 1.5                         
  DERTYPE                     => NONE                        
  DETTOUR_WRITE_FILE          => FALSE                       
  DET_THRESHOLD               => 1                           
  DF_BASIS_CC                 => (empty)                     
  DIAG_ALGORITHM              => DAVIDSON                    
  DIE_IF_NOT_CONVERGED        => TRUE                        
  DKH_ORDER                   => 2                           
  DOCC                        => [  ]                        
  DOD_BINS                    => 2000                        
  DOD_BIN_WIDTH               => 0.05                        
  DOD_FORMAT                  => HISTOGRAM                   
  DSRGPT                      => TRUE                        
  DSRG_POWER                  => 2                           
  DSRG_S                      => 0.5                        !
  DYNAMIC_PRESCREENING        => FALSE                       
  ENERGY_ESTIMATE_FREQ        => 25                          
  ENERGY_ESTIMATE_THRESHOLD   => 1e-06                       
  ENERGY_TYPE                 => FULL                        
  EXPLORER_ALGORITHM          => DENOMINATORS                
  EXTERNAL_POTENTIAL_SYMMETRY => FALSE                       
  E_CONVERGENCE               => 1e-15                      !
  FAST_EVAR                   => FALSE                       
  FREEZE_CORE                 => FALSE                       
  FROZEN_DOCC                 => [  ]                        
  FROZEN_UOCC                 => [  ]                        
  GUESS_SPAWNING_THRESHOLD    => 0.01                        
  H_BUFFER                    => 0                           
  H_TYPE                      => FIXED_ENERGY                
  IMRCISD_SIZE                => 0                           
  IMRCISD_TEST_SIZE           => 0                           
  INITIATOR_NA                => 3                           
  INTEGRAL_PACKAGE            => ERD                         
  INTRUDER_TAMP               => 0.1                         
  INT_TYPE                    => DF                         !
  ISA_B                       => 0.02                        
  JOB_TYPE                    => THREE_DSRG-MRPT2           !
  LITERAL_CFOUR               => (empty)                     
  MAT_NUM_COLUMN_PRINT        => 5                           
  MAXBETA                     => 1000                        
  MAXITER                     => 300                        !
  MAX_EXC_LEVEL               => 0                           
  MAX_NDETS                   => 1000000                     
  MIN_EXC_LEVEL               => 0                           
  MS                          => 0                           
  MULTI                       => 1                           
  MULTIPLICITY                => 0                           
  NDETS                       => 100                         
  NPOP                        => 100                         
  NROOT                       => 1                          !
  NTAMP                       => 15                          
  NUM_FROZEN_DOCC             => 0                           
  NUM_FROZEN_UOCC             => 0                           
  PCM                         => FALSE                       
  PCM_SCF_TYPE                => TOTAL                       
  PRINT                       => 1                           
  PRINT_CI_VECTOR             => 0.05                        
  PROPAGATOR                  => LINEAR                      
  PROPERTIES                  => [  ]                        
  PROPERTIES_ORIGIN           => [  ]                        
  PUREAM                      => TRUE                        
  RELATIVISTIC                => NO                          
  RENORMALIZATION_STEPS       => 10                          
  REN_MAX_NDETS               => 1000                        
  RESTRICTED_DOCC             => [ 0, 0, 0, 0, 0, 0, 0, 0 ] !
  RESTRICT_EXCITATION         => 0                           
  ROOT                        => 0                           
  ROOT_SYM                    => 0                          !
  SAVE_HBAR                   => FALSE                       
  SCREENING_TYPE              => MP                          
  SELECT                      => FALSE                       
  SELECT_TYPE                 => AMP                         
  SEMI_CANONICAL              => TRUE                        
  SHIFT_DAMP                  => 0.1                         
  SHIFT_FREQ                  => 10                          
  SHIFT_NUM_WALKERS           => 10000                       
  SIMPLE_PRESCREENING         => FALSE                       
  SMOOTH                      => FALSE                       
  SMOOTH_THRESHOLD            => 0.01                        
  SMO_THRESHOLD               => 0                           
  SOCC                        => [  ]                        
  SOURCE                      => STANDARD                    
  SPACE_I_THRESHOLD           => 1000                        
  SPACE_M_THRESHOLD           => 1000                        
  SPAWNING_THRESHOLD          => 0.001                       
  SPAWN_TYPE                  => RANDOM                      
  SRG_COMM                    => STANDARD                    
  SRG_DT                      => 0.001                       
  SRG_ETA                     => WHITE                       
  SRG_MODE                    => SRG                         
  SRG_ODEINT                  => FEHLBERG78                  
  SRG_ODEINT_ABSERR           => 1e-12                       
  SRG_ODEINT_RELERR           => 1e-12                       
  SRG_OP                      => UNITARY                     
  SRG_RSC_NCOMM               => 20                          
  SRG_RSC_THRESHOLD           => 1e-12                       
  SRG_SMAX                    => 10                          
  START_NUM_WALKERS           => 1000                        
  T1_ZERO                     => FALSE                       
  T2_THRESHOLD                => 1e-06                       
  TAU                         => 0.01                        
  TAUP                        => 0.01                        
  TAUQ                        => 1e-06                       
  TAYLOR_THRESHOLD            => 3                           
  THREEPDC                    => MK                         !
  TWOPDC                      => MK                          
  T_ALGORITHM                 => DSRG                        
  UNITS                       => ANGSTROMS                   
  USE_INITIATOR               => FALSE                       
  USE_SHIFT                   => FALSE                       
  WFN                         => SCF                         
  WRITER_FILE_LABEL           => (empty)                     
  WRITE_DEN_ENERGY            => FALSE                       
  WRITE_DET_ENERGY            => TRUE                        
  WRITE_EXC_LEVEL             => FALSE                       
  WRITE_OCCUPATION            => TRUE                        



  Number of Atoms   =          4,   Number of Electrons  =          4
  Molecular Charge  =          0,   Multiplicity         =          1
  Number of alpha   =          2,   Number of beta       =          2
  Number of MO      =         20,   Number of Virtual    =         16

  Irrep:
  Basis            4  1  1  4  1  4  4  1
  Frozen Core      0  0  0  0  0  0  0  0
  Frozen Virtual   0  0  0  0  0  0  0  0
  Correlate        4  1  1  4  1  4  4  1
  Core             0  0  0  0  0  0  0  0
  Active           1  0  0  1  0  1  1  0
  Virtual          3  1  1  3  1  3  3  1

  Correlating Subspace Indices:
  Core           
  Active           0   6  11  15 
  Virtual          1   2   3   4   5   7   8   9  10  12  13  14  16  17  18  19 
  Hole             0   6  11  15 
  Particle         0   6  11  15   1   2   3   4   5   7   8   9  10  12  13  14  16  17  18  19 
            

  Forming the alpha and beta strings ...				Done.
  Forming the determinants with correct symmetry ...			Done.
  Wavefunction symmetry: 0
  Number of active electrons:     4 (a = 2, b = 2)
  Number of determinants:        12

  * * * * * * * * * * * * * * * * *
  *  CI Vectors & Configurations  *
  * * * * * * * * * * * * * * * * *

  ==> Root No. 1 <==

    2 0 0 2           -0.99770369

    Total Energy:   -2.184657300759430


  Forming one-particle density matrix ...				Done.
  Forming generalized Fock matrix ...					Done.
  Checking Fock matrices (Fa, Fb) ... 
  Nonzero criteria: > 1.0E-14
  Fa_core    block is diagonal.
  Fb_core    block is diagonal.
  Fa_active  block is diagonal.
  Fb_active  block is diagonal.
  Warning: Fa_virtual NOT diagonal!
  Nonzero off-diagonal:    27. Largest value:  0.000807137127554
  Warning: Fb_virtual NOT diagonal!
  Nonzero off-diagonal:    27. Largest value:  0.000807137127554
  Done checking Fock matrices.

  Use semi-canonical orbitals.	Presorting SO-basis two-electron integrals.
	Sorting File: SO Ints (nn|nn) nbuckets = 1
	Transforming the one-electron integrals and constructing Fock matrices
	Starting first half-transformation.
	Sorting half-transformed integrals.
	First half integral transformation complete.
	Starting second half-transformation.
	Two-electron integral transformation complete.

  Integral transformation done.
 Computing Density fitted integrals 

 Number of auxiliary basis functions:  56
  * * * * * * * * * * * * * * * * *
  *  CI Vectors & Configurations  *
  * * * * * * * * * * * * * * * * *

  ==> Root No. 1 <==

    2 0 0 2           -0.99770369

    Total Energy:   -2.184657300759414


  Forming one-particle density matrix ...				Done.
  Forming generalized Fock matrix ...					Done.
  Checking Fock matrices (Fa, Fb) ... 
  Nonzero criteria: > 1.0E-14
  Fa_core    block is diagonal.
  Fb_core    block is diagonal.
  Fa_active  block is diagonal.
  Fb_active  block is diagonal.
  Warning: Fa_virtual NOT diagonal!
  Nonzero off-diagonal:     2. Largest value:  0.000000000000012
  Warning: Fb_virtual NOT diagonal!
  Nonzero off-diagonal:     2. Largest value:  0.000000000000012
  Done checking Fock matrices.

  Forming two-particle density cumulant ...				Done.
  Forming three-particle density cumulant ...				Done.

	  ---------------------------------------------------------
	      DF/CD - Driven Similarity Renormalization Group MBPT2
	                   Kevin Hannon and Chenyang (York) Li
	  ---------------------------------------------------------
  Reference Energy = -2.184657300759432
 Building cholesky integrals
 Memory info 

 Size of V: 0.001192 Gb 

 Size of Lambda2: 0.000002 Gb

 Size of Lambda3: 0.000031 Gb

 Size of T2: 0.000048 Gb

 Size of DF/CD Integrals: 0.000167 Gb


  ==> Calculation Information <==

    Flow parameter                           5.000e-01
    Cholesky Tolerance                       1.000e-06
    Taylor expansion threshold               1.000e-03
    int_type                                        DF
    Computing T2                         ......Done. Timing        0.007706 s
    Computing T1                         ......Done. Timing        0.004111 s
    Renormalizing V                      ......Done. Timing        0.031380 s
    Renormalizing F                      ......Done. Timing        0.005104 s
    Computing <[F,T1]>                   ......Done. Timing        0.007217 s
    Computing <[F, T2]>                  ......Done. Timing        0.003688 s
    Computing <[V, T1]>                  ......Done. Timing        0.006830 s
    Computing <[V, T2]> (C_2)^4 (no ccvv) ......Done. Timing        0.133627 s
    Computing <[V, T2]> (C_2)^4 ccvv term ......Done. Timing        0.133644 s
    Computing <[V, T2]> 4HH              ......Done. Timing        0.018273 s
    Computing <V, T2]> 4PP               ...  Done. Timing        0.027482 s
    Computing [V, T2] 4PH                ...  Done. Timing        0.074393 s
    Computing [V, T2] λ3                ......Done. Timing        0.039442 s

  ==> DSRG-MRPT2 Energy Summary <==

    E0 (reference)                 =     -2.184657300759432
    <[F, T1]>                      =     -0.000000317578999
    <[F, T2]>                      =     -0.000015108700668
    <[V, T1]>                      =     -0.000005633841834
    <[V, T2]> (C_2)^4              =     -0.053636614696865
    <[V, T2]> C_4 (C_2)^2 HH       =      0.000000000000000
    <[V, T2]> C_4 (C_2)^2 PP       =      0.002328860647110
    <[V, T2]> C_4 (C_2)^2 PP       =      0.002328860647110
    <[V, T2]> C_4 (C_2)^2 PH       =     -0.002621843240568
    <[V, T2]> C_6 C_2              =     -0.000103843724996
    <[V, T2]>                      =     -0.054033441015319
    DSRG-MRPT2 correlation energy  =     -0.054054501136821
    DSRG-MRPT2 total energy        =     -2.238711801896253
    max(T1)                        =      0.000598117542526
    max(T2)                        =      0.042479748802171
    ||T1||                         =      0.001095055009631
    ||T2||                         =      0.601434769102928
*** PSI4 exiting successfully. Buy a developer a beer!
