
    -----------------------------------------------------------------------
          Psi4: An Open-Source Ab Initio Electronic Structure Package
                               Psi4 1.9a1.dev50 

                         Git: Rev {fixtemp} 466ebc2 


    D. G. A. Smith, L. A. Burns, A. C. Simmonett, R. M. Parrish,
    M. C. Schieber, R. Galvelis, P. Kraus, H. Kruse, R. Di Remigio,
    A. Alenaizan, A. M. James, S. Lehtola, J. P. Misiewicz, M. Scheurer,
    R. A. Shaw, J. B. Schriber, Y. Xie, Z. L. Glick, D. A. Sirianni,
    J. S. O'Brien, J. M. Waldrop, A. Kumar, E. G. Hohenstein,
    B. P. Pritchard, B. R. Brooks, H. F. Schaefer III, A. Yu. Sokolov,
    K. Patkowski, A. E. DePrince III, U. Bozkaya, R. A. King,
    F. A. Evangelista, J. M. Turney, T. D. Crawford, C. D. Sherrill,
    J. Chem. Phys. 152(18) 184108 (2020). https://doi.org/10.1063/5.0006002

                            Additional Code Authors
    E. T. Seidl, C. L. Janssen, E. F. Valeev, M. L. Leininger,
    J. F. Gonthier, R. M. Richard, H. R. McAlexander, M. Saitow, X. Wang,
    P. Verma, M. H. Lechner, A. Jiang, S. Behnle, A. G. Heide,
    M. F. Herbst, and D. L. Poole

             Previous Authors, Complete List of Code Contributors,
                       and Citations for Specific Modules
    https://github.com/psi4/psi4/blob/master/codemeta.json
    https://github.com/psi4/psi4/graphs/contributors
    http://psicode.org/psi4manual/master/introduction.html#citing-psifour

    -----------------------------------------------------------------------


    Psi4 started on: Wednesday, 08 November 2023 04:38PM

    Process ID: 73380
    Host:       macbook-pro-158.wireless.emory.edu
    PSIDATADIR: /Users/fevange/Source/psi4/objdir-Release/stage/share/psi4
    Memory:     500.0 MiB
    Threads:    1
    
  ==> Input File <==

--------------------------------------------------------------------------
import forte
memory 2gb

molecule h2{
H
H 1 0.75
}

set {
  basis sto-6g
  e_convergence 12
}

set scf {
  scf_type pk
  reference rhf
}

set forte {
  active_space_solver gasci
  active_ref_type gas
  gas1            [1,0,0,0,0,0,0,0]
  gas2            [0,0,0,0,0,1,0,0]
  avg_state       [[0,1,2],[5,1,1],[5,3,1]]
  fci_test_rdms   true
  transition_dipoles    true
}

energy('forte')

refvals = [
    ("AA 1-RDM ERROR"                  ,       0.000000000000),
    ("AAAA 2-RDM ERROR"                ,       0.000000000000),
    ("AAAAAA 3-RDM ERROR"              ,       0.000000000000),
    ("AABAAB 3-RDM ERROR"              ,       0.000000000000),
    ("ABAB 2-RDM ERROR"                ,       0.000000000000),
    ("ABBABB 3-RDM ERROR"              ,       0.000000000000),
    ("BB 1-RDM ERROR"                  ,       0.000000000000),
    ("BBBB 2-RDM ERROR"                ,       0.000000000000),
    ("BBBBBB 3-RDM ERROR"              ,       0.000000000000),
    ("CURRENT ENERGY"                  ,      -0.357670407965),
    ("CURRENT REFERENCE ENERGY"        ,      -1.124730745504),
    ("DD SOLVATION ENERGY"             ,       0.000000000000),
    ("ENERGY ROOT 0 1AG"               ,      -1.145741671060),
    ("ENERGY ROOT 0 1B1U"              ,      -0.186822898629),
    ("ENERGY ROOT 0 3B1U"              ,      -0.550943397253),
    ("ENERGY ROOT 1 1AG"               ,       0.452826335081),
    ("GASCI ENERGY"                    ,      -0.550943397253),
    ("HF KINETIC ENERGY"               ,       1.206897379616),
    ("HF POTENTIAL ENERGY"             ,      -2.331628125120),
    ("HF TOTAL ENERGY"                 ,      -1.124730745504),
    ("HF VIRIAL RATIO"                 ,       1.931919121294),
    ("NUCLEAR REPULSION ENERGY"        ,       0.705569614227),
    ("ONE-ELECTRON ENERGY"             ,      -2.503086824115),
    ("OSC. SINGLET 0AG -> 0B1U"        ,       0.864798377887),
    ("OSC. SINGLET 0AG -> 1AG"         ,       0.000000000000),
    ("OSC. SINGLET 1AG -> 0B1U"        ,       0.917178110540),
    ("PCM POLARIZATION ENERGY"         ,       0.000000000000),
    ("PE ENERGY"                       ,       0.000000000000),
    ("SCF ITERATION ENERGY"            ,      -1.124730745504),
    ("SCF ITERATIONS"                  ,       2.000000000000),
    ("SCF TOTAL ENERGY"                ,      -1.124730745504),
    ("SF 1-RDM ERROR"                  ,       0.000000000000),
    ("SINGLET <0AG|DM_X|0AG>"          ,       0.000000000000),
    ("SINGLET <0AG|DM_Y|0AG>"          ,       0.000000000000),
    ("SINGLET <0AG|DM_Z|0AG>"          ,      -0.000000000000),
    ("SINGLET <0AG|QM_XX|0AG>"         ,      -1.371925184407),
    ("SINGLET <0AG|QM_XY|0AG>"         ,       0.000000000000),
    ("SINGLET <0AG|QM_XZ|0AG>"         ,       0.000000000000),
    ("SINGLET <0AG|QM_YY|0AG>"         ,      -1.371925184407),
    ("SINGLET <0AG|QM_YZ|0AG>"         ,       0.000000000000),
    ("SINGLET <0AG|QM_ZZ|0AG>"         ,      -1.078513487071),
    ("SINGLET <0B1U|DM_X|0B1U>"        ,       0.000000000000),
    ("SINGLET <0B1U|DM_Y|0B1U>"        ,       0.000000000000),
    ("SINGLET <0B1U|DM_Z|0B1U>"        ,       0.000000000000),
    ("SINGLET <0B1U|QM_XX|0B1U>"       ,      -1.155602329158),
    ("SINGLET <0B1U|QM_XY|0B1U>"       ,       0.000000000000),
    ("SINGLET <0B1U|QM_XZ|0B1U>"       ,       0.000000000000),
    ("SINGLET <0B1U|QM_YY|0B1U>"       ,      -1.155602329158),
    ("SINGLET <0B1U|QM_YZ|0B1U>"       ,       0.000000000000),
    ("SINGLET <0B1U|QM_ZZ|0B1U>"       ,      -1.753562290402),
    ("SINGLET <1AG|DM_X|1AG>"          ,       0.000000000000),
    ("SINGLET <1AG|DM_Y|1AG>"          ,       0.000000000000),
    ("SINGLET <1AG|DM_Z|1AG>"          ,       0.000000000000),
    ("SINGLET <1AG|QM_XX|1AG>"         ,      -0.939279473910),
    ("SINGLET <1AG|QM_XY|1AG>"         ,       0.000000000000),
    ("SINGLET <1AG|QM_XZ|1AG>"         ,       0.000000000000),
    ("SINGLET <1AG|QM_YY|1AG>"         ,      -0.939279473910),
    ("SINGLET <1AG|QM_YZ|1AG>"         ,       0.000000000000),
    ("SINGLET <1AG|QM_ZZ|1AG>"         ,      -2.428611093732),
    ("SINGLET |<0AG|DM|0AG>|"          ,       0.000000000000),
    ("SINGLET |<0B1U|DM|0B1U>|"        ,       0.000000000000),
    ("SINGLET |<1AG|DM|1AG>|"          ,       0.000000000000),
    ("TRANS SINGLET <0AG|DM_X|0B1U>"   ,       0.000000000000),
    ("TRANS SINGLET <0AG|DM_X|1AG>"    ,       0.000000000000),
    ("TRANS SINGLET <0AG|DM_Y|0B1U>"   ,       0.000000000000),
    ("TRANS SINGLET <0AG|DM_Y|1AG>"    ,       0.000000000000),
    ("TRANS SINGLET <0AG|DM_Z|0B1U>"   ,       1.163086868083),
    ("TRANS SINGLET <0AG|DM_Z|1AG>"    ,      -0.000000000000),
    ("TRANS SINGLET <1AG|DM_X|0B1U>"   ,       0.000000000000),
    ("TRANS SINGLET <1AG|DM_Y|0B1U>"   ,       0.000000000000),
    ("TRANS SINGLET <1AG|DM_Z|0B1U>"   ,       1.466565715801),
    ("TRANS SINGLET S_MAX 0AG -> 0B1U" ,       1.404888898144),
    ("TRANS SINGLET S_MAX 0AG -> 1AG"  ,       0.227779173126),
    ("TRANS SINGLET S_MAX 1AG -> 0B1U" ,       1.404888898144),
    ("TRANS SINGLET |<0AG|DM|0B1U>|"   ,       1.163086868083),
    ("TRANS SINGLET |<0AG|DM|1AG>|"    ,       0.000000000000),
    ("TRANS SINGLET |<1AG|DM|0B1U>|"   ,       1.466565715801),
    ("TRIPLET <0B1U|DM_X|0B1U>"        ,       0.000000000000),
    ("TRIPLET <0B1U|DM_Y|0B1U>"        ,       0.000000000000),
    ("TRIPLET <0B1U|DM_Z|0B1U>"        ,       0.000000000000),
    ("TRIPLET <0B1U|QM_XX|0B1U>"       ,      -1.155602329158),
    ("TRIPLET <0B1U|QM_XY|0B1U>"       ,       0.000000000000),
    ("TRIPLET <0B1U|QM_XZ|0B1U>"       ,       0.000000000000),
    ("TRIPLET <0B1U|QM_YY|0B1U>"       ,      -1.155602329158),
    ("TRIPLET <0B1U|QM_YZ|0B1U>"       ,       0.000000000000),
    ("TRIPLET <0B1U|QM_ZZ|0B1U>"       ,      -1.753562290402),
    ("TRIPLET |<0B1U|DM|0B1U>|"        ,       0.000000000000),
    ("TWO-ELECTRON ENERGY"             ,       0.672786464384),
]

for label, val in refvals:
    compare_values(val, variable(label),10,label)
--------------------------------------------------------------------------

  Memory set to   1.863 GiB by Python driver.

Scratch directory: /tmp/

  Forte
  ----------------------------------------------------------------------------
  A suite of quantum chemistry methods for strongly correlated electrons

    git branch: strgas - git commit: 9d1877e9

  Developed by:
    Francesco A. Evangelista, Chenyang Li, Kevin P. Hannon,
    Jeffrey B. Schriber, Tianyuan Zhang, Chenxi Cai,
    Nan He, Nicholas Stair, Shuhe Wang, Renke Huang
  ----------------------------------------------------------------------------

  Size of Determinant class: 128 bits

  Preparing forte objects from a Psi4 Wavefunction object
  No reference wave function provided for Forte. Computing SCF orbitals using Psi4 ...
   => Libint2 <=

    Primary   basis highest AM E, G, H:  5, 4, 3
    Auxiliary basis highest AM E, G, H:  6, 5, 4
    Onebody   basis highest AM E, G, H:  6, 5, 4
    Solid Harmonics ordering:            gaussian

*** tstart() called on macbook-pro-158.wireless.emory.edu
*** at Wed Nov  8 16:39:00 2023

   => Loading Basis Set <=

    Name: STO-6G
    Role: ORBITAL
    Keyword: BASIS
    atoms 1-2 entry H          line    17 file /Users/fevange/Source/psi4/objdir-Release/stage/share/psi4/basis/sto-6g.gbs 


         ---------------------------------------------------------
                                   SCF
               by Justin Turney, Rob Parrish, Andy Simmonett
                          and Daniel G. A. Smith
                              RHF Reference
                        1 Threads,   1907 MiB Core
         ---------------------------------------------------------

  ==> Geometry <==

    Molecular point group: d2h
    Full point group: D_inf_h

    Geometry (in Angstrom), charge = 0, multiplicity = 1:

       Center              X                  Y                   Z               Mass       
    ------------   -----------------  -----------------  -----------------  -----------------
         H            0.000000000000     0.000000000000    -0.375000000000     1.007825032230
         H            0.000000000000     0.000000000000     0.375000000000     1.007825032230

  Running in d2h symmetry.

  Rotational constants: A = ************  B =     59.47286  C =     59.47286 [cm^-1]
  Rotational constants: A = ************  B = 1782951.48970  C = 1782951.48970 [MHz]
  Nuclear repulsion =    0.705569614226667

  Charge       = 0
  Multiplicity = 1
  Electrons    = 2
  Nalpha       = 1
  Nbeta        = 1

  ==> Algorithm <==

  SCF Algorithm Type is PK.
  DIIS enabled.
  MOM disabled.
  Fractional occupation disabled.
  Guess Type is SAD.
  Energy threshold   = 1.00e-12
  Density threshold  = 1.00e-08
  Integral threshold = 1.00e-12

  ==> Primary Basis <==

  Basis Set: STO-6G
    Blend: STO-6G
    Number of shells: 2
    Number of basis functions: 2
    Number of Cartesian functions: 2
    Spherical Harmonics?: true
    Max angular momentum: 0

  ==> Integral Setup <==

  Using in-core PK algorithm.
   Calculation information:
      Number of atoms:                   2
      Number of AO shells:               2
      Number of primitives:             12
      Number of atomic orbitals:         2
      Number of basis functions:         2

      Integral cutoff                 1.00e-12
      Number of threads:                 1

  Performing in-core PK
  Using 12 doubles for integral storage.
  We computed 6 shell quartets total.
  Whereas there are 6 unique shell quartets.

  ==> DiskJK: Disk-Based J/K Matrices <==

    J tasked:                  Yes
    K tasked:                  Yes
    wK tasked:                  No
    Memory [MiB]:             1430
    Schwarz Cutoff:          1E-12

    OpenMP threads:              1

  Minimum eigenvalue in the overlap matrix is 1.0000000000E+00.
  Reciprocal condition number of the overlap matrix is 1.0000000000E+00.
    Using symmetric orthogonalization.

  ==> Pre-Iterations <==

  SCF Guess: Superposition of Atomic Densities via on-the-fly atomic UHF (no occupation information).

   -------------------------
    Irrep   Nso     Nmo    
   -------------------------
     Ag         1       1 
     B1g        0       0 
     B2g        0       0 
     B3g        0       0 
     Au         0       0 
     B1u        1       1 
     B2u        0       0 
     B3u        0       0 
   -------------------------
    Total       2       2
   -------------------------

  ==> Iterations <==

                        Total Energy        Delta E     RMS |[F,P]|

   @RHF iter SAD:    -0.72348480681058   -7.23485e-01   0.00000e+00 
   @RHF iter   1:    -1.12473074550420   -4.01246e-01   0.00000e+00 DIIS
   @RHF iter   2:    -1.12473074550420    0.00000e+00   0.00000e+00 DIIS
  Energy and wave function converged.


  ==> Post-Iterations <==

    Orbital Energies [Eh]
    ---------------------

    Doubly Occupied:                                                      

       1Ag    -0.578757  

    Virtual:                                                              

       1B1u    0.657673  

    Final Occupation by Irrep:
             Ag   B1g   B2g   B3g    Au   B1u   B2u   B3u 
    DOCC [     1,    0,    0,    0,    0,    0,    0,    0 ]
    NA   [     1,    0,    0,    0,    0,    0,    0,    0 ]
    NB   [     1,    0,    0,    0,    0,    0,    0,    0 ]

  @RHF Final Energy:    -1.12473074550420

   => Energetics <=

    Nuclear Repulsion Energy =              0.7055696142266668
    One-Electron Energy =                  -2.5030868241150177
    Two-Electron Energy =                   0.6727864643841538
    Total Energy =                         -1.1247307455041970

Computation Completed


Properties will be evaluated at   0.000000,   0.000000,   0.000000 [a0]

Properties computed using the SCF density matrix


 Multipole Moments:

 ------------------------------------------------------------------------------------
     Multipole            Electronic (a.u.)      Nuclear  (a.u.)        Total (a.u.)
 ------------------------------------------------------------------------------------

 L = 1.  Multiply by 2.5417464519 to convert [e a0] to [Debye]
 Dipole X            :          0.0000000            0.0000000            0.0000000
 Dipole Y            :          0.0000000            0.0000000            0.0000000
 Dipole Z            :          0.0000000            0.0000000            0.0000000
 Magnitude           :                                                    0.0000000

 ------------------------------------------------------------------------------------

*** tstop() called on macbook-pro-158.wireless.emory.edu at Wed Nov  8 16:39:00 2023
Module time:
	user time   =       0.06 seconds =       0.00 minutes
	system time =       0.00 seconds =       0.00 minutes
	total time  =          0 seconds =       0.00 minutes
Total time:
	user time   =       0.06 seconds =       0.00 minutes
	system time =       0.00 seconds =       0.00 minutes
	total time  =          0 seconds =       0.00 minutes

  Read options for space GAS1
  Read options for space GAS2
  Read options for space GAS1
  Read options for space GAS2

  ==> MO Space Information <==

  -------------------------------------------------------------------------
                       Ag   B1g   B2g   B3g    Au   B1u   B2u   B3u   Sum
  -------------------------------------------------------------------------
    FROZEN_DOCC         0     0     0     0     0     0     0     0     0
    RESTRICTED_DOCC     0     0     0     0     0     0     0     0     0
    GAS1                1     0     0     0     0     0     0     0     1
    GAS2                0     0     0     0     0     1     0     0     1
    GAS3                0     0     0     0     0     0     0     0     0
    GAS4                0     0     0     0     0     0     0     0     0
    GAS5                0     0     0     0     0     0     0     0     0
    GAS6                0     0     0     0     0     0     0     0     0
    RESTRICTED_UOCC     0     0     0     0     0     0     0     0     0
    FROZEN_UOCC         0     0     0     0     0     0     0     0     0
    Total               1     0     0     0     0     1     0     0     2
  -------------------------------------------------------------------------   => Loading Basis Set <=

    Name: STO-3G
    Role: ORBITAL
    Keyword: MINAO_BASIS
    atoms 1-2 entry H          line    19 file /Users/fevange/Source/psi4/objdir-Release/stage/share/psi4/basis/sto-3g.gbs 


  Forte will use psi4 integrals

  ==> Primary Basis Set Summary <==

  Basis Set: STO-6G
    Blend: STO-6G
    Number of shells: 2
    Number of basis functions: 2
    Number of Cartesian functions: 2
    Spherical Harmonics?: true
    Max angular momentum: 0


  JK created using conventional PK integrals
  Using in-core PK algorithm.
   Calculation information:
      Number of atoms:                   2
      Number of AO shells:               2
      Number of primitives:             12
      Number of atomic orbitals:         2
      Number of basis functions:         2

      Integral cutoff                 1.00e-12
      Number of threads:                 1

  Performing in-core PK
  Using 12 doubles for integral storage.
  We computed 6 shell quartets total.
  Whereas there are 6 unique shell quartets.

  ==> DiskJK: Disk-Based J/K Matrices <==

    J tasked:                  Yes
    K tasked:                  Yes
    wK tasked:                  No
    Memory [MiB]:             1525
    Schwarz Cutoff:          1E-12

    OpenMP threads:              1



  ==> Integral Transformation <==

  Number of molecular orbitals:                          2
  Number of correlated molecular orbitals:               2
  Number of frozen occupied orbitals:                    0
  Number of frozen unoccupied orbitals:                  0
  Two-electron integral type:                 Conventional


  Computing Conventional Integrals	Presorting SO-basis two-electron integrals.
	Sorting File: SO Ints (nn|nn) nbuckets = 1
	Constructing frozen core operators
	Starting first half-transformation.
	Sorting half-transformed integrals.
	First half integral transformation complete.
	Starting second half-transformation.
	Two-electron integral transformation complete.

  Integral transformation done. 0.00239954 s
  Reading the two-electron integrals from disk
  Size of two-electron integrals:   0.000000 GB
  Timing for conventional integral transformation:            0.005 s.
  Timing for freezing core and virtual orbitals:              0.000 s.
  Timing for computing conventional integrals:                0.005 s.

  ==> Summary of Active Space Solver Input <==

    Irrep.  Multi.(2ms)      N
    --------------------------
       Ag      1  (  0)      2
      B1u      1  (  0)      1
      B1u      3  (  0)      1
    --------------------------
    N: number of roots
    ms: spin z component
    Total number of roots:   4
    --------------------------


  ==> Number of Electrons in GAS <==

    GAS  MAX  MIN
    -------------
      1    2    0
      2    2    0
    -------------

  ==> Possible Electron Occupations in GAS <==

    Config.  1_A  1_B  2_A  2_B  Alfa Conf.  Beta Conf.
    ---------------------------
         1     1    1    0    0    0    0
         2     1    0    0    1    0    1
         3     0    1    1    0    1    0
         4     0    0    1    1    1    1

  ==> String Lists <==

    number of alpha electrons                              1
    number of beta electrons                               1
    number of alpha strings                                2
    number of beta strings                                 2
    timing for strings                                 0.000 s
    timing for NN strings                              0.000 s
    timing for VO strings                              0.000 s
    timing for OO strings                              0.000 s
    timing for VVOO strings                            0.000 s
    timing for 1-hole strings                          0.000 s
    timing for 2-hole strings                          0.000 s
    timing for 3-hole strings                          0.000 s
    total timing                                       0.000 s


  ==> GASCI Solver <==

    Spin adapt                                         FALSE
    Number of determinants                                 2
    Symmetry                                               0
    Multiplicity                                           1
    Number of roots                                        2
    Target root                                            0

  Allocating memory for the Hamiltonian algorithm. Size: 2 x 1 x 1.   Memory: 0.000000 GB

  ==> Initial Guess <==

  Initial guess determinants:         2

  Classification of the initial guess solutions

  Number   2S+1   Selected
  ------------------------
     2       1       *
  ------------------------

    Spin    Root           Energy        <S^2>    Status
  -------------------------------------------------------
   singlet    0       -1.851311285286  +0.000000  added
   singlet    1       -0.252743279146  +0.000000  added
  -------------------------------------------------------

  ==> Davidson-Liu Solver <==

    Energy convergence threshold                   1.000e-12
    Residual convergence threshold                 1.000e-06
    Schmidt orthogonality threshold                1.000e-12
    Schmidt discard threshold                      1.000e-07
    Size of the space                                      2
    Number of roots                                        2
    Maximum number of iterations                         100
    Collapse subspace size                                 2
    Maximum subspace size                                  2
    Print level                                            1


  Davidson-Liu solver: adding 2 guess vectors
  Iteration     Average Energy            max(∆E)            max(Residual)  Vectors
  ---------------------------------------------------------------------------------
       0       -0.346457667989        1.145741671060        0.000000000000      2
  ---------------------------------------------------------------------------------

  ==> Root No. 0 <==

    2 0     -0.99340647
    0 2      0.11464551

    Total Energy:      -1.145741671060, <S^2>: 0.000000

  ==> Root No. 1 <==

    0 2     -0.99340647
    2 0     -0.11464551

    Total Energy:       0.452826335081, <S^2>: 0.000000

  ==> Computing RDMs for Root No. 0 <==

    Timing for 1-RDM: 0.000 s
    Timing for 2-RDM: 0.000 s
    Timing for 3-RDM: 0.000 s

==> RDMs Test (max level = 3)<==

    AA 1-RDM Error :   +0.000000e+00
    BB 1-RDM Error :   +0.000000e+00
    AAAA 2-RDM Error :   +0.000000e+00
    BBBB 2-RDM Error :   +0.000000e+00
    ABAB 2-RDM Error :   +0.000000e+00
    AAAAAA 3-RDM Error : +0.000000e+00
    AABAAB 3-RDM Error : +0.000000e+00
    ABBABB 3-RDM Error : +0.000000e+00
    BBBBBB 3-RDM Error : +0.000000e+00
    Time for GASCI:       0.000375458000

  ==> Number of Electrons in GAS <==

    GAS  MAX  MIN
    -------------
      1    2    0
      2    2    0
    -------------

  ==> Possible Electron Occupations in GAS <==

    Config.  1_A  1_B  2_A  2_B  Alfa Conf.  Beta Conf.
    ---------------------------
         1     1    1    0    0    0    0
         2     1    0    0    1    0    1
         3     0    1    1    0    1    0
         4     0    0    1    1    1    1

  ==> String Lists <==

    number of alpha electrons                              1
    number of beta electrons                               1
    number of alpha strings                                2
    number of beta strings                                 2
    timing for strings                                 0.000 s
    timing for NN strings                              0.000 s
    timing for VO strings                              0.000 s
    timing for OO strings                              0.000 s
    timing for VVOO strings                            0.000 s
    timing for 1-hole strings                          0.000 s
    timing for 2-hole strings                          0.000 s
    timing for 3-hole strings                          0.000 s
    total timing                                       0.000 s


  ==> GASCI Solver <==

    Spin adapt                                         FALSE
    Number of determinants                                 2
    Symmetry                                               5
    Multiplicity                                           1
    Number of roots                                        1
    Target root                                            0


  ==> Initial Guess <==

  Initial guess determinants:         2

  Classification of the initial guess solutions

  Number   2S+1   Selected
  ------------------------
     1       1       *
     1       3        
  ------------------------

    Spin    Root           Energy        <S^2>    Status
  -------------------------------------------------------
   triplet    0       -1.256513011479  +2.000000  removed
   singlet    0       -0.892392512856  +0.000000  added
  -------------------------------------------------------

  ==> Davidson-Liu Solver <==

    Energy convergence threshold                   1.000e-12
    Residual convergence threshold                 1.000e-06
    Schmidt orthogonality threshold                1.000e-12
    Schmidt discard threshold                      1.000e-07
    Size of the space                                      2
    Number of roots                                        1
    Maximum number of iterations                         100
    Collapse subspace size                                 2
    Maximum subspace size                                  2
    Print level                                            1


  Davidson-Liu solver: adding 1 guess vectors
  Iteration     Average Energy            max(∆E)            max(Residual)  Vectors
  ---------------------------------------------------------------------------------
       0       -0.186822898629        0.186822898629        0.000000000000      1 <- added 1 random vector
  ---------------------------------------------------------------------------------

  Davidson-Liu solver:  No new vectors added, but residual converged. Finishing computation.

  ==> Root No. 0 <==

    a b     -0.70710678
    b a     -0.70710678

    Total Energy:      -0.186822898629, <S^2>: -0.000000

  ==> Computing RDMs for Root No. 0 <==

    Timing for 1-RDM: 0.000 s
    Timing for 2-RDM: 0.000 s
    Timing for 3-RDM: 0.000 s

==> RDMs Test (max level = 3)<==

    AA 1-RDM Error :   +0.000000e+00
    BB 1-RDM Error :   +0.000000e+00
    AAAA 2-RDM Error :   +0.000000e+00
    BBBB 2-RDM Error :   +0.000000e+00
    ABAB 2-RDM Error :   +0.000000e+00
    AAAAAA 3-RDM Error : +0.000000e+00
    AABAAB 3-RDM Error : +0.000000e+00
    ABBABB 3-RDM Error : +0.000000e+00
    BBBBBB 3-RDM Error : +0.000000e+00
    Time for GASCI:       0.000258958000

  ==> Number of Electrons in GAS <==

    GAS  MAX  MIN
    -------------
      1    2    0
      2    2    0
    -------------

  ==> Possible Electron Occupations in GAS <==

    Config.  1_A  1_B  2_A  2_B  Alfa Conf.  Beta Conf.
    ---------------------------
         1     1    1    0    0    0    0
         2     1    0    0    1    0    1
         3     0    1    1    0    1    0
         4     0    0    1    1    1    1

  ==> String Lists <==

    number of alpha electrons                              1
    number of beta electrons                               1
    number of alpha strings                                2
    number of beta strings                                 2
    timing for strings                                 0.000 s
    timing for NN strings                              0.000 s
    timing for VO strings                              0.000 s
    timing for OO strings                              0.000 s
    timing for VVOO strings                            0.000 s
    timing for 1-hole strings                          0.000 s
    timing for 2-hole strings                          0.000 s
    timing for 3-hole strings                          0.000 s
    total timing                                       0.000 s


  ==> GASCI Solver <==

    Spin adapt                                         FALSE
    Number of determinants                                 2
    Symmetry                                               5
    Multiplicity                                           3
    Number of roots                                        1
    Target root                                            0


  ==> Initial Guess <==

  Initial guess determinants:         2

  Classification of the initial guess solutions

  Number   2S+1   Selected
  ------------------------
     1       1        
     1       3       *
  ------------------------

    Spin    Root           Energy        <S^2>    Status
  -------------------------------------------------------
   triplet    0       -1.256513011479  +2.000000  added
  -------------------------------------------------------

  ==> Davidson-Liu Solver <==

    Energy convergence threshold                   1.000e-12
    Residual convergence threshold                 1.000e-06
    Schmidt orthogonality threshold                1.000e-12
    Schmidt discard threshold                      1.000e-07
    Size of the space                                      2
    Number of roots                                        1
    Maximum number of iterations                         100
    Collapse subspace size                                 2
    Maximum subspace size                                  2
    Print level                                            1


  Davidson-Liu solver: adding 1 guess vectors
  Iteration     Average Energy            max(∆E)            max(Residual)  Vectors
  ---------------------------------------------------------------------------------
       0       -0.550943397253        0.550943397253        0.000000000000      1
       1       -0.550943397253        0.000000000000        0.000000000000      2
  ---------------------------------------------------------------------------------

  ==> Root No. 0 <==

    a b      0.70710678
    b a     -0.70710678

    Total Energy:      -0.550943397253, <S^2>: 2.000000

  ==> Computing RDMs for Root No. 0 <==

    Timing for 1-RDM: 0.000 s
    Timing for 2-RDM: 0.000 s
    Timing for 3-RDM: 0.000 s

==> RDMs Test (max level = 3)<==

    AA 1-RDM Error :   +0.000000e+00
    BB 1-RDM Error :   +0.000000e+00
    AAAA 2-RDM Error :   +0.000000e+00
    BBBB 2-RDM Error :   +0.000000e+00
    ABAB 2-RDM Error :   +0.000000e+00
    AAAAAA 3-RDM Error : +0.000000e+00
    AABAAB 3-RDM Error : +0.000000e+00
    ABBABB 3-RDM Error : +0.000000e+00
    BBBBBB 3-RDM Error : +0.000000e+00
    Time for GASCI:       0.000256250000

  ==> Energy Summary <==

    Multi.(2ms)  Irrep.  No.               Energy      <S^2>
    --------------------------------------------------------
       1  (  0)    Ag     0       -1.145741671060   0.000000
       1  (  0)    Ag     1        0.452826335081   0.000000
    --------------------------------------------------------
       1  (  0)   B1u     0       -0.186822898629  -0.000000
    --------------------------------------------------------
       3  (  0)   B1u     0       -0.550943397253   2.000000
    --------------------------------------------------------

  ==> Dipole Moments [e a0] (Nuclear + Electronic) for Singlet (Ms = 0) Ag <==


  ==> Computing RDMs <0 Singlet (Ms = 0) Ag| ... |0 Singlet (Ms = 0) Ag> <==

    Timing for 1-RDM: 0.000 s

==> RDMs Test (max level = 1)<==

    SF 1-RDM Error :   +0.000000e+00

  ==> Computing RDMs <1 Singlet (Ms = 0) Ag| ... |1 Singlet (Ms = 0) Ag> <==

    Timing for 1-RDM: 0.000 s

==> RDMs Test (max level = 1)<==

    SF 1-RDM Error :   +0.000000e+00
       State           DM_X           DM_Y           DM_Z           |DM|
    --------------------------------------------------------------------
         0AG     0.00000000     0.00000000    -0.00000000     0.00000000
         1AG     0.00000000     0.00000000     0.00000000     0.00000000
    --------------------------------------------------------------------
     Nuclear     0.00000000     0.00000000     0.00000000     0.00000000
    --------------------------------------------------------------------

  ==> Dipole Moments [e a0] (Nuclear + Electronic) for Singlet (Ms = 0) B1u <==


  ==> Computing RDMs <0 Singlet (Ms = 0) B1u| ... |0 Singlet (Ms = 0) B1u> <==

    Timing for 1-RDM: 0.000 s

==> RDMs Test (max level = 1)<==

    SF 1-RDM Error :   +0.000000e+00
       State           DM_X           DM_Y           DM_Z           |DM|
    --------------------------------------------------------------------
        0B1U     0.00000000     0.00000000     0.00000000     0.00000000
    --------------------------------------------------------------------
     Nuclear     0.00000000     0.00000000     0.00000000     0.00000000
    --------------------------------------------------------------------

  ==> Dipole Moments [e a0] (Nuclear + Electronic) for Triplet (Ms = 0) B1u <==


  ==> Computing RDMs <0 Triplet (Ms = 0) B1u| ... |0 Triplet (Ms = 0) B1u> <==

    Timing for 1-RDM: 0.000 s

==> RDMs Test (max level = 1)<==

    SF 1-RDM Error :   +0.000000e+00
       State           DM_X           DM_Y           DM_Z           |DM|
    --------------------------------------------------------------------
        0B1U     0.00000000     0.00000000     0.00000000     0.00000000
    --------------------------------------------------------------------
     Nuclear     0.00000000     0.00000000     0.00000000     0.00000000
    --------------------------------------------------------------------

  ==> Quadrupole Moments [e a0^2] (Nuclear + Electronic) for Singlet (Ms = 0) Ag <==


  ==> Computing RDMs <0 Singlet (Ms = 0) Ag| ... |0 Singlet (Ms = 0) Ag> <==

    Timing for 1-RDM: 0.000 s

==> RDMs Test (max level = 1)<==

    SF 1-RDM Error :   +0.000000e+00

  ==> Computing RDMs <1 Singlet (Ms = 0) Ag| ... |1 Singlet (Ms = 0) Ag> <==

    Timing for 1-RDM: 0.000 s

==> RDMs Test (max level = 1)<==

    SF 1-RDM Error :   +0.000000e+00
       State          QM_XX          QM_XY          QM_XZ          QM_YY          QM_YZ          QM_ZZ
    --------------------------------------------------------------------------------------------------
         0AG    -1.37192518     0.00000000     0.00000000    -1.37192518     0.00000000    -1.07851349
         1AG    -0.93927947     0.00000000     0.00000000    -0.93927947     0.00000000    -2.42861109
    --------------------------------------------------------------------------------------------------
     Nuclear     0.00000000     0.00000000     0.00000000     0.00000000     0.00000000     1.00436198
    --------------------------------------------------------------------------------------------------

  ==> Quadrupole Moments [e a0^2] (Nuclear + Electronic) for Singlet (Ms = 0) B1u <==


  ==> Computing RDMs <0 Singlet (Ms = 0) B1u| ... |0 Singlet (Ms = 0) B1u> <==

    Timing for 1-RDM: 0.000 s

==> RDMs Test (max level = 1)<==

    SF 1-RDM Error :   +0.000000e+00
       State          QM_XX          QM_XY          QM_XZ          QM_YY          QM_YZ          QM_ZZ
    --------------------------------------------------------------------------------------------------
        0B1U    -1.15560233     0.00000000     0.00000000    -1.15560233     0.00000000    -1.75356229
    --------------------------------------------------------------------------------------------------
     Nuclear     0.00000000     0.00000000     0.00000000     0.00000000     0.00000000     1.00436198
    --------------------------------------------------------------------------------------------------

  ==> Quadrupole Moments [e a0^2] (Nuclear + Electronic) for Triplet (Ms = 0) B1u <==


  ==> Computing RDMs <0 Triplet (Ms = 0) B1u| ... |0 Triplet (Ms = 0) B1u> <==

    Timing for 1-RDM: 0.000 s

==> RDMs Test (max level = 1)<==

    SF 1-RDM Error :   +0.000000e+00
       State          QM_XX          QM_XY          QM_XZ          QM_YY          QM_YZ          QM_ZZ
    --------------------------------------------------------------------------------------------------
        0B1U    -1.15560233     0.00000000     0.00000000    -1.15560233     0.00000000    -1.75356229
    --------------------------------------------------------------------------------------------------
     Nuclear     0.00000000     0.00000000     0.00000000     0.00000000     0.00000000     1.00436198
    --------------------------------------------------------------------------------------------------

  ==> Transition Dipole Moments [e a0] for Singlet (Ms = 0) Ag -> Singlet (Ms = 0) Ag <==


==> RDMs Test (max level = 1)<==

    SF 1-RDM Error :   +0.000000e+00
       Bra    Ket           DM_X           DM_Y           DM_Z           |DM|
    -------------------------------------------------------------------------
       0AG    1AG     0.00000000     0.00000000    -0.00000000     0.00000000
    -------------------------------------------------------------------------

  ==> Transition Reduced Density Matrix Analysis for Singlet (Ms = 0) Ag -> Singlet (Ms = 0) Ag <==

    Transition from State  0AG  to State  1AG :
      Component  1 with value of W = 0.2278
        Init. Orbital: 1.0000 Orb.  0
        Final Orbital: 1.0000 Orb.  0
      Component  2 with value of W = 0.2278
        Init. Orbital: 1.0000 Orb.  1
        Final Orbital: 1.0000 Orb.  1


  ==> Transitions for Singlet (Ms = 0) Ag -> Singlet (Ms = 0) Ag <==

     Init.  Final  Energy [a.u.]    Energy [eV]    Osc. [a.u.]
    ----------------------------------------------------------
       0AG    1AG     1.59856801    43.49925109     0.00000000
    ----------------------------------------------------------

  ==> Transition Dipole Moments [e a0] for Singlet (Ms = 0) Ag -> Singlet (Ms = 0) B1u <==


==> RDMs Test (max level = 1)<==

    SF 1-RDM Error :   +0.000000e+00

==> RDMs Test (max level = 1)<==

    SF 1-RDM Error :   +0.000000e+00
       Bra    Ket           DM_X           DM_Y           DM_Z           |DM|
    -------------------------------------------------------------------------
       0AG   0B1U     0.00000000     0.00000000     1.16308687     1.16308687
       1AG   0B1U     0.00000000     0.00000000     1.46656572     1.46656572
    -------------------------------------------------------------------------

  ==> Transition Reduced Density Matrix Analysis for Singlet (Ms = 0) Ag -> Singlet (Ms = 0) B1u <==

    Transition from State  0AG  to State 0B1U :
      Component  1 with value of W = 1.4049
        Init. Orbital: 1.0000 Orb.  0
        Final Orbital: 1.0000 Orb.  1
      Component  2 with value of W = 0.1621
        Init. Orbital: 1.0000 Orb.  1
        Final Orbital: 1.0000 Orb.  0

    Transition from State  1AG  to State 0B1U :
      Component  1 with value of W = 1.4049
        Init. Orbital: 1.0000 Orb.  1
        Final Orbital: 1.0000 Orb.  0
      Component  2 with value of W = 0.1621
        Init. Orbital: 1.0000 Orb.  0
        Final Orbital: 1.0000 Orb.  1


  ==> Transitions for Singlet (Ms = 0) Ag -> Singlet (Ms = 0) B1u <==

     Init.  Final  Energy [a.u.]    Energy [eV]    Osc. [a.u.]
    ----------------------------------------------------------
       0AG   0B1U     0.95891877    26.09350888     0.86479838
       1AG   0B1U    -0.63964923   -17.40574222     0.91717811
    ----------------------------------------------------------

  Time to prepare integrals:        0.008 seconds
  Time to run job          :        0.002 seconds
  Total                    :        0.010 seconds
    AA 1-RDM ERROR........................................................................PASSED
    AAAA 2-RDM ERROR......................................................................PASSED
    AAAAAA 3-RDM ERROR....................................................................PASSED
    AABAAB 3-RDM ERROR....................................................................PASSED
    ABAB 2-RDM ERROR......................................................................PASSED
    ABBABB 3-RDM ERROR....................................................................PASSED
    BB 1-RDM ERROR........................................................................PASSED
    BBBB 2-RDM ERROR......................................................................PASSED
    BBBBBB 3-RDM ERROR....................................................................PASSED
    CURRENT ENERGY........................................................................PASSED
    CURRENT REFERENCE ENERGY..............................................................PASSED
    DD SOLVATION ENERGY...................................................................PASSED
    ENERGY ROOT 0 1AG.....................................................................PASSED
    ENERGY ROOT 0 1B1U....................................................................PASSED
    ENERGY ROOT 0 3B1U....................................................................PASSED
    ENERGY ROOT 1 1AG.....................................................................PASSED
    GASCI ENERGY..........................................................................PASSED
    HF KINETIC ENERGY.....................................................................PASSED
    HF POTENTIAL ENERGY...................................................................PASSED
    HF TOTAL ENERGY.......................................................................PASSED
    HF VIRIAL RATIO.......................................................................PASSED
    NUCLEAR REPULSION ENERGY..............................................................PASSED
    ONE-ELECTRON ENERGY...................................................................PASSED
    OSC. SINGLET 0AG -> 0B1U..............................................................PASSED
    OSC. SINGLET 0AG -> 1AG...............................................................PASSED
    OSC. SINGLET 1AG -> 0B1U..............................................................PASSED
    PCM POLARIZATION ENERGY...............................................................PASSED
    PE ENERGY.............................................................................PASSED
    SCF ITERATION ENERGY..................................................................PASSED
    SCF ITERATIONS........................................................................PASSED
    SCF TOTAL ENERGY......................................................................PASSED
    SF 1-RDM ERROR........................................................................PASSED
    SINGLET <0AG|DM_X|0AG>................................................................PASSED
    SINGLET <0AG|DM_Y|0AG>................................................................PASSED
    SINGLET <0AG|DM_Z|0AG>................................................................PASSED
    SINGLET <0AG|QM_XX|0AG>...............................................................PASSED
    SINGLET <0AG|QM_XY|0AG>...............................................................PASSED
    SINGLET <0AG|QM_XZ|0AG>...............................................................PASSED
    SINGLET <0AG|QM_YY|0AG>...............................................................PASSED
    SINGLET <0AG|QM_YZ|0AG>...............................................................PASSED
    SINGLET <0AG|QM_ZZ|0AG>...............................................................PASSED
    SINGLET <0B1U|DM_X|0B1U>..............................................................PASSED
    SINGLET <0B1U|DM_Y|0B1U>..............................................................PASSED
    SINGLET <0B1U|DM_Z|0B1U>..............................................................PASSED
    SINGLET <0B1U|QM_XX|0B1U>.............................................................PASSED
    SINGLET <0B1U|QM_XY|0B1U>.............................................................PASSED
    SINGLET <0B1U|QM_XZ|0B1U>.............................................................PASSED
    SINGLET <0B1U|QM_YY|0B1U>.............................................................PASSED
    SINGLET <0B1U|QM_YZ|0B1U>.............................................................PASSED
    SINGLET <0B1U|QM_ZZ|0B1U>.............................................................PASSED
    SINGLET <1AG|DM_X|1AG>................................................................PASSED
    SINGLET <1AG|DM_Y|1AG>................................................................PASSED
    SINGLET <1AG|DM_Z|1AG>................................................................PASSED
    SINGLET <1AG|QM_XX|1AG>...............................................................PASSED
    SINGLET <1AG|QM_XY|1AG>...............................................................PASSED
    SINGLET <1AG|QM_XZ|1AG>...............................................................PASSED
    SINGLET <1AG|QM_YY|1AG>...............................................................PASSED
    SINGLET <1AG|QM_YZ|1AG>...............................................................PASSED
    SINGLET <1AG|QM_ZZ|1AG>...............................................................PASSED
    SINGLET |<0AG|DM|0AG>|................................................................PASSED
    SINGLET |<0B1U|DM|0B1U>|..............................................................PASSED
    SINGLET |<1AG|DM|1AG>|................................................................PASSED
    TRANS SINGLET <0AG|DM_X|0B1U>.........................................................PASSED
    TRANS SINGLET <0AG|DM_X|1AG>..........................................................PASSED
    TRANS SINGLET <0AG|DM_Y|0B1U>.........................................................PASSED
    TRANS SINGLET <0AG|DM_Y|1AG>..........................................................PASSED
    TRANS SINGLET <0AG|DM_Z|0B1U>.........................................................PASSED
    TRANS SINGLET <0AG|DM_Z|1AG>..........................................................PASSED
    TRANS SINGLET <1AG|DM_X|0B1U>.........................................................PASSED
    TRANS SINGLET <1AG|DM_Y|0B1U>.........................................................PASSED
    TRANS SINGLET <1AG|DM_Z|0B1U>.........................................................PASSED
    TRANS SINGLET S_MAX 0AG -> 0B1U.......................................................PASSED
    TRANS SINGLET S_MAX 0AG -> 1AG........................................................PASSED
    TRANS SINGLET S_MAX 1AG -> 0B1U.......................................................PASSED
    TRANS SINGLET |<0AG|DM|0B1U>|.........................................................PASSED
    TRANS SINGLET |<0AG|DM|1AG>|..........................................................PASSED
    TRANS SINGLET |<1AG|DM|0B1U>|.........................................................PASSED
    TRIPLET <0B1U|DM_X|0B1U>..............................................................PASSED
    TRIPLET <0B1U|DM_Y|0B1U>..............................................................PASSED
    TRIPLET <0B1U|DM_Z|0B1U>..............................................................PASSED
    TRIPLET <0B1U|QM_XX|0B1U>.............................................................PASSED
    TRIPLET <0B1U|QM_XY|0B1U>.............................................................PASSED
    TRIPLET <0B1U|QM_XZ|0B1U>.............................................................PASSED
    TRIPLET <0B1U|QM_YY|0B1U>.............................................................PASSED
    TRIPLET <0B1U|QM_YZ|0B1U>.............................................................PASSED
    TRIPLET <0B1U|QM_ZZ|0B1U>.............................................................PASSED
    TRIPLET |<0B1U|DM|0B1U>|..............................................................PASSED
    TWO-ELECTRON ENERGY...................................................................PASSED

    Psi4 stopped on: Wednesday, 08 November 2023 04:39PM
    Psi4 wall time for execution: 0:00:00.12

*** Psi4 exiting successfully. Buy a developer a beer!
