    -----------------------------------------------------------------------
          Psi4: An Open-Source Ab Initio Electronic Structure Package
                              Psi4 0.4.112 Driver

                          Git: Rev {master} ace9693 

    J. M. Turney, A. C. Simmonett, R. M. Parrish, E. G. Hohenstein,
    F. A. Evangelista, J. T. Fermann, B. J. Mintz, L. A. Burns, J. J. Wilke,
    M. L. Abrams, N. J. Russ, M. L. Leininger, C. L. Janssen, E. T. Seidl,
    W. D. Allen, H. F. Schaefer, R. A. King, E. F. Valeev, C. D. Sherrill,
    and T. D. Crawford, WIREs Comput. Mol. Sci. 2, 556-565 (2012)
    (doi: 10.1002/wcms.93)

                         Additional Contributions by
    A. E. DePrince, M. Saitow, U. Bozkaya, A. Yu. Sokolov
    -----------------------------------------------------------------------


    Psi4 started on: Thu Feb 25 16:49:10 2016

    Process ID:  28280
    PSI4DATADIR: /Users/kevinhannon/Programs/psi4cmake/psi4src/share
    Memory level set to 256.000 MB

  ==> Input File <==

--------------------------------------------------------------------------
#! Generated using commit GITCOMMIT
#! Perform a computation of HF without storing DISKDF

import forte

refmcscf     = -99.939316381644 #cc-pvdz
refdsrgpt2    = -100.106152173248063

memory 500 mb

molecule HF{
  0 1
  F
  H  1 R
  R = 1.50
}

set globals{
   basis                   cc-pvdz
   df_basis_mp2            cc-pvdz-ri
   df_basis_scf            cc-pvdz-jkfit
   reference               ROHF
   scf_type                DF
   d_convergence           12
   e_convergence           15
}
set forte {
   frozen_docc            [1,0,0,0]
   restricted_docc        [1,0,1,1]
   active                 [2,0,0,0]
   root_sym                0
   nroot                   1
   dsrg_s                  1.0
   int_type                diskdf
   job_type                three-dsrg-mrpt2
   cas_type                FCI
}

energy('scf')
dsrg_mrpt2 = energy('forte')
compare_values(dsrg_mrpt2, refdsrgpt2, 8, "DSRG-MRPT2 Energy")

--------------------------------------------------------------------------
/Users/kevinhannon/Programs/forte/forte.so loaded.

  Memory set to 500.000 MiB by Python script.

*** tstart() called on Kevins-MacBook-Pro.local
*** at Thu Feb 25 16:49:10 2016


         ---------------------------------------------------------
                                   SCF
            by Justin Turney, Rob Parrish, and Andy Simmonett
                             ROHF Reference
                        1 Threads,    500 MiB Core
         ---------------------------------------------------------

  ==> Geometry <==

    Molecular point group: c2v
    Full point group: C_inf_v

    Geometry (in Angstrom), charge = 0, multiplicity = 1:

       Center              X                  Y                   Z               Mass       
    ------------   -----------------  -----------------  -----------------  -----------------
           F          0.000000000000     0.000000000000    -0.075563346012    18.998403224000
           H          0.000000000000     0.000000000000     1.424436653988     1.007825032070

  Running in c2v symmetry.

  Rotational constants: A = ************  B =      7.82847  C =      7.82847 [cm^-1]
  Rotational constants: A = ************  B = 234691.65925  C = 234691.65925 [MHz]
  Nuclear repulsion =    3.175063251540000

  Charge       = 0
  Multiplicity = 1
  Electrons    = 10
  Nalpha       = 5
  Nbeta        = 5

  ==> Algorithm <==

  SCF Algorithm Type is DF.
  DIIS enabled.
  MOM disabled.
  Fractional occupation disabled.
  Guess Type is CORE.
  Energy threshold   = 1.00e-15
  Density threshold  = 1.00e-12
  Integral threshold = 0.00e+00

  ==> Primary Basis <==

  Basis Set: CC-PVDZ
    Number of shells: 9
    Number of basis function: 19
    Number of Cartesian functions: 20
    Spherical Harmonics?: true
    Max angular momentum: 2

  ==> Pre-Iterations <==

   -------------------------------------------------------
    Irrep   Nso     Nmo     Nalpha   Nbeta   Ndocc  Nsocc
   -------------------------------------------------------
     A1        10      10       0       0       0       0
     A2         1       1       0       0       0       0
     B1         4       4       0       0       0       0
     B2         4       4       0       0       0       0
   -------------------------------------------------------
    Total      19      19       5       5       5       0
   -------------------------------------------------------

  ==> Integral Setup <==

  ==> DFJK: Density-Fitted J/K Matrices <==

    J tasked:                  Yes
    K tasked:                  Yes
    wK tasked:                  No
    OpenMP threads:              1
    Integrals threads:           1
    Memory (MB):               357
    Algorithm:                Core
    Integral Cache:           NONE
    Schwarz Cutoff:          1E-12
    Fitting Condition:       1E-12

   => Auxiliary Basis Set <=

  Basis Set: CC-PVDZ-JKFIT
    Number of shells: 33
    Number of basis function: 93
    Number of Cartesian functions: 106
    Spherical Harmonics?: true
    Max angular momentum: 3

  Minimum eigenvalue in the overlap matrix is 1.3340269888E-01.
  Using Symmetric Orthogonalization.
  SCF Guess: Core (One-Electron) Hamiltonian.

  ==> Iterations <==

                           Total Energy        Delta E     RMS |[F,P]|

    Occupation by irrep:
             A1    A2    B1    B2 
    DOCC [     4,    0,    0,    1 ]
    SOCC [     0,    0,    0,    0 ]

   @DF-ROHF iter   1:   -93.53263757849986   -9.35326e+01   1.78843e-01 
    Occupation by irrep:
             A1    A2    B1    B2 
    DOCC [     3,    0,    1,    1 ]
    SOCC [     0,    0,    0,    0 ]

   @DF-ROHF iter   2:   -93.15313695844868    3.79501e-01   1.79265e-01 DIIS
   @DF-ROHF iter   3:   -99.62674209875253   -6.47361e+00   4.55277e-02 DIIS
   @DF-ROHF iter   4:   -99.83268315702676   -2.05941e-01   1.24056e-02 DIIS
   @DF-ROHF iter   5:   -99.86789218235248   -3.52090e-02   6.50636e-03 DIIS
   @DF-ROHF iter   6:   -99.87148939981752   -3.59722e-03   3.69074e-03 DIIS
   @DF-ROHF iter   7:   -99.87284503800350   -1.35564e-03   2.00298e-04 DIIS
   @DF-ROHF iter   8:   -99.87285014213680   -5.10413e-06   8.57079e-05 DIIS
   @DF-ROHF iter   9:   -99.87285077390794   -6.31771e-07   2.97675e-06 DIIS
   @DF-ROHF iter  10:   -99.87285077493129   -1.02335e-09   4.14969e-07 DIIS
   @DF-ROHF iter  11:   -99.87285077494798   -1.66835e-11   3.75714e-08 DIIS
   @DF-ROHF iter  12:   -99.87285077494812   -1.42109e-13   5.71225e-09 DIIS
   @DF-ROHF iter  13:   -99.87285077494812    0.00000e+00   5.52872e-10 DIIS
   @DF-ROHF iter  14:   -99.87285077494815   -2.84217e-14   5.79010e-11 DIIS
   @DF-ROHF iter  15:   -99.87285077494813    1.42109e-14   5.03234e-12 DIIS
   @DF-ROHF iter  16:   -99.87285077494801    1.27898e-13   4.73847e-13 DIIS
   @DF-ROHF iter  17:   -99.87285077494805   -4.26326e-14   8.12697e-14 DIIS
   @DF-ROHF iter  18:   -99.87285077494812   -7.10543e-14   2.37845e-14 DIIS
   @DF-ROHF iter  19:   -99.87285077494805    7.10543e-14   9.91217e-15 DIIS
   @DF-ROHF iter  20:   -99.87285077494813   -8.52651e-14   4.85202e-15 DIIS
   @DF-ROHF iter  21:   -99.87285077494809    4.26326e-14   3.67423e-15 DIIS
   @DF-ROHF iter  22:   -99.87285077494805    4.26326e-14   1.98853e-15 DIIS
   @DF-ROHF iter  23:   -99.87285077494809   -4.26326e-14   1.39550e-15 DIIS
   @DF-ROHF iter  24:   -99.87285077494816   -7.10543e-14   1.18433e-15 DIIS
   @DF-ROHF iter  25:   -99.87285077494808    8.52651e-14   1.49749e-15 DIIS
   @DF-ROHF iter  26:   -99.87285077494808    0.00000e+00   8.85499e-16 DIIS

  ==> Post-Iterations <==

    Orbital Energies (a.u.)
    -----------------------

    Doubly Occupied:                                                      

       1A1   -26.279410     2A1    -1.484572     1B2    -0.593968  
       1B1    -0.593968     3A1    -0.565054  

    Singly Occupied:                                                      

    

    Virtual:                                                              

       4A1     0.016631     5A1     0.576874     2B1     1.315550  
       2B2     1.315550     6A1     1.464142     3B1     1.599468  
       3B2     1.599468     7A1     1.633209     8A1     2.301112  
       4B1     4.038915     4B2     4.038915     9A1     4.041504  
       1A2     4.041504    10A1     4.220351  

    Final Occupation by Irrep:
             A1    A2    B1    B2 
    DOCC [     3,    0,    1,    1 ]
    SOCC [     0,    0,    0,    0 ]

  Energy converged.

  @DF-ROHF Final Energy:   -99.87285077494808

   => Energetics <=

    Nuclear Repulsion Energy =              3.1750632515400001
    One-Electron Energy =                -147.0618843220248948
    Two-Electron Energy =                  44.0139702955368222
    DFT Exchange-Correlation Energy =       0.0000000000000000
    Empirical Dispersion Energy =           0.0000000000000000
    PCM Polarization Energy =               0.0000000000000000
    EFP Energy =                            0.0000000000000000
    Total Energy =                        -99.8728507749480769

    Alert: EFP and PCM quantities not currently incorporated into SCF psivars.

Properties will be evaluated at   0.000000,   0.000000,   0.000000 Bohr
  ==> Properties <==


Properties computed using the SCF density matrix

  Nuclear Dipole Moment: (a.u.)
     X:     0.0000      Y:     0.0000      Z:     1.4066

  Electronic Dipole Moment: (a.u.)
     X:     0.0000      Y:     0.0000      Z:    -0.2427

  Dipole Moment: (a.u.)
     X:     0.0000      Y:     0.0000      Z:     1.1640     Total:     1.1640

  Dipole Moment: (Debye)
     X:     0.0000      Y:     0.0000      Z:     2.9585     Total:     2.9585


  Saving occupied orbitals to File 180.

*** tstop() called on Kevins-MacBook-Pro.local at Thu Feb 25 16:49:10 2016
Module time:
	user time   =       0.19 seconds =       0.00 minutes
	system time =       0.02 seconds =       0.00 minutes
	total time  =          0 seconds =       0.00 minutes
Total time:
	user time   =       0.19 seconds =       0.00 minutes
	system time =       0.02 seconds =       0.00 minutes
	total time  =          0 seconds =       0.00 minutes

*** tstart() called on Kevins-MacBook-Pro.local
*** at Thu Feb 25 16:49:10 2016


         ---------------------------------------------------------
                                   SCF
            by Justin Turney, Rob Parrish, and Andy Simmonett
                             ROHF Reference
                        1 Threads,    500 MiB Core
         ---------------------------------------------------------

  ==> Geometry <==

    Molecular point group: c2v
    Full point group: C_inf_v

    Geometry (in Angstrom), charge = 0, multiplicity = 1:

       Center              X                  Y                   Z               Mass       
    ------------   -----------------  -----------------  -----------------  -----------------
           F          0.000000000000     0.000000000000    -0.075563346012    18.998403224000
           H          0.000000000000     0.000000000000     1.424436653988     1.007825032070

  Running in c2v symmetry.

  Rotational constants: A = ************  B =      7.82847  C =      7.82847 [cm^-1]
  Rotational constants: A = ************  B = 234691.65925  C = 234691.65925 [MHz]
  Nuclear repulsion =    3.175063251540000

  Charge       = 0
  Multiplicity = 1
  Electrons    = 10
  Nalpha       = 5
  Nbeta        = 5

  ==> Algorithm <==

  SCF Algorithm Type is DF.
  DIIS enabled.
  MOM disabled.
  Fractional occupation disabled.
  Guess Type is CORE.
  Energy threshold   = 1.00e-15
  Density threshold  = 1.00e-12
  Integral threshold = 0.00e+00

  ==> Primary Basis <==

  Basis Set: CC-PVDZ
    Number of shells: 9
    Number of basis function: 19
    Number of Cartesian functions: 20
    Spherical Harmonics?: true
    Max angular momentum: 2

  ==> Pre-Iterations <==

   -------------------------------------------------------
    Irrep   Nso     Nmo     Nalpha   Nbeta   Ndocc  Nsocc
   -------------------------------------------------------
     A1        10      10       0       0       0       0
     A2         1       1       0       0       0       0
     B1         4       4       0       0       0       0
     B2         4       4       0       0       0       0
   -------------------------------------------------------
    Total      19      19       5       5       5       0
   -------------------------------------------------------

  ==> Integral Setup <==

  ==> DFJK: Density-Fitted J/K Matrices <==

    J tasked:                  Yes
    K tasked:                  Yes
    wK tasked:                  No
    OpenMP threads:              1
    Integrals threads:           1
    Memory (MB):               357
    Algorithm:                Core
    Integral Cache:           NONE
    Schwarz Cutoff:          1E-12
    Fitting Condition:       1E-12

   => Auxiliary Basis Set <=

  Basis Set: CC-PVDZ-JKFIT
    Number of shells: 33
    Number of basis function: 93
    Number of Cartesian functions: 106
    Spherical Harmonics?: true
    Max angular momentum: 3

  Minimum eigenvalue in the overlap matrix is 1.3340269888E-01.
  Using Symmetric Orthogonalization.
  SCF Guess: Core (One-Electron) Hamiltonian.

  ==> Iterations <==

                           Total Energy        Delta E     RMS |[F,P]|

    Occupation by irrep:
             A1    A2    B1    B2 
    DOCC [     4,    0,    0,    1 ]
    SOCC [     0,    0,    0,    0 ]

   @DF-ROHF iter   1:   -93.53263757849990   -9.35326e+01   1.78843e-01 
    Occupation by irrep:
             A1    A2    B1    B2 
    DOCC [     3,    0,    1,    1 ]
    SOCC [     0,    0,    0,    0 ]

   @DF-ROHF iter   2:   -93.15313695844873    3.79501e-01   1.79265e-01 DIIS
   @DF-ROHF iter   3:   -99.62674209875260   -6.47361e+00   4.55277e-02 DIIS
   @DF-ROHF iter   4:   -99.83268315702676   -2.05941e-01   1.24056e-02 DIIS
   @DF-ROHF iter   5:   -99.86789218235248   -3.52090e-02   6.50636e-03 DIIS
   @DF-ROHF iter   6:   -99.87148939981753   -3.59722e-03   3.69074e-03 DIIS
   @DF-ROHF iter   7:   -99.87284503800350   -1.35564e-03   2.00298e-04 DIIS
   @DF-ROHF iter   8:   -99.87285014213680   -5.10413e-06   8.57079e-05 DIIS
   @DF-ROHF iter   9:   -99.87285077390796   -6.31771e-07   2.97675e-06 DIIS
   @DF-ROHF iter  10:   -99.87285077493119   -1.02324e-09   4.14969e-07 DIIS
   @DF-ROHF iter  11:   -99.87285077494796   -1.67688e-11   3.75714e-08 DIIS
   @DF-ROHF iter  12:   -99.87285077494808   -1.13687e-13   5.71224e-09 DIIS
   @DF-ROHF iter  13:   -99.87285077494812   -4.26326e-14   5.52872e-10 DIIS
   @DF-ROHF iter  14:   -99.87285077494828   -1.56319e-13   5.79013e-11 DIIS
   @DF-ROHF iter  15:   -99.87285077494809    1.84741e-13   5.03149e-12 DIIS
   @DF-ROHF iter  16:   -99.87285077494805    4.26326e-14   4.73579e-13 DIIS
   @DF-ROHF iter  17:   -99.87285077494806   -1.42109e-14   8.14765e-14 DIIS
   @DF-ROHF iter  18:   -99.87285077494809   -2.84217e-14   2.39444e-14 DIIS
   @DF-ROHF iter  19:   -99.87285077494815   -5.68434e-14   9.48239e-15 DIIS
   @DF-ROHF iter  20:   -99.87285077494818   -2.84217e-14   4.54139e-15 DIIS
   @DF-ROHF iter  21:   -99.87285077494805    1.27898e-13   3.60677e-15 DIIS
   @DF-ROHF iter  22:   -99.87285077494806   -1.42109e-14   1.99098e-15 DIIS
   @DF-ROHF iter  23:   -99.87285077494806    0.00000e+00   1.50790e-15 DIIS

  ==> Post-Iterations <==

    Orbital Energies (a.u.)
    -----------------------

    Doubly Occupied:                                                      

       1A1   -26.279410     2A1    -1.484572     1B2    -0.593968  
       1B1    -0.593968     3A1    -0.565054  

    Singly Occupied:                                                      

    

    Virtual:                                                              

       4A1     0.016631     5A1     0.576874     2B1     1.315550  
       2B2     1.315550     6A1     1.464142     3B1     1.599468  
       3B2     1.599468     7A1     1.633209     8A1     2.301112  
       4B1     4.038915     4B2     4.038915     9A1     4.041504  
       1A2     4.041504    10A1     4.220351  

    Final Occupation by Irrep:
             A1    A2    B1    B2 
    DOCC [     3,    0,    1,    1 ]
    SOCC [     0,    0,    0,    0 ]

  Energy converged.

  @DF-ROHF Final Energy:   -99.87285077494806

   => Energetics <=

    Nuclear Repulsion Energy =              3.1750632515400001
    One-Electron Energy =                -147.0618843220249232
    Two-Electron Energy =                  44.0139702955368577
    DFT Exchange-Correlation Energy =       0.0000000000000000
    Empirical Dispersion Energy =           0.0000000000000000
    PCM Polarization Energy =               0.0000000000000000
    EFP Energy =                            0.0000000000000000
    Total Energy =                        -99.8728507749480627

    Alert: EFP and PCM quantities not currently incorporated into SCF psivars.

Properties will be evaluated at   0.000000,   0.000000,   0.000000 Bohr
  ==> Properties <==


Properties computed using the SCF density matrix

  Nuclear Dipole Moment: (a.u.)
     X:     0.0000      Y:     0.0000      Z:     1.4066

  Electronic Dipole Moment: (a.u.)
     X:     0.0000      Y:     0.0000      Z:    -0.2427

  Dipole Moment: (a.u.)
     X:     0.0000      Y:     0.0000      Z:     1.1640     Total:     1.1640

  Dipole Moment: (Debye)
     X:     0.0000      Y:     0.0000      Z:     2.9585     Total:     2.9585


  Saving occupied orbitals to File 180.

*** tstop() called on Kevins-MacBook-Pro.local at Thu Feb 25 16:49:11 2016
Module time:
	user time   =       0.19 seconds =       0.00 minutes
	system time =       0.01 seconds =       0.00 minutes
	total time  =          1 seconds =       0.02 minutes
Total time:
	user time   =       0.43 seconds =       0.01 minutes
	system time =       0.03 seconds =       0.00 minutes
	total time  =          1 seconds =       0.02 minutes

Reading options from the FORTE block
Calling plugin /Users/kevinhannon/Programs/forte/forte.so.




  ==> MO Space Information <==

  Read options for space FROZEN_DOCC
  Read options for space RESTRICTED_DOCC
  Read options for space ACTIVE
 Removing orbital 0
  -------------------------------------------------
                       A1    A2    B1    B2   Sum
  -------------------------------------------------
    FROZEN_DOCC         1     0     0     0     1
    RESTRICTED_DOCC     1     0     1     1     3
    ACTIVE              2     0     0     0     2
    RESTRICTED_UOCC     6     1     3     3    13
    FROZEN_UOCC         0     0     0     0     0
    Total              10     1     4     4    19
  -------------------------------------------------

  ==> Integral Transformation <==

  Number of molecular orbitals:               19
  Number of correlated molecular orbitals:    18
  Number of frozen occupied orbitals:          1
  Number of frozen unoccupied orbitals:        0


  DISKDFIntegrals overall time
 Computing Density fitted integrals 

 Number of auxiliary basis functions:  70
 Need 0.000188 GB to store DF integrals

    Computing DF Integrals               ......Done. Timing        0.131717 s
  Frozen-core energy            -76.183165297560 a.u.

 FrozenOneBody Operator takes  0.16167300 s
  Resorting integrals after freezing core.
 Resorting integrals takes   0.00001700s
  DISKDFIntegrals take      0.31764000 s

                -----------------------------------------------
                  String-based Full Configuration Interaction
                          by Francesco A. Evangelista
                -----------------------------------------------

  Number of electrons: 10
  Charge: 0
  Multiplicity: 1
  Davidson subspace max dim: 8
  Davidson subspace min dim: 2
  M_s: 0

  ==> String Lists <==

  Number of alpha electrons     = 1
  Number of beta electrons      = 1
  Number of alpha strings       = 2
  Number of beta strings        = 2
  Timing for strings        =      0.000 s
  Timing for NN strings     =      0.000 s
  Timing for VO strings     =      0.000 s
  Timing for OO strings     =      0.000 s
  Timing for Knowles-Handy  =      0.000 s
  Timing for VVOO strings   =      0.000 s
  Timing for VOVO strings   =      0.000 s
  Timing for 1-hole strings =      0.000 s
  Timing for 2-hole strings =      0.000 s
  Timing for 3-hole strings =      0.000 s
  Total timing              =      0.000 s

  ==> FCI Solver <==

    Number of determinants                           4
    Symmetry                                         0
    Multiplicity                                     1
    Number of roots                                  1
    Target root                                      0
    Trial vectors per root                          10

  Allocating memory for the Hamiltonian algorithm. Size: 2 x 2 x 2.   Memory: 0.000000 GB

  ==> FCI Initial Guess <==

  ---------------------------------------------
    Root            Energy     <S^2>   Spin
  ---------------------------------------------
      0      -99.910045876927  0.000  singlet
      1      -99.766461982961  2.000  triplet
      2      -99.546532113003  0.000  singlet
      3      -99.075244155603  0.000  singlet
  ---------------------------------------------
  Timing for initial guess  =      0.000 s

  Projecting out root 1
  ==> Diagonalizing Hamiltonian <==

  ----------------------------------------
    Iter.      Avg. Energy       Delta_E
  ----------------------------------------
      1      -99.910045876927  -9.991e+01
      2      -99.910045876927  -2.842e-14
      3      -99.910045876927  +0.000e+00
  ----------------------------------------
  The Davidson-Liu algorithm converged in 4 iterations.

  ==> Root No. 0 <==

    20      0.96676404
    02     -0.23539429

    Total Energy:       -99.910045876927370

  ==> RDMs for Root No. 0 <==
    Timing for 1-RDM: 0.000 s
    Timing for 2-RDM: 0.000 s
    Timing for 3-RDM: 0.000 s

  ==> NATURAL ORBITALS <==

        1A1     1.885259      2A1     0.114741  



                          ----------------------------
                            Semi-Canonical Orbitals
                            Francesco A. Evangelista
                          ----------------------------

 Making a fock matrix 

---------Blocking Information-------

  181440 / 375000000 = 0
  Block_size = 70 num_block = 1

  ==> Integral transformation <==

 Computing Density fitted integrals 

 Number of auxiliary basis functions:  70
 Need 0.000188 GB to store DF integrals

    Computing DF Integrals               ......Done. Timing        0.124423 s
 Make diagonal integrals in DISKDF took 0.000000 s
  Frozen-core energy            -76.183165297560 a.u.

 FrozenOneBody Operator takes  0.16238600 s
  Resorting integrals after freezing core.
 Resorting integrals takes   0.00001400s
  Frozen Orbitals takes     0.162 s.

                -----------------------------------------------
                  String-based Full Configuration Interaction
                          by Francesco A. Evangelista
                -----------------------------------------------

  Number of electrons: 10
  Charge: 0
  Multiplicity: 1
  Davidson subspace max dim: 8
  Davidson subspace min dim: 2
  M_s: 0

  ==> String Lists <==

  Number of alpha electrons     = 1
  Number of beta electrons      = 1
  Number of alpha strings       = 2
  Number of beta strings        = 2
  Timing for strings        =      0.000 s
  Timing for NN strings     =      0.000 s
  Timing for VO strings     =      0.000 s
  Timing for OO strings     =      0.000 s
  Timing for Knowles-Handy  =      0.000 s
  Timing for VVOO strings   =      0.000 s
  Timing for VOVO strings   =      0.000 s
  Timing for 1-hole strings =      0.000 s
  Timing for 2-hole strings =      0.000 s
  Timing for 3-hole strings =      0.000 s
  Total timing              =      0.000 s

  ==> FCI Solver <==

    Number of determinants                           4
    Symmetry                                         0
    Multiplicity                                     1
    Number of roots                                  1
    Target root                                      0
    Trial vectors per root                          10

  Allocating memory for the Hamiltonian algorithm. Size: 2 x 2 x 2.   Memory: 0.000000 GB

  ==> FCI Initial Guess <==

  ---------------------------------------------
    Root            Energy     <S^2>   Spin
  ---------------------------------------------
      0      -99.910045876927  0.000  singlet
      1      -99.766461982961  2.000  triplet
      2      -99.546532113003  0.000  singlet
      3      -99.075244155603  0.000  singlet
  ---------------------------------------------
  Timing for initial guess  =      0.000 s

  Projecting out root 1
  ==> Diagonalizing Hamiltonian <==

  ----------------------------------------
    Iter.      Avg. Energy       Delta_E
  ----------------------------------------
      1      -99.910045876927  -9.991e+01
      2      -99.910045876927  -2.842e-14
      3      -99.910045876927  +0.000e+00
  ----------------------------------------
  The Davidson-Liu algorithm converged in 4 iterations.

  ==> Root No. 0 <==

    20     -0.96474140
    02      0.23337165

    Total Energy:       -99.910045876927398

  ==> RDMs for Root No. 0 <==
    Timing for 1-RDM: 0.000 s
    Timing for 2-RDM: 0.000 s
    Timing for 3-RDM: 0.000 s

  ==> NATURAL ORBITALS <==

        1A1     1.885259      2A1     0.114741  



	  ---------------------------------------------------------
	      DF/CD - Driven Similarity Renormalization Group MBPT2
	                   Kevin Hannon and Chenyang (York) Li
	                       1 thread(s) (OMP)
	  ---------------------------------------------------------
  Reference = ROHF
  Reference Energy = -99.910045876927398
 Making a fock matrix 

---------Blocking Information-------

  181440 / 375000000 = 0
  Block_size = 70 num_block = 1

  ==> Calculation Information <==

    Flow parameter                           1.000e+00
    Cholesky Tolerance                       1.000e-06
    Taylor expansion threshold               1.000e-03
    int_type                                    DISKDF
    ccvv_algorithm                           FLY_AMBIT
    ccvv_source                                 NORMAL
    Computing T2                         ......Done. Timing        0.015953 s
    Computing V and Renormalizing        ......Done. Timing        0.015009 s
    Computing T1                         ......Done. Timing        0.004474 s
    Renormalizing F                      ......Done. Timing        0.005752 s
    Computing <[F, T1]>                  ......Done. Timing        0.009479 s
    Computing <[F, T2]>                  ......Done. Timing        0.003819 s
    Computing <[V, T1]>                  ......Done. Timing        0.003710 s
    Computing <[V, T2]> (C_2)^4 (no ccvv) ...

 CAVV computation takes 0.00525900

 CCVA takes 0.00910600...Done. Timing        0.031801 s
    Computing <[V, T2]> (C_2)^4 ccvv     ......Done. Timing        0.013013 s
    Computing <[V, T2]> 4HH              ......Done. Timing        0.020736 s
    Computing <V, T2]> 4PP               ...  Done. Timing        0.023010 s
    Computing [V, T2] 4PH                ...  Done. Timing        0.086291 s
    Computing [V, T2] λ3                ......Done. Timing        0.016400 s

  ==> DSRG-MRPT2 Energy Summary <==

    E0 (reference)                 =    -99.910045876927398
    <[F, T1]>                      =     -0.002094698718012
    <[F, T2]>                      =     -0.000835394148506
    <[V, T1]>                      =     -0.000844874870456
    <[V, T2]> (C_2)^4              =     -0.209993071386121
    <[V, T2]> C_4 (C_2)^2 HH       =      0.001946813073244
    <[V, T2]> C_4 (C_2)^2 PP       =      0.010757292709814
    <[V, T2]> C_4 (C_2)^2 PH       =      0.004632558961431
    <[V, T2]> C_6 C_2              =      0.000325078057864
    <[V, T2]>                      =     -0.192331328583768
    DSRG-MRPT2 correlation energy  =     -0.196106296320742
    DSRG-MRPT2 total energy        =   -100.106152173248134
    max(T1)                        =      0.012069613537884
    ||T1||                         =      0.036794195389938


    CD/DF-DSRG-MRPT2 took   0.25010600 s.

  Your calculation took 0.93802400 seconds
	DSRG-MRPT2 Energy.................................................PASSED

*** PSI4 exiting successfully. Buy a developer a beer!
