
    -----------------------------------------------------------------------
          Psi4: An Open-Source Ab Initio Electronic Structure Package
                               Psi4 1.1a2.dev139 

                         Git: Rev {master} c3d9b50 


    J. M. Turney, A. C. Simmonett, R. M. Parrish, E. G. Hohenstein,
    F. A. Evangelista, J. T. Fermann, B. J. Mintz, L. A. Burns, J. J. Wilke,
    M. L. Abrams, N. J. Russ, M. L. Leininger, C. L. Janssen, E. T. Seidl,
    W. D. Allen, H. F. Schaefer, R. A. King, E. F. Valeev, C. D. Sherrill,
    and T. D. Crawford, WIREs Comput. Mol. Sci. 2, 556-565 (2012)
    (doi: 10.1002/wcms.93)


                         Additional Contributions by
    A. E. DePrince, U. Bozkaya, A. Yu. Sokolov, D. G. A. Smith, R. Di Remigio,
    R. M. Richard, J. F. Gonthier, H. R. McAlexander, M. Saitow, and
    B. P. Pritchard
    -----------------------------------------------------------------------


    Psi4 started on: Friday, 16 December 2016 08:33AM

    Process ID:  31628
    PSIDATADIR: /home/kannon/src/psi4_cmake/Install_Release/share/psi4
    Memory:     500.0 MiB
    Threads:    1
    
  ==> Input File <==

--------------------------------------------------------------------------
#! Generated using commit GITCOMMIT
#! Perform a computation of HF without storing DISKDF

import forte

refmcscf     = -99.939316381644 #cc-pvdz
refdsrgpt2    = -100.107827239

memory 500 mb

molecule HF{
  0 1
  F
  H  1 R
  R = 1.50
}

set globals{
   basis                   cc-pvdz
   df_basis_mp2            cc-pvdz-ri
   df_basis_scf            cc-pvdz-jkfit
   reference               ROHF
   scf_type                DF
   d_convergence           12
   e_convergence           15
}
set forte {
   frozen_docc            [1,0,0,0]
   restricted_docc        [1,0,1,1]
   active                 [2,0,0,0]
   root_sym                0
   nroot                   1
   dsrg_s                  1.0
   int_type                diskdf
   job_type                three-dsrg-mrpt2
   cas_type                FCI
}

energy('scf')
dsrg_mrpt2 = energy('forte')
compare_values(dsrg_mrpt2, refdsrgpt2, 8, "DSRG-MRPT2 Energy")

--------------------------------------------------------------------------
/home/kannon/src/forte/forte.so loaded.

  Memory set to 500.000 MiB by Python script.

*** tstart() called on master
*** at Fri Dec 16 08:33:00 2016


         ---------------------------------------------------------
                                   SCF
            by Justin Turney, Rob Parrish, and Andy Simmonett
                             ROHF Reference
                        1 Threads,    500 MiB Core
         ---------------------------------------------------------

  ==> Geometry <==

    Molecular point group: c2v
    Full point group: C_inf_v

    Geometry (in Angstrom), charge = 0, multiplicity = 1:

       Center              X                  Y                   Z               Mass       
    ------------   -----------------  -----------------  -----------------  -----------------
           F          0.000000000000     0.000000000000    -0.075563346012    18.998403224000
           H          0.000000000000     0.000000000000     1.424436653988     1.007825032070

  Running in c2v symmetry.

  Rotational constants: A = ************  B =      7.82847  C =      7.82847 [cm^-1]
  Rotational constants: A = ************  B = 234691.65925  C = 234691.65925 [MHz]
  Nuclear repulsion =    3.175063251540000

  Charge       = 0
  Multiplicity = 1
  Electrons    = 10
  Nalpha       = 5
  Nbeta        = 5

  ==> Algorithm <==

  SCF Algorithm Type is DF.
  DIIS enabled.
  MOM disabled.
  Fractional occupation disabled.
  Guess Type is GWH.
  Energy threshold   = 1.00e-15
  Density threshold  = 1.00e-12
  Integral threshold = 0.00e+00

  ==> Primary Basis <==

  Basis Set: file /home/kannon/src/psi4_cmake/Install_Release/share/psi4/basis/cc-pvdz.gbs
    Number of shells: 9
    Number of basis function: 19
    Number of Cartesian functions: 20
    Spherical Harmonics?: true
    Max angular momentum: 2

  ==> Pre-Iterations <==

   -------------------------------------------------------
    Irrep   Nso     Nmo     Nalpha   Nbeta   Ndocc  Nsocc
   -------------------------------------------------------
     A1        10      10       0       0       0       0
     A2         1       1       0       0       0       0
     B1         4       4       0       0       0       0
     B2         4       4       0       0       0       0
   -------------------------------------------------------
    Total      19      19       5       5       5       0
   -------------------------------------------------------

  ==> Integral Setup <==

  ==> DFJK: Density-Fitted J/K Matrices <==

    J tasked:                  Yes
    K tasked:                  Yes
    wK tasked:                  No
    OpenMP threads:              1
    Integrals threads:           1
    Memory (MB):               357
    Algorithm:                Core
    Integral Cache:           NONE
    Schwarz Cutoff:          1E-12
    Fitting Condition:       1E-12

   => Auxiliary Basis Set <=

  Basis Set: file /home/kannon/src/psi4_cmake/Install_Release/share/psi4/basis/cc-pvdz-jkfit.gbs
    Number of shells: 33
    Number of basis function: 93
    Number of Cartesian functions: 106
    Spherical Harmonics?: true
    Max angular momentum: 3

  Minimum eigenvalue in the overlap matrix is 1.3340269888E-01.
  Using Symmetric Orthogonalization.

  SCF Guess: Generalized Wolfsberg-Helmholtz.

  ==> Iterations <==

                           Total Energy        Delta E     RMS |[F,P]|

   @DF-ROHF iter   1:   -98.18654067384443   -9.81865e+01   1.45554e-01 
   @DF-ROHF iter   2:   -98.43724244716780   -2.50702e-01   1.12600e-01 DIIS
   @DF-ROHF iter   3:   -99.81220620973899   -1.37496e+00   2.42942e-02 DIIS
   @DF-ROHF iter   4:   -99.87157723580805   -5.93710e-02   2.26267e-03 DIIS
   @DF-ROHF iter   5:   -99.87265906545122   -1.08183e-03   1.33320e-03 DIIS
   @DF-ROHF iter   6:   -99.87284290953127   -1.83844e-04   2.41407e-04 DIIS
   @DF-ROHF iter   7:   -99.87285006521273   -7.15568e-06   7.12524e-05 DIIS
   @DF-ROHF iter   8:   -99.87285076389861   -6.98686e-07   1.07219e-05 DIIS
   @DF-ROHF iter   9:   -99.87285077491252   -1.10139e-08   6.22316e-07 DIIS
   @DF-ROHF iter  10:   -99.87285077494757   -3.50440e-11   3.29470e-08 DIIS
   @DF-ROHF iter  11:   -99.87285077494776   -1.98952e-13   2.32716e-09 DIIS
   @DF-ROHF iter  12:   -99.87285077494789   -1.27898e-13   5.58156e-10 DIIS
   @DF-ROHF iter  13:   -99.87285077494782    7.10543e-14   1.09663e-11 DIIS
   @DF-ROHF iter  14:   -99.87285077494776    5.68434e-14   1.16576e-12 DIIS
   @DF-ROHF iter  15:   -99.87285077494775    1.42109e-14   5.39726e-14 DIIS
   @DF-ROHF iter  16:   -99.87285077494781   -5.68434e-14   1.08504e-14 DIIS
   @DF-ROHF iter  17:   -99.87285077494775    5.68434e-14   6.30491e-15 DIIS
   @DF-ROHF iter  18:   -99.87285077494784   -8.52651e-14   1.99281e-15 DIIS
   @DF-ROHF iter  19:   -99.87285077494784    0.00000e+00   1.59195e-15 DIIS

  ==> Post-Iterations <==

    Orbital Energies (a.u.)
    -----------------------

    Doubly Occupied:                                                      

       1A1   -26.279410     2A1    -1.484572     1B2    -0.593968  
       1B1    -0.593968     3A1    -0.565054  

    Singly Occupied:                                                      

    

    Virtual:                                                              

       4A1     0.016631     5A1     0.576874     2B2     1.315550  
       2B1     1.315550     6A1     1.464142     3B2     1.599468  
       3B1     1.599468     7A1     1.633209     8A1     2.301112  
       4B1     4.038915     4B2     4.038915     9A1     4.041504  
       1A2     4.041504    10A1     4.220351  

    Final Occupation by Irrep:
             A1    A2    B1    B2 
    DOCC [     3,    0,    1,    1 ]
    SOCC [     0,    0,    0,    0 ]

  Energy converged.

  @DF-ROHF Final Energy:   -99.87285077494784

   => Energetics <=

    Nuclear Repulsion Energy =              3.1750632515400001
    One-Electron Energy =                -147.0618843220245822
    Two-Electron Energy =                  44.0139702955367511
    DFT Exchange-Correlation Energy =       0.0000000000000000
    Empirical Dispersion Energy =           0.0000000000000000
    PCM Polarization Energy =               0.0000000000000000
    EFP Energy =                            0.0000000000000000
    Total Energy =                        -99.8728507749478354

    Alert: EFP and PCM quantities not currently incorporated into SCF psivars.

Properties will be evaluated at   0.000000,   0.000000,   0.000000 Bohr

Properties computed using the SCF density matrix

  Nuclear Dipole Moment: (a.u.)
     X:     0.0000      Y:     0.0000      Z:     1.4066

  Electronic Dipole Moment: (a.u.)
     X:     0.0000      Y:     0.0000      Z:    -0.2427

  Dipole Moment: (a.u.)
     X:     0.0000      Y:     0.0000      Z:     1.1640     Total:     1.1640

  Dipole Moment: (Debye)
     X:     0.0000      Y:     0.0000      Z:     2.9585     Total:     2.9585


*** tstop() called on master at Fri Dec 16 08:33:00 2016
Module time:
	user time   =       0.22 seconds =       0.00 minutes
	system time =       0.00 seconds =       0.00 minutes
	total time  =          0 seconds =       0.00 minutes
Total time:
	user time   =       0.22 seconds =       0.00 minutes
	system time =       0.00 seconds =       0.00 minutes
	total time  =          0 seconds =       0.00 minutes

         ---------------------------------------------------------
                                   SCF
            by Justin Turney, Rob Parrish, and Andy Simmonett
                             ROHF Reference
                        1 Threads,    500 MiB Core
         ---------------------------------------------------------

  ==> Geometry <==

    Molecular point group: c2v
    Full point group: C_inf_v

    Geometry (in Angstrom), charge = 0, multiplicity = 1:

       Center              X                  Y                   Z               Mass       
    ------------   -----------------  -----------------  -----------------  -----------------
           F          0.000000000000     0.000000000000    -0.075563346012    18.998403224000
           H          0.000000000000     0.000000000000     1.424436653988     1.007825032070

  Running in c2v symmetry.

  Rotational constants: A = ************  B =      7.82847  C =      7.82847 [cm^-1]
  Rotational constants: A = ************  B = 234691.65925  C = 234691.65925 [MHz]
  Nuclear repulsion =    3.175063251540000

  Charge       = 0
  Multiplicity = 1
  Electrons    = 10
  Nalpha       = 5
  Nbeta        = 5

  ==> Algorithm <==

  SCF Algorithm Type is DF.
  DIIS enabled.
  MOM disabled.
  Fractional occupation disabled.
  Guess Type is GWH.
  Energy threshold   = 1.00e-15
  Density threshold  = 1.00e-12
  Integral threshold = 0.00e+00

  ==> Primary Basis <==

  Basis Set: file /home/kannon/src/psi4_cmake/Install_Release/share/psi4/basis/cc-pvdz.gbs
    Number of shells: 9
    Number of basis function: 19
    Number of Cartesian functions: 20
    Spherical Harmonics?: true
    Max angular momentum: 2

  ==> Pre-Iterations <==

   -------------------------------------------------------
    Irrep   Nso     Nmo     Nalpha   Nbeta   Ndocc  Nsocc
   -------------------------------------------------------
     A1        10      10       0       0       0       0
     A2         1       1       0       0       0       0
     B1         4       4       0       0       0       0
     B2         4       4       0       0       0       0
   -------------------------------------------------------
    Total      19      19       5       5       5       0
   -------------------------------------------------------

  ==> Integral Setup <==

  ==> DFJK: Density-Fitted J/K Matrices <==

    J tasked:                  Yes
    K tasked:                  Yes
    wK tasked:                  No
    OpenMP threads:              1
    Integrals threads:           1
    Memory (MB):               357
    Algorithm:                Core
    Integral Cache:           NONE
    Schwarz Cutoff:          1E-12
    Fitting Condition:       1E-12

   => Auxiliary Basis Set <=

  Basis Set: file /home/kannon/src/psi4_cmake/Install_Release/share/psi4/basis/cc-pvdz-jkfit.gbs
    Number of shells: 33
    Number of basis function: 93
    Number of Cartesian functions: 106
    Spherical Harmonics?: true
    Max angular momentum: 3

  Minimum eigenvalue in the overlap matrix is 1.3340269888E-01.
  Using Symmetric Orthogonalization.

  SCF Guess: Generalized Wolfsberg-Helmholtz.

  ==> Iterations <==

                           Total Energy        Delta E     RMS |[F,P]|

   @DF-ROHF iter   1:   -98.18654067384443   -9.81865e+01   1.45554e-01 
   @DF-ROHF iter   2:   -98.43724244716780   -2.50702e-01   1.12600e-01 DIIS
   @DF-ROHF iter   3:   -99.81220620973899   -1.37496e+00   2.42942e-02 DIIS
   @DF-ROHF iter   4:   -99.87157723580805   -5.93710e-02   2.26267e-03 DIIS
   @DF-ROHF iter   5:   -99.87265906545122   -1.08183e-03   1.33320e-03 DIIS
   @DF-ROHF iter   6:   -99.87284290953127   -1.83844e-04   2.41407e-04 DIIS
   @DF-ROHF iter   7:   -99.87285006521273   -7.15568e-06   7.12524e-05 DIIS
   @DF-ROHF iter   8:   -99.87285076389861   -6.98686e-07   1.07219e-05 DIIS
   @DF-ROHF iter   9:   -99.87285077491252   -1.10139e-08   6.22316e-07 DIIS
   @DF-ROHF iter  10:   -99.87285077494757   -3.50440e-11   3.29470e-08 DIIS
   @DF-ROHF iter  11:   -99.87285077494776   -1.98952e-13   2.32716e-09 DIIS
   @DF-ROHF iter  12:   -99.87285077494789   -1.27898e-13   5.58156e-10 DIIS
   @DF-ROHF iter  13:   -99.87285077494782    7.10543e-14   1.09663e-11 DIIS
   @DF-ROHF iter  14:   -99.87285077494776    5.68434e-14   1.16576e-12 DIIS
   @DF-ROHF iter  15:   -99.87285077494775    1.42109e-14   5.39726e-14 DIIS
   @DF-ROHF iter  16:   -99.87285077494781   -5.68434e-14   1.08504e-14 DIIS
   @DF-ROHF iter  17:   -99.87285077494775    5.68434e-14   6.30491e-15 DIIS
   @DF-ROHF iter  18:   -99.87285077494784   -8.52651e-14   1.99281e-15 DIIS
   @DF-ROHF iter  19:   -99.87285077494784    0.00000e+00   1.59195e-15 DIIS

  ==> Post-Iterations <==

    Orbital Energies (a.u.)
    -----------------------

    Doubly Occupied:                                                      

       1A1   -26.279410     2A1    -1.484572     1B2    -0.593968  
       1B1    -0.593968     3A1    -0.565054  

    Singly Occupied:                                                      

    

    Virtual:                                                              

       4A1     0.016631     5A1     0.576874     2B2     1.315550  
       2B1     1.315550     6A1     1.464142     3B2     1.599468  
       3B1     1.599468     7A1     1.633209     8A1     2.301112  
       4B1     4.038915     4B2     4.038915     9A1     4.041504  
       1A2     4.041504    10A1     4.220351  

    Final Occupation by Irrep:
             A1    A2    B1    B2 
    DOCC [     3,    0,    1,    1 ]
    SOCC [     0,    0,    0,    0 ]

  Energy converged.

  @DF-ROHF Final Energy:   -99.87285077494784

   => Energetics <=

    Nuclear Repulsion Energy =              3.1750632515400001
    One-Electron Energy =                -147.0618843220245822
    Two-Electron Energy =                  44.0139702955367511
    DFT Exchange-Correlation Energy =       0.0000000000000000
    Empirical Dispersion Energy =           0.0000000000000000
    PCM Polarization Energy =               0.0000000000000000
    EFP Energy =                            0.0000000000000000
    Total Energy =                        -99.8728507749478354

    Alert: EFP and PCM quantities not currently incorporated into SCF psivars.

Properties will be evaluated at   0.000000,   0.000000,   0.000000 Bohr

Properties computed using the SCF density matrix

  Nuclear Dipole Moment: (a.u.)
     X:     0.0000      Y:     0.0000      Z:     1.4066

  Electronic Dipole Moment: (a.u.)
     X:     0.0000      Y:     0.0000      Z:    -0.2427

  Dipole Moment: (a.u.)
     X:     0.0000      Y:     0.0000      Z:     1.1640     Total:     1.1640

  Dipole Moment: (Debye)
     X:     0.0000      Y:     0.0000      Z:     2.9585     Total:     2.9585

 MINTS: Wrapper to libmints.
   by Justin Turney

   Calculation information:
      Number of atoms:                   2
      Number of AO shells:               9
      Number of SO shells:               9
      Number of primitives:             27
      Number of atomic orbitals:        20
      Number of basis functions:        19

      Number of irreps:                  4
      Integral cutoff                 0.00e+00
      Number of functions per irrep: [  10    1    4    4 ]

 OEINTS: Overlap, kinetic, potential, dipole, and quadrupole integrals
         stored in file 35.

      Computing two-electron integrals...done
      Computed 4170 non-zero two-electron integrals.
        Stored in file 33.


Reading options from the FORTE block
Calling plugin forte.so.




  ==> MO Space Information <==

  Read options for space FROZEN_DOCC
  Read options for space RESTRICTED_DOCC
  Read options for space ACTIVE
 Removing orbital 0
  -------------------------------------------------
                       A1    A2    B1    B2   Sum
  -------------------------------------------------
    FROZEN_DOCC         1     0     0     0     1
    RESTRICTED_DOCC     1     0     1     1     3
    ACTIVE              2     0     0     0     2
    RESTRICTED_UOCC     6     1     3     3    13
    FROZEN_UOCC         0     0     0     0     0
    Total              10     1     4     4    19
  -------------------------------------------------

  ==> Integral Transformation <==

  Number of molecular orbitals:               19
  Number of correlated molecular orbitals:    18
  Number of frozen occupied orbitals:          1
  Number of frozen unoccupied orbitals:        0

    Molecular point group: c2v
    Full point group: C_inf_v

    Geometry (in Angstrom), charge = 0, multiplicity = 1:

       Center              X                  Y                   Z               Mass       
    ------------   -----------------  -----------------  -----------------  -----------------
           F          0.000000000000     0.000000000000    -0.075563346012    18.998403224000
           H          0.000000000000     0.000000000000     1.424436653988     1.007825032070

  -AO BASIS SET INFORMATION:
    Name                   = file /home/kannon/src/psi4_cmake/Install_Release/share/psi4/basis/cc-pvdz.gbs
    Total number of shells = 9
    Number of primitives   = 27
    Number of AO           = 20
    Number of SO           = 19
    Maximum AM             = 2
    Spherical Harmonics    = TRUE

  -Contraction Scheme:
    Atom   Type   All Primitives // Shells:
   ------ ------ --------------------------
       1     F     17s 4p 1d // 3s 2p 1d 
       2     H     4s 1p // 2s 1p 

  ==> AO Basis Functions <==

    [ file /home/kannon/src/psi4_cmake/Install_Release/share/psi4/basis/cc-pvdz.gbs ]
    spherical
    ****
    F   1
    S   8 1.00
                     14710.00000000           0.00072100
                      2207.00000000           0.00555300
                       502.80000000           0.02826700
                       142.60000000           0.10644400
                        46.47000000           0.28681400
                        16.70000000           0.44864100
                         6.35600000           0.26476100
                         1.31600000           0.01533300
    S   8 1.00
                     14710.00000000          -0.00016500
                      2207.00000000          -0.00130800
                       502.80000000          -0.00649500
                       142.60000000          -0.02669100
                        46.47000000          -0.07369000
                        16.70000000          -0.17077600
                         6.35600000          -0.11232700
                         1.31600000           0.56281400
    S   1 1.00
                         0.38970000           1.00000000
    P   3 1.00
                        22.67000000           0.04487800
                         4.97700000           0.23571800
                         1.34700000           0.50852100
    P   1 1.00
                         0.34710000           1.00000000
    D   1 1.00
                         1.64000000           1.00000000
    ****
    H   2
    S   3 1.00
                        13.01000000           0.01968500
                         1.96200000           0.13797700
                         0.44460000           0.47814800
    S   1 1.00
                         0.12200000           1.00000000
    P   1 1.00
                         0.72700000           1.00000000
    ****


  DISKDFIntegrals overall time
 Computing Density fitted integrals 

 Number of auxiliary basis functions:  70
 Need 0.000188 GB to store DF integrals

    Computing DF Integrals               ......Done. Timing        0.054626 s
  Frozen-core energy            -76.184694518666 a.u.

  FrozenOneBody Operator takes  0.05437300 s
  Resorting integrals after freezing core.
 Resorting integrals takes   0.00002000s
  DISKDFIntegrals take      0.10921200 s

                -----------------------------------------------
                  String-based Full Configuration Interaction
                          by Francesco A. Evangelista
                -----------------------------------------------

  Number of electrons: 10
  Charge: 0
  Multiplicity: 1
  Davidson subspace max dim: 8
  Davidson subspace min dim: 2
  M_s: 0

  ==> String Lists <==

  Number of alpha electrons     = 1
  Number of beta electrons      = 1
  Number of alpha strings       = 2
  Number of beta strings        = 2
  Timing for strings        =      0.000 s
  Timing for NN strings     =      0.000 s
  Timing for VO strings     =      0.000 s
  Timing for OO strings     =      0.000 s
  Timing for Knowles-Handy  =      0.000 s
  Timing for VVOO strings   =      0.000 s
  Timing for VOVO strings   =      0.000 s
  Timing for 1-hole strings =      0.000 s
  Timing for 2-hole strings =      0.000 s
  Timing for 3-hole strings =      0.000 s
  Total timing              =      0.000 s

  ==> FCI Solver <==

    Number of determinants                           4
    Symmetry                                         0
    Multiplicity                                     1
    Number of roots                                  1
    Target root                                      0
    Trial vectors per root                          10

  Allocating memory for the Hamiltonian algorithm. Size: 2 x 2 x 2.   Memory: 0.000000 GB

  ==> FCI Initial Guess <==

  ---------------------------------------------
    Root            Energy     <S^2>   Spin
  ---------------------------------------------
      0      -99.911721062414  0.000  singlet
      1      -99.768137501998  2.000  triplet
      2      -99.548203704583  0.000  singlet
      3      -99.076923935646  0.000  singlet
  ---------------------------------------------
  Timing for initial guess  =      0.001 s

  Projecting out root 1
  ==> Diagonalizing Hamiltonian <==

  ----------------------------------------
    Iter.      Avg. Energy       Delta_E
  ----------------------------------------
      1      -99.911721062414  -9.991e+01
      2      -99.911721062414  +0.000e+00
  ----------------------------------------
  The Davidson-Liu algorithm converged in 3 iterations.

  ==> Root No. 0 <==

    20      0.96676296
    02     -0.23539581

    Total Energy:       -99.911721062413704

  ==> Computing RDMs for Root No. 0 <==

    Timing for 1-RDM: 0.000 s

  ==> NATURAL ORBITALS <==

        1A1     1.885257      2A1     0.114743  



                          ----------------------------
                            Semi-Canonical Orbitals
                            Francesco A. Evangelista
                          ----------------------------

 Making a fock matrix 

---------Blocking Information-------

  181440 / 375000000 = 0
  Block_size = 70 num_block = 1
 Took 0.005076 s to build fock matrix

  ==> Integral transformation <==
    Molecular point group: c2v
    Full point group: C_inf_v

    Geometry (in Angstrom), charge = 0, multiplicity = 1:

       Center              X                  Y                   Z               Mass       
    ------------   -----------------  -----------------  -----------------  -----------------
           F          0.000000000000     0.000000000000    -0.075563346012    18.998403224000
           H          0.000000000000     0.000000000000     1.424436653988     1.007825032070

  -AO BASIS SET INFORMATION:
    Name                   = file /home/kannon/src/psi4_cmake/Install_Release/share/psi4/basis/cc-pvdz.gbs
    Total number of shells = 9
    Number of primitives   = 27
    Number of AO           = 20
    Number of SO           = 19
    Maximum AM             = 2
    Spherical Harmonics    = TRUE

  -Contraction Scheme:
    Atom   Type   All Primitives // Shells:
   ------ ------ --------------------------
       1     F     17s 4p 1d // 3s 2p 1d 
       2     H     4s 1p // 2s 1p 

  ==> AO Basis Functions <==

    [ file /home/kannon/src/psi4_cmake/Install_Release/share/psi4/basis/cc-pvdz.gbs ]
    spherical
    ****
    F   1
    S   8 1.00
                     14710.00000000           0.00072100
                      2207.00000000           0.00555300
                       502.80000000           0.02826700
                       142.60000000           0.10644400
                        46.47000000           0.28681400
                        16.70000000           0.44864100
                         6.35600000           0.26476100
                         1.31600000           0.01533300
    S   8 1.00
                     14710.00000000          -0.00016500
                      2207.00000000          -0.00130800
                       502.80000000          -0.00649500
                       142.60000000          -0.02669100
                        46.47000000          -0.07369000
                        16.70000000          -0.17077600
                         6.35600000          -0.11232700
                         1.31600000           0.56281400
    S   1 1.00
                         0.38970000           1.00000000
    P   3 1.00
                        22.67000000           0.04487800
                         4.97700000           0.23571800
                         1.34700000           0.50852100
    P   1 1.00
                         0.34710000           1.00000000
    D   1 1.00
                         1.64000000           1.00000000
    ****
    H   2
    S   3 1.00
                        13.01000000           0.01968500
                         1.96200000           0.13797700
                         0.44460000           0.47814800
    S   1 1.00
                         0.12200000           1.00000000
    P   1 1.00
                         0.72700000           1.00000000
    ****


 Integrals are about to be computed.
 Computing Density fitted integrals 

 Number of auxiliary basis functions:  70
 Need 0.000188 GB to store DF integrals

    Computing DF Integrals               ......Done. Timing        0.053866 s
 Integrals are about to be updated.
 Make diagonal integrals in DISKDF took 0.000000 s
  Frozen-core energy            -76.184694518666 a.u.

  FrozenOneBody Operator takes  0.05431300 s
  Resorting integrals after freezing core.
 Resorting integrals takes   0.00001700s
  Frozen Orbitals takes     0.054 s.
 SemiCanonicalize takes 0.115652 s.

                -----------------------------------------------
                  String-based Full Configuration Interaction
                          by Francesco A. Evangelista
                -----------------------------------------------

  Number of electrons: 10
  Charge: 0
  Multiplicity: 1
  Davidson subspace max dim: 8
  Davidson subspace min dim: 2
  M_s: 0

  ==> String Lists <==

  Number of alpha electrons     = 1
  Number of beta electrons      = 1
  Number of alpha strings       = 2
  Number of beta strings        = 2
  Timing for strings        =      0.000 s
  Timing for NN strings     =      0.000 s
  Timing for VO strings     =      0.000 s
  Timing for OO strings     =      0.000 s
  Timing for Knowles-Handy  =      0.000 s
  Timing for VVOO strings   =      0.000 s
  Timing for VOVO strings   =      0.000 s
  Timing for 1-hole strings =      0.000 s
  Timing for 2-hole strings =      0.000 s
  Timing for 3-hole strings =      0.000 s
  Total timing              =      0.000 s

  ==> FCI Solver <==

    Number of determinants                           4
    Symmetry                                         0
    Multiplicity                                     1
    Number of roots                                  1
    Target root                                      0
    Trial vectors per root                          10

  Allocating memory for the Hamiltonian algorithm. Size: 2 x 2 x 2.   Memory: 0.000000 GB

  ==> FCI Initial Guess <==

  ---------------------------------------------
    Root            Energy     <S^2>   Spin
  ---------------------------------------------
      0      -99.911721062414  0.000  singlet
      1      -99.768137501998  2.000  triplet
      2      -99.548203704583  0.000  singlet
      3      -99.076923935646  0.000  singlet
  ---------------------------------------------
  Timing for initial guess  =      0.000 s

  Projecting out root 1
  ==> Diagonalizing Hamiltonian <==

  ----------------------------------------
    Iter.      Avg. Energy       Delta_E
  ----------------------------------------
      1      -99.911721062414  -9.991e+01
      2      -99.911721062414  +1.421e-14
      3      -99.911721062414  +0.000e+00
  ----------------------------------------
  The Davidson-Liu algorithm converged in 4 iterations.

  ==> Root No. 0 <==

    20     -0.96474097
    02      0.23337382

    Total Energy:       -99.911721062413633

  ==> Computing RDMs for Root No. 0 <==

    Timing for 1-RDM: 0.000 s
    Timing for 2-RDM: 0.000 s
    Timing for 3-RDM: 0.000 s

  ==> NATURAL ORBITALS <==

        1A1     1.885257      2A1     0.114743  



           ---------------------------------------------------------
             DF/CD - Driven Similarity Renormalization Group MBPT2
                      Kevin Hannon and Chenyang (York) Li
                                   1 thread
           ---------------------------------------------------------

  Reference = ROHF
  Reference Energy = -99.911721062413633
 Making a fock matrix 

---------Blocking Information-------

  181440 / 375000000 = 0
  Block_size = 70 num_block = 1

  ==> Checking Orbitals <==

    Checking if orbitals are semi-canonicalized ...     OK.
    Orbitals are semi-canonicalized.

  ==> Calculation Information <==

    Flow parameter                           1.000e+00
    Cholesky Tolerance                       1.000e-06
    Taylor expansion threshold               1.000e-03
    int_type                                    DISKDF
    ccvv_algorithm                           FLY_AMBIT
    ccvv_source                                 NORMAL      Computing T2                          ...Done. Timing        0.012310 s
    Computing V and Renormalizing         ......Done. Timing        0.011960 s
    Computing T1                          ......Done. Timing        0.003617 s
    Renormalizing F                       ......Done. Timing        0.004805 s
    Computing <[F, T1]>                   ......Done. Timing        0.001640 s
    Computing <[F, T2]>                   ......Done. Timing        0.002940 s
    Computing <[V, T1]>                   ......Done. Timing        0.002796 s
    Computing <[V, T2]> (C_2)^4 (no ccvv) ...

  CAVV computation takes 0.00460900

  CCVA takes 0.00748500...Done. Timing        0.024462 s
 Eccvv: -0.0930333927
    Computing <[V, T2]> (C_2)^4 ccvv      ......Done. Timing        0.005320 s
    Computing <[V, T2]> 4HH               ......Done. Timing        0.003791 s
    Computing <V, T2]> 4PP                ......Done. Timing        0.003863 s
    Computing [V, T2] 4PH                 ......Done. Timing        0.015071 s
    Computing [V, T2] λ3                  ......Done. Timing        0.011554 s

  ==> DSRG-MRPT2 Energy Summary <==

    E0 (reference)                 =    -99.911721062413633
    <[F, T1]>                      =     -0.002095637580437
    <[F, T2]>                      =     -0.000835516379382
    <[V, T1]>                      =     -0.000845105086588
    <[V, T2]> (C_2)^4              =     -0.209991868861287
    <[V, T2]> C_4 (C_2)^2 HH       =      0.001946743715303
    <[V, T2]> C_4 (C_2)^2 PP       =      0.010757403610592
    <[V, T2]> C_4 (C_2)^2 PH       =      0.004632726013418
    <[V, T2]> C_6 C_2              =      0.000325077856875
    <[V, T2]>                      =     -0.192329917665098
    DSRG-MRPT2 correlation energy  =     -0.196106176711504
    DSRG-MRPT2 total energy        =   -100.107827239125143
    max(T1)                        =      0.012070282100679
    ||T1||                         =      0.036801134737054

  ==> Total Timings (s) for Computing Commutators <==

             [H1, T1]    [H1, T2]    [H2, T1]    [H2, T2]
    -----------------------------------------------------
    -> C0       0.002       0.003       0.003       0.053
    -> C1       0.000       0.000       0.000       0.000
    -> C2                   0.000       0.000       0.000
    -----------------------------------------------------

 CD/DF DSRG-MRPT2 took  0.24928 s.

  Your calculation took 0.36159200 seconds
	DSRG-MRPT2 Energy.................................................PASSED

*** Psi4 exiting successfully. Buy a developer a beer!
