
    -----------------------------------------------------------------------
          Psi4: An Open-Source Ab Initio Electronic Structure Package
                               Psi4 1.2a1.dev704 

                         Git: Rev {master} a7fc050 


    R. M. Parrish, L. A. Burns, D. G. A. Smith, A. C. Simmonett,
    A. E. DePrince III, E. G. Hohenstein, U. Bozkaya, A. Yu. Sokolov,
    R. Di Remigio, R. M. Richard, J. F. Gonthier, A. M. James,
    H. R. McAlexander, A. Kumar, M. Saitow, X. Wang, B. P. Pritchard,
    P. Verma, H. F. Schaefer III, K. Patkowski, R. A. King, E. F. Valeev,
    F. A. Evangelista, J. M. Turney, T. D. Crawford, and C. D. Sherrill,
    J. Chem. Theory Comput. 13(7) pp 3185--3197 (2017).
    (doi: 10.1021/acs.jctc.7b00174)

    -----------------------------------------------------------------------


    Psi4 started on: Friday, 29 December 2017 06:35PM

    Process ID:  64627
    PSIDATADIR: /Users/york/src/psi4new/psi4/share/psi4
    Memory:     500.0 MiB
    Threads:    1
    
  ==> Input File <==

--------------------------------------------------------------------------
#! Generated using commit GITCOMMIT

import forte

r_c2h4_pt2  =  -77.9953232810
r_super_pt2 = -192.1845325980

molecule C2H4{
0 1
C
H 1 rCH
H 1 rCH 2 aHCH
C 1 rCC 2 aHCC 3 180.0
H 4 rCH 1 aHCC 2   0.0
H 4 rCH 1 aHCC 3   0.0

symmetry c1
}

molecule H2CO{
0 1
O
C 1 rCO
H 2 rCH1 1 aHCO
H 2 rCH1 1 aHCO 3 180.0

symmetry c1
}

molecule supermol{
0 1
C
H 1 rCH
H 1 rCH 2 aHCH
C 1 rCC 2 aHCC 3 180.0
H 4 rCH 1 aHCC 2   0.0
H 4 rCH 1 aHCC 3   0.0

O 6 rinf 4 180.0 3 0.0
C 7 rCO 6 55.0 2 35.0
H 8 rCH1 7 aHCO 5 75.0
H 8 rCH1 7 aHCO 9 180.0

symmetry c1
}

from math import sqrt, pi, atan

# geometry parameters for C2H4
zC = 0.668188
zH = 1.238289
yH = 0.923274
rCH = sqrt(yH**2 + (zH - zC)**2)
rCC = 2.0 * zC
aHCC = 90.0 + atan((zH - zC) / yH) * 180 / pi
aHCH = 360.0 - 2.0 * aHCC

C2H4.rCH = rCH
C2H4.rCC = rCC
C2H4.aHCC = aHCC
C2H4.aHCH = aHCH

supermol.rCH = rCH
supermol.rCC = rCC
supermol.aHCC = aHCC
supermol.aHCH = aHCH

# geometry parameters for H2CO
y = 0.934473
z = 0.588078
rCO = 1.221104
rCH1 = sqrt(z**2 + y**2)
aHCO = 90.0 + atan(z / y) * 180.0 / pi

H2CO.rCO = rCO
H2CO.rCH1 = rCH1
H2CO.aHCO = aHCO

supermol.rCO = rCO
supermol.rCH1 = rCH1
supermol.aHCO = aHCO

# separation between C2H4 and H2CO
supermol.rinf = 5000.0

# general setting for scf
set global{
  reference        rhf
  scf_type         df
  basis            cc-pvdz
  df_basis_scf     cc-pvdz-jkfit
  df_basis_mp2     cc-pvdz-jkfit
  e_convergence    10
  d_convergence    13
  maxiter          100
}

# general setting of forte
set forte{
  job_type           active-dsrgpt2
  int_type           df
  dsrg_s             0.5
  dl_maxiter         500
  e_convergence      13
  cas_type           cas
  fcimo_actv_type    cisd
  internal_amp       singles_doubles
}

# H2CO ground state
activate(H2CO)
set forte {
  frozen_docc        [2]
  restricted_docc    [4]
  active             [3]
  nrootpi            [1]
}
Eh2co_0 = energy('forte')

set forte {
  frozen_docc        [2]
  restricted_docc    [3]
  active             [9]
  nrootpi            [1]
}
Eh2co_1 = energy('forte')
compare_values(Eh2co_0, Eh2co_1, 8, "active independence for H2CO S0")

# C2H4 pi->pi*
clean()
activate(C2H4)
set forte {
  frozen_docc        [2]
  restricted_docc    [4]
  active             [3]
  nrootpi            [2]
}
Ec2h4 = energy('forte')

# supermolecule for C2H4 pi to pi*
clean()
activate(supermol)
set forte {
  frozen_docc        [4]
  restricted_docc    [8]
  active             [6]
  nrootpi            [5]
}
Esuper = energy('forte')

Eerror = Esuper - Eh2co_1 - Ec2h4
compare_values(Eerror, 0.0, 8, "size-intensive error for C2H4 pi->pi*")

# compare absolute energies of C2H4 pi->pi* excited state
compare_values(Ec2h4, r_c2h4_pt2, 8, "abs. energy of excited C2H4")
compare_values(Esuper, r_super_pt2, 8, "abs. energy of excited C2H4...H2CO")
--------------------------------------------------------------------------
Molecule: geometry: Molecule is not complete, please use 'update_geometry'
                    once all variables are set.
Molecule: geometry: Molecule is not complete, please use 'update_geometry'
                    once all variables are set.
Molecule: geometry: Molecule is not complete, please use 'update_geometry'
                    once all variables are set.
Molecule: Setting geometry variable rCH to 1.085104
Molecule: Setting geometry variable rCC to 1.336376
Molecule: Setting geometry variable aHCC to 121.694400
Molecule: Setting geometry variable aHCH to 116.611199
Molecule: Setting geometry variable rCH to 1.085104
Molecule: Setting geometry variable rCC to 1.336376
Molecule: Setting geometry variable aHCC to 121.694400
Molecule: Setting geometry variable aHCH to 116.611199
Molecule: Setting geometry variable rCO to 1.221104
Molecule: Setting geometry variable rCH1 to 1.104118
Molecule: Setting geometry variable aHCO to 122.182828
Molecule: Setting geometry variable rCO to 1.221104
Molecule: Setting geometry variable rCH1 to 1.104118
Molecule: Setting geometry variable aHCO to 122.182828
Molecule: Setting geometry variable rinf to 5000.000000

*** tstart() called on yorks-mac.wireless.emory.edu
*** at Fri Dec 29 18:35:37 2017

   => Loading Basis Set <=

    Name: CC-PVDZ
    Role: ORBITAL
    Keyword: BASIS
    atoms 1   entry O          line   198 file /Users/york/src/psi4new/psi4/share/psi4/basis/cc-pvdz.gbs 
    atoms 2   entry C          line   138 file /Users/york/src/psi4new/psi4/share/psi4/basis/cc-pvdz.gbs 
    atoms 3-4 entry H          line    22 file /Users/york/src/psi4new/psi4/share/psi4/basis/cc-pvdz.gbs 


         ---------------------------------------------------------
                                   SCF
            by Justin Turney, Rob Parrish, Andy Simmonett
                             and Daniel Smith
                              RHF Reference
                        1 Threads,    500 MiB Core
         ---------------------------------------------------------

  ==> Geometry <==

    Molecular point group: c1
    Full point group: C2v

    Geometry (in Angstrom), charge = 0, multiplicity = 1:

       Center              X                  Y                   Z               Mass       
    ------------   -----------------  -----------------  -----------------  -----------------
           O          0.000000000000     0.000000000000    -0.609782788402    15.994914619560
           C          0.000000000000     0.000000000000     0.611321211598    12.000000000000
           H          0.000000000000    -0.934473000000     1.199399211598     1.007825032070
           H          0.000000000000     0.934473000000     1.199399211598     1.007825032070

  Running in c1 symmetry.

  Rotational constants: A =      9.57740  B =      1.26448  C =      1.11701 [cm^-1]
  Rotational constants: A = 287123.37080  B =  37908.17200  C =  33486.97185 [MHz]
  Nuclear repulsion =   30.993739661169702

  Charge       = 0
  Multiplicity = 1
  Electrons    = 16
  Nalpha       = 8
  Nbeta        = 8

  ==> Algorithm <==

  SCF Algorithm Type is DF.
  DIIS enabled.
  MOM disabled.
  Fractional occupation disabled.
  Guess Type is SAD.
  Energy threshold   = 1.00e-10
  Density threshold  = 1.00e-13
  Integral threshold = 0.00e+00

  ==> Primary Basis <==

  Basis Set: CC-PVDZ
    Blend: CC-PVDZ
    Number of shells: 18
    Number of basis function: 38
    Number of Cartesian functions: 40
    Spherical Harmonics?: true
    Max angular momentum: 2

   => Loading Basis Set <=

    Name: CC-PVDZ-JKFIT
    Role: JKFIT
    Keyword: DF_BASIS_SCF
    atoms 1   entry O          line   221 file /Users/york/src/psi4new/psi4/share/psi4/basis/cc-pvdz-jkfit.gbs 
    atoms 2   entry C          line   121 file /Users/york/src/psi4new/psi4/share/psi4/basis/cc-pvdz-jkfit.gbs 
    atoms 3-4 entry H          line    51 file /Users/york/src/psi4new/psi4/share/psi4/basis/cc-pvdz-jkfit.gbs 

  ==> Pre-Iterations <==

   -------------------------------------------------------
    Irrep   Nso     Nmo     Nalpha   Nbeta   Ndocc  Nsocc
   -------------------------------------------------------
     A         38      38       0       0       0       0
   -------------------------------------------------------
    Total      38      38       8       8       8       0
   -------------------------------------------------------

  ==> Integral Setup <==

  ==> DFJK: Density-Fitted J/K Matrices <==

    J tasked:                  Yes
    K tasked:                  Yes
    wK tasked:                  No
    OpenMP threads:              1
    Integrals threads:           1
    Memory (MB):               375
    Algorithm:                Core
    Integral Cache:           NONE
    Schwarz Cutoff:          1E-12
    Fitting Condition:       1E-12

   => Auxiliary Basis Set <=

  Basis Set: CC-PVDZ-JKFIT
    Blend: CC-PVDZ-JKFIT
    Number of shells: 66
    Number of basis function: 186
    Number of Cartesian functions: 212
    Spherical Harmonics?: true
    Max angular momentum: 3

  Minimum eigenvalue in the overlap matrix is 1.9373793660E-02.
  Using Symmetric Orthogonalization.

  SCF Guess: Superposition of Atomic Densities via on-the-fly atomic UHF.

  ==> Iterations <==

                           Total Energy        Delta E     RMS |[F,P]|

   @DF-RHF iter   0:  -113.83694201230406   -1.13837e+02   5.59901e-02 
   @DF-RHF iter   1:  -113.72323842831760    1.13704e-01   1.40433e-02 
   @DF-RHF iter   2:  -113.78793046510849   -6.46920e-02   1.24272e-02 DIIS
   @DF-RHF iter   3:  -113.86987150322517   -8.19410e-02   1.33178e-03 DIIS
   @DF-RHF iter   4:  -113.87356959625264   -3.69809e-03   5.00947e-04 DIIS
   @DF-RHF iter   5:  -113.87419929137056   -6.29695e-04   2.15929e-04 DIIS
   @DF-RHF iter   6:  -113.87429280638455   -9.35150e-05   6.20443e-05 DIIS
   @DF-RHF iter   7:  -113.87429943542870   -6.62904e-06   1.36848e-05 DIIS
   @DF-RHF iter   8:  -113.87430011254155   -6.77113e-07   7.58635e-06 DIIS
   @DF-RHF iter   9:  -113.87430041244782   -2.99906e-07   3.30533e-06 DIIS
   @DF-RHF iter  10:  -113.87430048503168   -7.25839e-08   7.27068e-07 DIIS
   @DF-RHF iter  11:  -113.87430048709950   -2.06782e-09   1.02957e-07 DIIS
   @DF-RHF iter  12:  -113.87430048711856   -1.90568e-11   1.58650e-08 DIIS
   @DF-RHF iter  13:  -113.87430048711910   -5.40012e-13   5.90080e-09 DIIS
   @DF-RHF iter  14:  -113.87430048711921   -1.13687e-13   2.26594e-09 DIIS
   @DF-RHF iter  15:  -113.87430048711931   -9.94760e-14   4.72685e-10 DIIS
   @DF-RHF iter  16:  -113.87430048711923    8.52651e-14   1.31390e-10 DIIS
   @DF-RHF iter  17:  -113.87430048711926   -2.84217e-14   2.48496e-11 DIIS
   @DF-RHF iter  18:  -113.87430048711930   -4.26326e-14   5.80900e-12 DIIS
   @DF-RHF iter  19:  -113.87430048711929    1.42109e-14   1.32130e-12 DIIS
   @DF-RHF iter  20:  -113.87430048711927    1.42109e-14   3.68880e-13 DIIS
   @DF-RHF iter  21:  -113.87430048711919    8.52651e-14   1.48854e-13 DIIS
   @DF-RHF iter  22:  -113.87430048711911    7.10543e-14   7.57668e-14 DIIS

  ==> Post-Iterations <==

    Orbital Energies (a.u.)
    -----------------------

    Doubly Occupied:                                                      

       1A    -20.577196     2A    -11.348410     3A     -1.393645  
       4A     -0.868618     5A     -0.684337     6A     -0.642425  
       7A     -0.522697     8A     -0.437747  

    Virtual:                                                              

       9A      0.130794    10A      0.188091    11A      0.256081  
      12A      0.358704    13A      0.668400    14A      0.669958  
      15A      0.733065    16A      0.816705    17A      0.882089  
      18A      0.967853    19A      1.114391    20A      1.156511  
      21A      1.293615    22A      1.327876    23A      1.406198  
      24A      1.676300    25A      1.692141    26A      1.828386  
      27A      1.944880    28A      1.948459    29A      1.979051  
      30A      2.004336    31A      2.570099    32A      2.668990  
      33A      2.737023    34A      3.040853    35A      3.159384  
      36A      3.411119    37A      3.704485    38A      3.813618  

    Final Occupation by Irrep:
              A 
    DOCC [     8 ]

  Energy converged.

  @DF-RHF Final Energy:  -113.87430048711911

   => Energetics <=

    Nuclear Repulsion Energy =             30.9937396611697018
    One-Electron Energy =                -216.7859291738895706
    Two-Electron Energy =                  71.9178890256007435
    PCM Polarization Energy =               0.0000000000000000
    Total Energy =                       -113.8743004871191147

    Alert: EFP and PCM quantities not currently incorporated into SCF psivars.

Properties will be evaluated at   0.000000,   0.000000,   0.000000 Bohr

Properties computed using the SCF density matrix

  Nuclear Dipole Moment: (a.u.)
     X:     0.0000      Y:     0.0000      Z:     2.2459

  Electronic Dipole Moment: (a.u.)
     X:    -0.0000      Y:     0.0000      Z:    -1.1548

  Dipole Moment: (a.u.)
     X:    -0.0000      Y:     0.0000      Z:     1.0910     Total:     1.0910

  Dipole Moment: (Debye)
     X:    -0.0000      Y:     0.0000      Z:     2.7731     Total:     2.7731


*** tstop() called on yorks-mac.wireless.emory.edu at Fri Dec 29 18:35:38 2017
Module time:
	user time   =       0.84 seconds =       0.01 minutes
	system time =       0.05 seconds =       0.00 minutes
	total time  =          1 seconds =       0.02 minutes
Total time:
	user time   =       0.84 seconds =       0.01 minutes
	system time =       0.05 seconds =       0.00 minutes
	total time  =          1 seconds =       0.02 minutes
   => Loading Basis Set <=

    Name: CC-PVDZ-JKFIT
    Role: RIFIT
    Keyword: DF_BASIS_MP2
    atoms 1   entry O          line   221 file /Users/york/src/psi4new/psi4/share/psi4/basis/cc-pvdz-jkfit.gbs 
    atoms 2   entry C          line   121 file /Users/york/src/psi4new/psi4/share/psi4/basis/cc-pvdz-jkfit.gbs 
    atoms 3-4 entry H          line    51 file /Users/york/src/psi4new/psi4/share/psi4/basis/cc-pvdz-jkfit.gbs 

   => Loading Basis Set <=

    Name: STO-3G
    Role: ORBITAL
    Keyword: MINAO_BASIS
    atoms 1   entry O          line    81 file /Users/york/src/psi4new/psi4/share/psi4/basis/sto-3g.gbs 
    atoms 2   entry C          line    61 file /Users/york/src/psi4new/psi4/share/psi4/basis/sto-3g.gbs 
    atoms 3-4 entry H          line    19 file /Users/york/src/psi4new/psi4/share/psi4/basis/sto-3g.gbs 


Reading options from the FORTE block
Calling plugin forte.so.



  Forte
  ----------------------------------------------------------------------------
  A suite of quantum chemistry methods for strongly correlated electrons

    git branch: master - git commit: f15141bf

  Developed by:
    Francesco A. Evangelista, Chenyang Li, Kevin P. Hannon,
    Jeffrey B. Schriber, Tianyuan Zhang, Chenxi Cai
  ----------------------------------------------------------------------------

  Size of Determinant class: 32

  ==> MO Space Information <==

  Read options for space FROZEN_DOCC
  Read options for space RESTRICTED_DOCC
  Read options for space ACTIVE
 Removing orbital 0
 Removing orbital 1
  -------------------------------
                        A   Sum
  -------------------------------
    FROZEN_DOCC         2     2
    RESTRICTED_DOCC     4     4
    ACTIVE              3     3
    RESTRICTED_UOCC    29    29
    FROZEN_UOCC         0     0
    Total              38    38
  -------------------------------

  ==> Integral Transformation <==

  Number of molecular orbitals:               38
  Number of correlated molecular orbitals:    36
  Number of frozen occupied orbitals:          2
  Number of frozen unoccupied orbitals:        0

    Molecular point group: c1
    Full point group: C2v

    Geometry (in Angstrom), charge = 0, multiplicity = 1:

       Center              X                  Y                   Z               Mass       
    ------------   -----------------  -----------------  -----------------  -----------------
           O          0.000000000000     0.000000000000    -0.609782788402    15.994914619560
           C          0.000000000000     0.000000000000     0.611321211598    12.000000000000
           H          0.000000000000    -0.934473000000     1.199399211598     1.007825032070
           H          0.000000000000     0.934473000000     1.199399211598     1.007825032070

  -AO BASIS SET INFORMATION:
    Name                   = CC-PVDZ
    Blend                  = CC-PVDZ
    Total number of shells = 18
    Number of primitives   = 54
    Number of AO           = 40
    Number of SO           = 38
    Maximum AM             = 2
    Spherical Harmonics    = TRUE

  -Contraction Scheme:
    Atom   Type   All Primitives // Shells:
   ------ ------ --------------------------
       1     O     17s 4p 1d // 3s 2p 1d 
       2     C     17s 4p 1d // 3s 2p 1d 
       3     H     4s 1p // 2s 1p 
       4     H     4s 1p // 2s 1p 

  ==> AO Basis Functions <==

    [ CC-PVDZ ]
    spherical
    ****
    O   1
    S   8 1.00
                     11720.00000000           0.00071000
                      1759.00000000           0.00547000
                       400.80000000           0.02783700
                       113.70000000           0.10480000
                        37.03000000           0.28306200
                        13.27000000           0.44871900
                         5.02500000           0.27095200
                         1.01300000           0.01545800
    S   8 1.00
                     11720.00000000          -0.00016000
                      1759.00000000          -0.00126300
                       400.80000000          -0.00626700
                       113.70000000          -0.02571600
                        37.03000000          -0.07092400
                        13.27000000          -0.16541100
                         5.02500000          -0.11695500
                         1.01300000           0.55736800
    S   1 1.00
                         0.30230000           1.00000000
    P   3 1.00
                        17.70000000           0.04301800
                         3.85400000           0.22891300
                         1.04600000           0.50872800
    P   1 1.00
                         0.27530000           1.00000000
    D   1 1.00
                         1.18500000           1.00000000
    ****
    C   2
    S   8 1.00
                      6665.00000000           0.00069200
                      1000.00000000           0.00532900
                       228.00000000           0.02707700
                        64.71000000           0.10171800
                        21.06000000           0.27474000
                         7.49500000           0.44856400
                         2.79700000           0.28507400
                         0.52150000           0.01520400
    S   8 1.00
                      6665.00000000          -0.00014600
                      1000.00000000          -0.00115400
                       228.00000000          -0.00572500
                        64.71000000          -0.02331200
                        21.06000000          -0.06395500
                         7.49500000          -0.14998100
                         2.79700000          -0.12726200
                         0.52150000           0.54452900
    S   1 1.00
                         0.15960000           1.00000000
    P   3 1.00
                         9.43900000           0.03810900
                         2.00200000           0.20948000
                         0.54560000           0.50855700
    P   1 1.00
                         0.15170000           1.00000000
    D   1 1.00
                         0.55000000           1.00000000
    ****
    H   3
    S   3 1.00
                        13.01000000           0.01968500
                         1.96200000           0.13797700
                         0.44460000           0.47814800
    S   1 1.00
                         0.12200000           1.00000000
    P   1 1.00
                         0.72700000           1.00000000
    ****
    H   4
    S   3 1.00
                        13.01000000           0.01968500
                         1.96200000           0.13797700
                         0.44460000           0.47814800
    S   1 1.00
                         0.12200000           1.00000000
    P   1 1.00
                         0.72700000           1.00000000
    ****


  DFIntegrals overall time
 Computing Density fitted integrals 

 Number of auxiliary basis functions:  186
 Need 0.002001 GB to store DF integrals

  Computing DF Integrals               ......Done. Timing        0.040480 s
  Frozen-core energy           -104.821438895737 a.u.

  FrozenOneBody Operator takes  0.19372200 s
  Resorting integrals after freezing core.
 Done with resorting
 Resorting integrals takes   0.00775400s
  DFIntegrals take      0.40608700 s

              ---------------------------------------------------
                               ACTIVE-DSRG-MRPT2
                Wrapper for Multiple SS-DSRG-MRPT2 Computations
                                  Chenyang Li
              ---------------------------------------------------

  Note: Orbitals are NOT optimized throughout the process.
  Reference selection criteria (CAS/CIS/CISD) will NOT change.
  Each state uses its OWN semicanonical orbitals.
  Ground state is assumed to be a singlet.
  Otherwise, please run separate DSRG-MRPT2 jobs.

  ==> Input Summary <==

    total roots requested (include S0)                     1
    multiplicity                                           1
    reference space type                                CISD
    separate HF in CISD                                 TURE
    DSRG-MRPT2 internal amplitudes           SINGLES_DOUBLES
    DSRG-MRPT2 internal type                            AUTO

  ==> Roots Summary <==

                 A
    ----------------
      NROOTS     1
    ----------------

              ---------------------------------------------------
                Complete Active Space Configuration Interaction
                                  Chenyang Li
              ---------------------------------------------------


  ==> Input Summary <==

    No. a electrons in active      =     2
    No. b electrons in active      =     2
    multiplicity                   =     1
    spin ms (2 * Sz)               =     0

  ==> Orbital Spaces <==

    TOTAL MO                      [   38 ]
    FROZEN CORE                   [    2 ]
    FROZEN VIRTUAL                [    0 ]
    CORRELATED MO                 [   36 ]
    CORE                          [    4 ]
    ACTIVE                        [    3 ]
    VIRTUAL                       [   29 ]

  =============================
  Current Job: Singlet A states
  =============================

  Forming determinants                ...  Done. Timing        0.000027 s

  ==> Determinants Summary <==

    number of alpha active electrons         =     2
    number of beta active electrons          =     2
    root symmetry (zero based)               =     0
    number of determinants (include RHF)     =     9

  Isolate RHF determinant to the rest determinants.
  Recompute RHF energy ... Done.

  * * * * * * * * * * * * * * * * *
  *  CI Vectors & Configurations  *
  * * * * * * * * * * * * * * * * *

  ==> Root No. 0 <==

    220          1.0000000000

    Total Energy:   -113.874300487121317



  ==> Permanent Dipole Moments (A) <==

  Only print nonzero (> 1.0e-5) elements.
  Permanent dipole moments (a.u.) 0 -> 0:  X: -0.0000  Y:  0.0000  Z:  1.0910  Total:  1.0910


  ==> Prepare Fock Matrices in the Original Basis <==

  Computing 1-cumulants ... Done. Timing        0.000115 s

  Forming generalized Fock matrix     ...  Done. Timing        0.077861 s
  Computing VCISD reference oscillator strength 0A -> nA ... Done.

  ==> Working on Root 0 <==

  Computing 1-, 2- and 3-cumulants ... Done. Timing        0.012697 s


  ==> Checking Fock Matrix Diagonal Blocks <==

    Off-Diag. Elements       Max           2-Norm
    ------------------------------------------------
    Fa actv_docc         0.0000000000   0.0000000000
    Fb actv_docc         0.0000000000   0.0000000000
    ------------------------------------------------
    Fa actv_virt         0.0000000000   0.0000000000
    Fb actv_virt         0.0000000000   0.0000000000
    ------------------------------------------------
    Fa core              0.0000000000   0.0000000000
    Fb core              0.0000000000   0.0000000000
    ------------------------------------------------
    Fa virt              0.0000000000   0.0000000000
    Fb virt              0.0000000000   0.0000000000
    ------------------------------------------------

  ==> Integral Transformation to Semicanonical Basis <==
    Molecular point group: c1
    Full point group: C2v

    Geometry (in Angstrom), charge = 0, multiplicity = 1:

       Center              X                  Y                   Z               Mass       
    ------------   -----------------  -----------------  -----------------  -----------------
           O          0.000000000000     0.000000000000    -0.609782788402    15.994914619560
           C          0.000000000000     0.000000000000     0.611321211598    12.000000000000
           H          0.000000000000    -0.934473000000     1.199399211598     1.007825032070
           H          0.000000000000     0.934473000000     1.199399211598     1.007825032070

  -AO BASIS SET INFORMATION:
    Name                   = CC-PVDZ
    Blend                  = CC-PVDZ
    Total number of shells = 18
    Number of primitives   = 54
    Number of AO           = 40
    Number of SO           = 38
    Maximum AM             = 2
    Spherical Harmonics    = TRUE

  -Contraction Scheme:
    Atom   Type   All Primitives // Shells:
   ------ ------ --------------------------
       1     O     17s 4p 1d // 3s 2p 1d 
       2     C     17s 4p 1d // 3s 2p 1d 
       3     H     4s 1p // 2s 1p 
       4     H     4s 1p // 2s 1p 

  ==> AO Basis Functions <==

    [ CC-PVDZ ]
    spherical
    ****
    O   1
    S   8 1.00
                     11720.00000000           0.00071000
                      1759.00000000           0.00547000
                       400.80000000           0.02783700
                       113.70000000           0.10480000
                        37.03000000           0.28306200
                        13.27000000           0.44871900
                         5.02500000           0.27095200
                         1.01300000           0.01545800
    S   8 1.00
                     11720.00000000          -0.00016000
                      1759.00000000          -0.00126300
                       400.80000000          -0.00626700
                       113.70000000          -0.02571600
                        37.03000000          -0.07092400
                        13.27000000          -0.16541100
                         5.02500000          -0.11695500
                         1.01300000           0.55736800
    S   1 1.00
                         0.30230000           1.00000000
    P   3 1.00
                        17.70000000           0.04301800
                         3.85400000           0.22891300
                         1.04600000           0.50872800
    P   1 1.00
                         0.27530000           1.00000000
    D   1 1.00
                         1.18500000           1.00000000
    ****
    C   2
    S   8 1.00
                      6665.00000000           0.00069200
                      1000.00000000           0.00532900
                       228.00000000           0.02707700
                        64.71000000           0.10171800
                        21.06000000           0.27474000
                         7.49500000           0.44856400
                         2.79700000           0.28507400
                         0.52150000           0.01520400
    S   8 1.00
                      6665.00000000          -0.00014600
                      1000.00000000          -0.00115400
                       228.00000000          -0.00572500
                        64.71000000          -0.02331200
                        21.06000000          -0.06395500
                         7.49500000          -0.14998100
                         2.79700000          -0.12726200
                         0.52150000           0.54452900
    S   1 1.00
                         0.15960000           1.00000000
    P   3 1.00
                         9.43900000           0.03810900
                         2.00200000           0.20948000
                         0.54560000           0.50855700
    P   1 1.00
                         0.15170000           1.00000000
    D   1 1.00
                         0.55000000           1.00000000
    ****
    H   3
    S   3 1.00
                        13.01000000           0.01968500
                         1.96200000           0.13797700
                         0.44460000           0.47814800
    S   1 1.00
                         0.12200000           1.00000000
    P   1 1.00
                         0.72700000           1.00000000
    ****
    H   4
    S   3 1.00
                        13.01000000           0.01968500
                         1.96200000           0.13797700
                         0.44460000           0.47814800
    S   1 1.00
                         0.12200000           1.00000000
    P   1 1.00
                         0.72700000           1.00000000
    ****


 Integrals are about to be computed.
 Computing Density fitted integrals 

 Number of auxiliary basis functions:  186
 Need 0.002001 GB to store DF integrals

  Computing DF Integrals               ......Done. Timing        0.028454 s
 Integrals are about to be updated.
  Frozen-core energy           -104.821438895737 a.u.

  FrozenOneBody Operator takes  0.19178100 s
  Resorting integrals after freezing core.
 Done with resorting
 Resorting integrals takes   0.00978300s
  Frozen Orbitals takes     0.203 s.

  ==> Reference Transformation to Semicanonical Basis <==

    Transformed 1 cumulants.
    Transformed 2 cumulants and RDMs.
    Transformed 3 cumulants.
  SemiCanonicalize takes 2.464371 s.

  ==> Multireference Driven Similarity Renormalization Group <==

    Reading DSRG options ............................ Done
    Setting ambit MO space .......................... Done
    Preparing tensors for density cumulants ......... Done
    Building Fock matrix ............................ Done
    Checking reference energy ....................... Done

                  --------------------------------------------
                      Density Fitted / Cholesky Decomposed
                    MR-DSRG Second-Order Perturbation Theory
                      Kevin Hannon and Chenyang (York) Li
                                    1 thread
                  --------------------------------------------

    References:
      u-DSRG-MRPT2:      J. Chem. Theory Comput. 2015, 11, 2097.
      DF/CD-DSRG-MRPT2:  J. Chem. Phys. 2016, 144, 204111.
      (pr-)DSRG-MRPT2:   J. Chem. Phys. 2017, 146, 124132.


  ==> Calculation Information <==

    Flow parameter                                 5.000e-01
    Taylor expansion threshold                     1.000e-03
    Cholesky tolerance                             1.000e-06
    Psi4 ref_type                                        RHF
    Integral type                                         DF
    Source operator                                 STANDARD
    CCVV algorithm                                 FLY_AMBIT
    CCVV source                                       NORMAL
    Reference relaxation                                NONE
    State type                                STATE-SPECIFIC
    Internal_amp                             SINGLES_DOUBLES
    Internal_amp_select                                 AUTO

  ==> Checking Semicanonical Orbitals <==

    Abs. max of Fock core, active, virtual blocks (Fij, i != j)
                  core          active         virtual
    --------------------------------------------------
    Fα    0.0000000000    0.0000000000    0.0000000000
    Fβ    0.0000000000    0.0000000000    0.0000000000
    --------------------------------------------------

    1-Norm of Fock core, active, virtual blocks (Fij, i != j)
                  core          active         virtual
    --------------------------------------------------
    Fα    0.0000000000    0.0000000000    0.0000000001
    Fβ    0.0000000000    0.0000000000    0.0000000001
    --------------------------------------------------

    Orbitals are semi-canonicalized.
    It is OK for Fock (active) not being diagonal because CISD active space is incomplete.
    Please inspect if the Fock diag. blocks (C, AH, AP, V) are diagonal or not in the prior CI step.


  ==> Computing DSRG-MRPT2 Energy <==

  Reference Energy = -113.874300487121317
    Computing T2                             ...... Done. Timing        0.029929 s
    Renormalizing V                          ...... Done. Timing        0.025841 s
    Computing T1                             ...... Done. Timing        0.005291 s
    Renormalizing F                          ...... Done. Timing        0.006199 s
    Computing <[F, T1]>                      ...... Done. Timing        0.004026 s
    Computing <[F, T2]>                      ...... Done. Timing        0.010303 s
    Computing <[V, T1]>                      ...... Done. Timing        0.008894 s
    Computing <[V, T2]> 4HH                  ...... Done. Timing        0.011565 s
    Computing <V, T2]> 4PP                   ...... Done. Timing        0.013418 s
    Computing [V, T2] 4PH                    ...... Done. Timing        0.049451 s
    Computing [V, T2] λ3                     ...... Done. Timing        0.018713 s
    Computing <[V, T2]> (C_2)^4 (no ccvv)    ...... Done. Timing        0.027404 s
    Computing <[V, T2]> (C_2)^4 ccvv         ...... Done. Timing        0.012306 s
  Eccvv: -0.0982617657

  ==> DSRG-MRPT2 (DF/CD) Energy Summary <==

    E0 (reference)                 =   -113.874300487121317
    <[F, T1]>                      =     -0.000000000000000
    <[F, T2]>                      =      0.000000000000000
    <[V, T1]>                      =      0.000000000000000
    <[V, T2]> C_4 (C_2)^2 HH       =      0.000000000000000
    <[V, T2]> C_4 (C_2)^2 PP       =      0.000000000000000
    <[V, T2]> C_4 (C_2)^2 PH       =      0.000000000000000
    <[V, T2]> C_6 C_2              =      0.000000000000000
    <[V, T2]> (C_2)^4              =     -0.314908829366132
    <[V, T2]>                      =     -0.314908829366132
    DSRG-MRPT2 correlation energy  =     -0.314908829366132
    DSRG-MRPT2 total energy        =   -114.189209316487450
    max(T1)                        =      0.000000000000281
    ||T1||                         =      0.000000000000770

  ==> Total Timings (s) for Computing Commutators <==

             [H1, T1]    [H1, T2]    [H2, T1]    [H2, T2]
    -----------------------------------------------------
    -> C0       0.004       0.010       0.009       0.133
    -> C1       0.000       0.000       0.000       0.000
    -> C2                   0.000       0.000       0.000
    -----------------------------------------------------


  ==> VCISD Transition Dipole Moment (a.u.) <==


  ==> VCISD Oscillator Strength (a.u.) <==


  ==> VCISD-DSRG-PT2 Transition Dipole Moment (a.u.) <==


  ==> VCISD-DSRG-PT2 Oscillator Strength (a.u.) <==



  ==> ACTIVE-DSRG-MRPT2 Summary <==

    2S+1  Sym.  ROOT               VCISD      VCISD-DSRG-PT2    % T1
    ----------------------------------------------------------------
       1     A     0     -113.8743004871     -114.1892093165    0.00
    ----------------------------------------------------------------
*** tstart() called on yorks-mac.wireless.emory.edu
*** at Fri Dec 29 18:35:42 2017

   => Loading Basis Set <=

    Name: CC-PVDZ
    Role: ORBITAL
    Keyword: BASIS
    atoms 1   entry O          line   198 file /Users/york/src/psi4new/psi4/share/psi4/basis/cc-pvdz.gbs 
    atoms 2   entry C          line   138 file /Users/york/src/psi4new/psi4/share/psi4/basis/cc-pvdz.gbs 
    atoms 3-4 entry H          line    22 file /Users/york/src/psi4new/psi4/share/psi4/basis/cc-pvdz.gbs 


         ---------------------------------------------------------
                                   SCF
            by Justin Turney, Rob Parrish, Andy Simmonett
                             and Daniel Smith
                              RHF Reference
                        1 Threads,    500 MiB Core
         ---------------------------------------------------------

  ==> Geometry <==

    Molecular point group: c1
    Full point group: C2v

    Geometry (in Angstrom), charge = 0, multiplicity = 1:

       Center              X                  Y                   Z               Mass       
    ------------   -----------------  -----------------  -----------------  -----------------
           O          0.000000000000     0.000000000000    -0.609782788402    15.994914619560
           C          0.000000000000     0.000000000000     0.611321211598    12.000000000000
           H          0.000000000000    -0.934473000000     1.199399211598     1.007825032070
           H          0.000000000000     0.934473000000     1.199399211598     1.007825032070

  Running in c1 symmetry.

  Rotational constants: A =      9.57740  B =      1.26448  C =      1.11701 [cm^-1]
  Rotational constants: A = 287123.37080  B =  37908.17200  C =  33486.97185 [MHz]
  Nuclear repulsion =   30.993739661169702

  Charge       = 0
  Multiplicity = 1
  Electrons    = 16
  Nalpha       = 8
  Nbeta        = 8

  ==> Algorithm <==

  SCF Algorithm Type is DF.
  DIIS enabled.
  MOM disabled.
  Fractional occupation disabled.
  Guess Type is SAD.
  Energy threshold   = 1.00e-10
  Density threshold  = 1.00e-13
  Integral threshold = 0.00e+00

  ==> Primary Basis <==

  Basis Set: CC-PVDZ
    Blend: CC-PVDZ
    Number of shells: 18
    Number of basis function: 38
    Number of Cartesian functions: 40
    Spherical Harmonics?: true
    Max angular momentum: 2

   => Loading Basis Set <=

    Name: CC-PVDZ-JKFIT
    Role: JKFIT
    Keyword: DF_BASIS_SCF
    atoms 1   entry O          line   221 file /Users/york/src/psi4new/psi4/share/psi4/basis/cc-pvdz-jkfit.gbs 
    atoms 2   entry C          line   121 file /Users/york/src/psi4new/psi4/share/psi4/basis/cc-pvdz-jkfit.gbs 
    atoms 3-4 entry H          line    51 file /Users/york/src/psi4new/psi4/share/psi4/basis/cc-pvdz-jkfit.gbs 

  ==> Pre-Iterations <==

   -------------------------------------------------------
    Irrep   Nso     Nmo     Nalpha   Nbeta   Ndocc  Nsocc
   -------------------------------------------------------
     A         38      38       0       0       0       0
   -------------------------------------------------------
    Total      38      38       8       8       8       0
   -------------------------------------------------------

  ==> Integral Setup <==

  ==> DFJK: Density-Fitted J/K Matrices <==

    J tasked:                  Yes
    K tasked:                  Yes
    wK tasked:                  No
    OpenMP threads:              1
    Integrals threads:           1
    Memory (MB):               375
    Algorithm:                Core
    Integral Cache:           NONE
    Schwarz Cutoff:          1E-12
    Fitting Condition:       1E-12

   => Auxiliary Basis Set <=

  Basis Set: CC-PVDZ-JKFIT
    Blend: CC-PVDZ-JKFIT
    Number of shells: 66
    Number of basis function: 186
    Number of Cartesian functions: 212
    Spherical Harmonics?: true
    Max angular momentum: 3

  Minimum eigenvalue in the overlap matrix is 1.9373793660E-02.
  Using Symmetric Orthogonalization.

  SCF Guess: Superposition of Atomic Densities via on-the-fly atomic UHF.

  ==> Iterations <==

                           Total Energy        Delta E     RMS |[F,P]|

   @DF-RHF iter   0:  -113.80398798538914   -1.13804e+02   5.56528e-02 
   @DF-RHF iter   1:  -113.72710133126044    7.68867e-02   1.41915e-02 
   @DF-RHF iter   2:  -113.78755151326136   -6.04502e-02   1.25352e-02 DIIS
   @DF-RHF iter   3:  -113.87089616204423   -8.33446e-02   1.22348e-03 DIIS
   @DF-RHF iter   4:  -113.87376812379885   -2.87196e-03   4.22596e-04 DIIS
   @DF-RHF iter   5:  -113.87421356822976   -4.45444e-04   1.97660e-04 DIIS
   @DF-RHF iter   6:  -113.87429015233377   -7.65841e-05   6.55096e-05 DIIS
   @DF-RHF iter   7:  -113.87429888271511   -8.73038e-06   1.60961e-05 DIIS
   @DF-RHF iter   8:  -113.87429997917783   -1.09646e-06   8.81264e-06 DIIS
   @DF-RHF iter   9:  -113.87430043632146   -4.57144e-07   2.88415e-06 DIIS
   @DF-RHF iter  10:  -113.87430048588890   -4.95674e-08   6.24047e-07 DIIS
   @DF-RHF iter  11:  -113.87430048710655   -1.21766e-09   8.87753e-08 DIIS
   @DF-RHF iter  12:  -113.87430048711893   -1.23777e-11   1.21338e-08 DIIS
   @DF-RHF iter  13:  -113.87430048711929   -3.55271e-13   4.30502e-09 DIIS
   @DF-RHF iter  14:  -113.87430048711927    1.42109e-14   1.24434e-09 DIIS
   @DF-RHF iter  15:  -113.87430048711930   -2.84217e-14   3.53005e-10 DIIS
   @DF-RHF iter  16:  -113.87430048711927    2.84217e-14   9.21992e-11 DIIS
   @DF-RHF iter  17:  -113.87430048711923    4.26326e-14   2.00536e-11 DIIS
   @DF-RHF iter  18:  -113.87430048711917    5.68434e-14   4.74130e-12 DIIS
   @DF-RHF iter  19:  -113.87430048711920   -2.84217e-14   7.43531e-13 DIIS
   @DF-RHF iter  20:  -113.87430048711916    4.26326e-14   2.74619e-13 DIIS
   @DF-RHF iter  21:  -113.87430048711923   -7.10543e-14   1.04252e-13 DIIS
   @DF-RHF iter  22:  -113.87430048711916    7.10543e-14   6.12205e-14 DIIS

  ==> Post-Iterations <==

    Orbital Energies (a.u.)
    -----------------------

    Doubly Occupied:                                                      

       1A    -20.577196     2A    -11.348410     3A     -1.393645  
       4A     -0.868618     5A     -0.684337     6A     -0.642425  
       7A     -0.522697     8A     -0.437747  

    Virtual:                                                              

       9A      0.130794    10A      0.188091    11A      0.256081  
      12A      0.358704    13A      0.668400    14A      0.669958  
      15A      0.733065    16A      0.816705    17A      0.882089  
      18A      0.967853    19A      1.114391    20A      1.156511  
      21A      1.293615    22A      1.327876    23A      1.406198  
      24A      1.676300    25A      1.692141    26A      1.828386  
      27A      1.944880    28A      1.948459    29A      1.979051  
      30A      2.004336    31A      2.570099    32A      2.668990  
      33A      2.737023    34A      3.040853    35A      3.159384  
      36A      3.411119    37A      3.704485    38A      3.813618  

    Final Occupation by Irrep:
              A 
    DOCC [     8 ]

  Energy converged.

  @DF-RHF Final Energy:  -113.87430048711916

   => Energetics <=

    Nuclear Repulsion Energy =             30.9937396611697018
    One-Electron Energy =                -216.7859291738894285
    Two-Electron Energy =                  71.9178890256005587
    PCM Polarization Energy =               0.0000000000000000
    Total Energy =                       -113.8743004871191573

    Alert: EFP and PCM quantities not currently incorporated into SCF psivars.

Properties will be evaluated at   0.000000,   0.000000,   0.000000 Bohr

Properties computed using the SCF density matrix

  Nuclear Dipole Moment: (a.u.)
     X:     0.0000      Y:     0.0000      Z:     2.2459

  Electronic Dipole Moment: (a.u.)
     X:    -0.0000      Y:     0.0000      Z:    -1.1548

  Dipole Moment: (a.u.)
     X:    -0.0000      Y:     0.0000      Z:     1.0910     Total:     1.0910

  Dipole Moment: (Debye)
     X:    -0.0000      Y:     0.0000      Z:     2.7731     Total:     2.7731


*** tstop() called on yorks-mac.wireless.emory.edu at Fri Dec 29 18:35:42 2017
Module time:
	user time   =       0.80 seconds =       0.01 minutes
	system time =       0.05 seconds =       0.00 minutes
	total time  =          0 seconds =       0.00 minutes
Total time:
	user time   =       5.22 seconds =       0.09 minutes
	system time =       0.18 seconds =       0.00 minutes
	total time  =          5 seconds =       0.08 minutes
   => Loading Basis Set <=

    Name: CC-PVDZ-JKFIT
    Role: RIFIT
    Keyword: DF_BASIS_MP2
    atoms 1   entry O          line   221 file /Users/york/src/psi4new/psi4/share/psi4/basis/cc-pvdz-jkfit.gbs 
    atoms 2   entry C          line   121 file /Users/york/src/psi4new/psi4/share/psi4/basis/cc-pvdz-jkfit.gbs 
    atoms 3-4 entry H          line    51 file /Users/york/src/psi4new/psi4/share/psi4/basis/cc-pvdz-jkfit.gbs 

   => Loading Basis Set <=

    Name: STO-3G
    Role: ORBITAL
    Keyword: MINAO_BASIS
    atoms 1   entry O          line    81 file /Users/york/src/psi4new/psi4/share/psi4/basis/sto-3g.gbs 
    atoms 2   entry C          line    61 file /Users/york/src/psi4new/psi4/share/psi4/basis/sto-3g.gbs 
    atoms 3-4 entry H          line    19 file /Users/york/src/psi4new/psi4/share/psi4/basis/sto-3g.gbs 


Reading options from the FORTE block
Calling plugin forte.so.



  Forte
  ----------------------------------------------------------------------------
  A suite of quantum chemistry methods for strongly correlated electrons

    git branch: master - git commit: f15141bf

  Developed by:
    Francesco A. Evangelista, Chenyang Li, Kevin P. Hannon,
    Jeffrey B. Schriber, Tianyuan Zhang, Chenxi Cai
  ----------------------------------------------------------------------------

  Size of Determinant class: 32

  ==> MO Space Information <==

  Read options for space FROZEN_DOCC
  Read options for space RESTRICTED_DOCC
  Read options for space ACTIVE
 Removing orbital 0
 Removing orbital 1
  -------------------------------
                        A   Sum
  -------------------------------
    FROZEN_DOCC         2     2
    RESTRICTED_DOCC     3     3
    ACTIVE              9     9
    RESTRICTED_UOCC    24    24
    FROZEN_UOCC         0     0
    Total              38    38
  -------------------------------

  ==> Integral Transformation <==

  Number of molecular orbitals:               38
  Number of correlated molecular orbitals:    36
  Number of frozen occupied orbitals:          2
  Number of frozen unoccupied orbitals:        0

    Molecular point group: c1
    Full point group: C2v

    Geometry (in Angstrom), charge = 0, multiplicity = 1:

       Center              X                  Y                   Z               Mass       
    ------------   -----------------  -----------------  -----------------  -----------------
           O          0.000000000000     0.000000000000    -0.609782788402    15.994914619560
           C          0.000000000000     0.000000000000     0.611321211598    12.000000000000
           H          0.000000000000    -0.934473000000     1.199399211598     1.007825032070
           H          0.000000000000     0.934473000000     1.199399211598     1.007825032070

  -AO BASIS SET INFORMATION:
    Name                   = CC-PVDZ
    Blend                  = CC-PVDZ
    Total number of shells = 18
    Number of primitives   = 54
    Number of AO           = 40
    Number of SO           = 38
    Maximum AM             = 2
    Spherical Harmonics    = TRUE

  -Contraction Scheme:
    Atom   Type   All Primitives // Shells:
   ------ ------ --------------------------
       1     O     17s 4p 1d // 3s 2p 1d 
       2     C     17s 4p 1d // 3s 2p 1d 
       3     H     4s 1p // 2s 1p 
       4     H     4s 1p // 2s 1p 

  ==> AO Basis Functions <==

    [ CC-PVDZ ]
    spherical
    ****
    O   1
    S   8 1.00
                     11720.00000000           0.00071000
                      1759.00000000           0.00547000
                       400.80000000           0.02783700
                       113.70000000           0.10480000
                        37.03000000           0.28306200
                        13.27000000           0.44871900
                         5.02500000           0.27095200
                         1.01300000           0.01545800
    S   8 1.00
                     11720.00000000          -0.00016000
                      1759.00000000          -0.00126300
                       400.80000000          -0.00626700
                       113.70000000          -0.02571600
                        37.03000000          -0.07092400
                        13.27000000          -0.16541100
                         5.02500000          -0.11695500
                         1.01300000           0.55736800
    S   1 1.00
                         0.30230000           1.00000000
    P   3 1.00
                        17.70000000           0.04301800
                         3.85400000           0.22891300
                         1.04600000           0.50872800
    P   1 1.00
                         0.27530000           1.00000000
    D   1 1.00
                         1.18500000           1.00000000
    ****
    C   2
    S   8 1.00
                      6665.00000000           0.00069200
                      1000.00000000           0.00532900
                       228.00000000           0.02707700
                        64.71000000           0.10171800
                        21.06000000           0.27474000
                         7.49500000           0.44856400
                         2.79700000           0.28507400
                         0.52150000           0.01520400
    S   8 1.00
                      6665.00000000          -0.00014600
                      1000.00000000          -0.00115400
                       228.00000000          -0.00572500
                        64.71000000          -0.02331200
                        21.06000000          -0.06395500
                         7.49500000          -0.14998100
                         2.79700000          -0.12726200
                         0.52150000           0.54452900
    S   1 1.00
                         0.15960000           1.00000000
    P   3 1.00
                         9.43900000           0.03810900
                         2.00200000           0.20948000
                         0.54560000           0.50855700
    P   1 1.00
                         0.15170000           1.00000000
    D   1 1.00
                         0.55000000           1.00000000
    ****
    H   3
    S   3 1.00
                        13.01000000           0.01968500
                         1.96200000           0.13797700
                         0.44460000           0.47814800
    S   1 1.00
                         0.12200000           1.00000000
    P   1 1.00
                         0.72700000           1.00000000
    ****
    H   4
    S   3 1.00
                        13.01000000           0.01968500
                         1.96200000           0.13797700
                         0.44460000           0.47814800
    S   1 1.00
                         0.12200000           1.00000000
    P   1 1.00
                         0.72700000           1.00000000
    ****


  DFIntegrals overall time
 Computing Density fitted integrals 

 Number of auxiliary basis functions:  186
 Need 0.002001 GB to store DF integrals

  Computing DF Integrals               ......Done. Timing        0.030823 s
  Frozen-core energy           -104.821438895737 a.u.

  FrozenOneBody Operator takes  0.22968700 s
  Resorting integrals after freezing core.
 Done with resorting
 Resorting integrals takes   0.01219000s
  DFIntegrals take      0.43698900 s

              ---------------------------------------------------
                               ACTIVE-DSRG-MRPT2
                Wrapper for Multiple SS-DSRG-MRPT2 Computations
                                  Chenyang Li
              ---------------------------------------------------

  Note: Orbitals are NOT optimized throughout the process.
  Reference selection criteria (CAS/CIS/CISD) will NOT change.
  Each state uses its OWN semicanonical orbitals.
  Ground state is assumed to be a singlet.
  Otherwise, please run separate DSRG-MRPT2 jobs.

  ==> Input Summary <==

    total roots requested (include S0)                     1
    multiplicity                                           1
    reference space type                                CISD
    separate HF in CISD                                 TURE
    DSRG-MRPT2 internal amplitudes           SINGLES_DOUBLES
    DSRG-MRPT2 internal type                            AUTO

  ==> Roots Summary <==

                 A
    ----------------
      NROOTS     1
    ----------------

              ---------------------------------------------------
                Complete Active Space Configuration Interaction
                                  Chenyang Li
              ---------------------------------------------------


  ==> Input Summary <==

    No. a electrons in active      =     3
    No. b electrons in active      =     3
    multiplicity                   =     1
    spin ms (2 * Sz)               =     0

  ==> Orbital Spaces <==

    TOTAL MO                      [   38 ]
    FROZEN CORE                   [    2 ]
    FROZEN VIRTUAL                [    0 ]
    CORRELATED MO                 [   36 ]
    CORE                          [    3 ]
    ACTIVE                        [    9 ]
    VIRTUAL                       [   24 ]

  =============================
  Current Job: Singlet A states
  =============================

  Forming determinants                ...  Done. Timing        0.000401 s

  ==> Determinants Summary <==

    number of alpha active electrons         =     3
    number of beta active electrons          =     3
    root symmetry (zero based)               =     0
    number of determinants (include RHF)     =   451

  Isolate RHF determinant to the rest determinants.
  Recompute RHF energy ... Done.

  * * * * * * * * * * * * * * * * *
  *  CI Vectors & Configurations  *
  * * * * * * * * * * * * * * * * *

  ==> Root No. 0 <==

    222000000          1.0000000000

    Total Energy:   -113.874300487121232



  ==> Permanent Dipole Moments (A) <==

  Only print nonzero (> 1.0e-5) elements.
  Permanent dipole moments (a.u.) 0 -> 0:  X: -0.0000  Y:  0.0000  Z:  1.0910  Total:  1.0910


  ==> Prepare Fock Matrices in the Original Basis <==

  Computing 1-cumulants ... Done. Timing        0.003434 s

  Forming generalized Fock matrix     ...  Done. Timing        0.085549 s
  Computing VCISD reference oscillator strength 0A -> nA ... Done.

  ==> Working on Root 0 <==

  Computing 1-, 2- and 3-cumulants ... Done. Timing        1.376455 s


  ==> Checking Fock Matrix Diagonal Blocks <==

    Off-Diag. Elements       Max           2-Norm
    ------------------------------------------------
    Fa actv_docc         0.0000000000   0.0000000000
    Fb actv_docc         0.0000000000   0.0000000000
    ------------------------------------------------
    Fa actv_virt         0.0000000000   0.0000000000
    Fb actv_virt         0.0000000000   0.0000000000
    ------------------------------------------------
    Fa core              0.0000000000   0.0000000000
    Fb core              0.0000000000   0.0000000000
    ------------------------------------------------
    Fa virt              0.0000000000   0.0000000000
    Fb virt              0.0000000000   0.0000000000
    ------------------------------------------------
  Orbitals are already semicanonicalized.

  ==> Multireference Driven Similarity Renormalization Group <==

    Reading DSRG options ............................ Done
    Setting ambit MO space .......................... Done
    Preparing tensors for density cumulants ......... Done
    Building Fock matrix ............................ Done
    Checking reference energy ....................... Done

                  --------------------------------------------
                      Density Fitted / Cholesky Decomposed
                    MR-DSRG Second-Order Perturbation Theory
                      Kevin Hannon and Chenyang (York) Li
                                    1 thread
                  --------------------------------------------

    References:
      u-DSRG-MRPT2:      J. Chem. Theory Comput. 2015, 11, 2097.
      DF/CD-DSRG-MRPT2:  J. Chem. Phys. 2016, 144, 204111.
      (pr-)DSRG-MRPT2:   J. Chem. Phys. 2017, 146, 124132.


  ==> Calculation Information <==

    Flow parameter                                 5.000e-01
    Taylor expansion threshold                     1.000e-03
    Cholesky tolerance                             1.000e-06
    Psi4 ref_type                                        RHF
    Integral type                                         DF
    Source operator                                 STANDARD
    CCVV algorithm                                 FLY_AMBIT
    CCVV source                                       NORMAL
    Reference relaxation                                NONE
    State type                                STATE-SPECIFIC
    Internal_amp                             SINGLES_DOUBLES
    Internal_amp_select                                 AUTO

  ==> Checking Semicanonical Orbitals <==

    Abs. max of Fock core, active, virtual blocks (Fij, i != j)
                  core          active         virtual
    --------------------------------------------------
    Fα    0.0000000000    0.0000000000    0.0000000000
    Fβ    0.0000000000    0.0000000000    0.0000000000
    --------------------------------------------------

    1-Norm of Fock core, active, virtual blocks (Fij, i != j)
                  core          active         virtual
    --------------------------------------------------
    Fα    0.0000000000    0.0000000000    0.0000000000
    Fβ    0.0000000000    0.0000000000    0.0000000000
    --------------------------------------------------

    Orbitals are semi-canonicalized.
    It is OK for Fock (active) not being diagonal because CISD active space is incomplete.
    Please inspect if the Fock diag. blocks (C, AH, AP, V) are diagonal or not in the prior CI step.


  ==> Computing DSRG-MRPT2 Energy <==

  Reference Energy = -113.874300487121232
    Computing T2                             ...... Done. Timing        0.604405 s
    Renormalizing V                          ...... Done. Timing        0.125284 s
    Computing T1                             ...... Done. Timing        0.010663 s
    Renormalizing F                          ...... Done. Timing        0.011196 s
    Computing <[F, T1]>                      ...... Done. Timing        0.004092 s
    Computing <[F, T2]>                      ...... Done. Timing        0.019513 s
    Computing <[V, T1]>                      ...... Done. Timing        0.022722 s
    Computing <[V, T2]> 4HH                  ...... Done. Timing        0.020322 s
    Computing <V, T2]> 4PP                   ...... Done. Timing        0.026560 s
    Computing [V, T2] 4PH                    ...... Done. Timing        0.108900 s
    Computing [V, T2] λ3                     ...... Done. Timing        1.038119 s
    Computing <[V, T2]> (C_2)^4 (no ccvv)    ...... Done. Timing        0.046314 s
    Computing <[V, T2]> (C_2)^4 ccvv         ...... Done. Timing        0.007947 s
  Eccvv: -0.0304300927

  ==> DSRG-MRPT2 (DF/CD) Energy Summary <==

    E0 (reference)                 =   -113.874300487121232
    <[F, T1]>                      =     -0.000000000000000
    <[F, T2]>                      =      0.000000000000000
    <[V, T1]>                      =      0.000000000000000
    <[V, T2]> C_4 (C_2)^2 HH       =      0.000000000000000
    <[V, T2]> C_4 (C_2)^2 PP       =      0.000000000000000
    <[V, T2]> C_4 (C_2)^2 PH       =      0.000000000000000
    <[V, T2]> C_6 C_2              =      0.000000000000000
    <[V, T2]> (C_2)^4              =     -0.314908829366145
    <[V, T2]>                      =     -0.314908829366145
    DSRG-MRPT2 correlation energy  =     -0.314908829366145
    DSRG-MRPT2 total energy        =   -114.189209316487378
    max(T1)                        =      0.000000000000244
    ||T1||                         =      0.000000000001060

  ==> Total Timings (s) for Computing Commutators <==

             [H1, T1]    [H1, T2]    [H2, T1]    [H2, T2]
    -----------------------------------------------------
    -> C0       0.004       0.020       0.023       0.248
    -> C1       0.000       0.000       0.000       0.000
    -> C2                   0.000       0.000       0.000
    -----------------------------------------------------


  ==> VCISD Transition Dipole Moment (a.u.) <==


  ==> VCISD Oscillator Strength (a.u.) <==


  ==> VCISD-DSRG-PT2 Transition Dipole Moment (a.u.) <==


  ==> VCISD-DSRG-PT2 Oscillator Strength (a.u.) <==



  ==> ACTIVE-DSRG-MRPT2 Summary <==

    2S+1  Sym.  ROOT               VCISD      VCISD-DSRG-PT2    % T1
    ----------------------------------------------------------------
       1     A     0     -113.8743004871     -114.1892093165    0.00
    ----------------------------------------------------------------	active independence for H2CO S0...................................PASSED

*** tstart() called on yorks-mac.wireless.emory.edu
*** at Fri Dec 29 18:35:47 2017

   => Loading Basis Set <=

    Name: CC-PVDZ
    Role: ORBITAL
    Keyword: BASIS
    atoms 1, 4     entry C          line   138 file /Users/york/src/psi4new/psi4/share/psi4/basis/cc-pvdz.gbs 
    atoms 2-3, 5-6 entry H          line    22 file /Users/york/src/psi4new/psi4/share/psi4/basis/cc-pvdz.gbs 


         ---------------------------------------------------------
                                   SCF
            by Justin Turney, Rob Parrish, Andy Simmonett
                             and Daniel Smith
                              RHF Reference
                        1 Threads,    500 MiB Core
         ---------------------------------------------------------

  ==> Geometry <==

    Molecular point group: c1
    Full point group: D2h

    Geometry (in Angstrom), charge = 0, multiplicity = 1:

       Center              X                  Y                   Z               Mass       
    ------------   -----------------  -----------------  -----------------  -----------------
           C          0.000000000000     0.668188000000     0.000000000000    12.000000000000
           H          0.000000000000     1.238289000000     0.923274000000     1.007825032070
           H          0.000000000000     1.238289000000    -0.923274000000     1.007825032070
           C          0.000000000000    -0.668188000000     0.000000000000    12.000000000000
           H          0.000000000000    -1.238289000000     0.923274000000     1.007825032070
           H          0.000000000000    -1.238289000000    -0.923274000000     1.007825032070

  Running in c1 symmetry.

  Rotational constants: A =      4.90558  B =      0.99768  C =      0.82907 [cm^-1]
  Rotational constants: A = 147065.51639  B =  29909.67957  C =  24854.79644 [MHz]
  Nuclear repulsion =   33.298097662285691

  Charge       = 0
  Multiplicity = 1
  Electrons    = 16
  Nalpha       = 8
  Nbeta        = 8

  ==> Algorithm <==

  SCF Algorithm Type is DF.
  DIIS enabled.
  MOM disabled.
  Fractional occupation disabled.
  Guess Type is SAD.
  Energy threshold   = 1.00e-10
  Density threshold  = 1.00e-13
  Integral threshold = 0.00e+00

  ==> Primary Basis <==

  Basis Set: CC-PVDZ
    Blend: CC-PVDZ
    Number of shells: 24
    Number of basis function: 48
    Number of Cartesian functions: 50
    Spherical Harmonics?: true
    Max angular momentum: 2

   => Loading Basis Set <=

    Name: CC-PVDZ-JKFIT
    Role: JKFIT
    Keyword: DF_BASIS_SCF
    atoms 1, 4     entry C          line   121 file /Users/york/src/psi4new/psi4/share/psi4/basis/cc-pvdz-jkfit.gbs 
    atoms 2-3, 5-6 entry H          line    51 file /Users/york/src/psi4new/psi4/share/psi4/basis/cc-pvdz-jkfit.gbs 

  ==> Pre-Iterations <==

   -------------------------------------------------------
    Irrep   Nso     Nmo     Nalpha   Nbeta   Ndocc  Nsocc
   -------------------------------------------------------
     A         48      48       0       0       0       0
   -------------------------------------------------------
    Total      48      48       8       8       8       0
   -------------------------------------------------------

  ==> Integral Setup <==

  ==> DFJK: Density-Fitted J/K Matrices <==

    J tasked:                  Yes
    K tasked:                  Yes
    wK tasked:                  No
    OpenMP threads:              1
    Integrals threads:           1
    Memory (MB):               375
    Algorithm:                Core
    Integral Cache:           NONE
    Schwarz Cutoff:          1E-12
    Fitting Condition:       1E-12

   => Auxiliary Basis Set <=

  Basis Set: CC-PVDZ-JKFIT
    Blend: CC-PVDZ-JKFIT
    Number of shells: 84
    Number of basis function: 232
    Number of Cartesian functions: 262
    Spherical Harmonics?: true
    Max angular momentum: 3

  Minimum eigenvalue in the overlap matrix is 4.8552890517E-03.
  Using Symmetric Orthogonalization.

  SCF Guess: Superposition of Atomic Densities via on-the-fly atomic UHF.

  ==> Iterations <==

                           Total Energy        Delta E     RMS |[F,P]|

   @DF-RHF iter   0:   -79.04377597418551   -7.90438e+01   5.34901e-02 
   @DF-RHF iter   1:   -78.01220508270789    1.03157e+00   3.88298e-03 
   @DF-RHF iter   2:   -78.03769635396448   -2.54913e-02   9.71502e-04 DIIS
   @DF-RHF iter   3:   -78.03958855607301   -1.89220e-03   3.16823e-04 DIIS
   @DF-RHF iter   4:   -78.03975251807361   -1.63962e-04   5.12072e-05 DIIS
   @DF-RHF iter   5:   -78.03975892093075   -6.40286e-06   7.54316e-06 DIIS
   @DF-RHF iter   6:   -78.03975909347739   -1.72547e-07   1.42851e-06 DIIS
   @DF-RHF iter   7:   -78.03975909959972   -6.12233e-09   1.28019e-07 DIIS
   @DF-RHF iter   8:   -78.03975909964159   -4.18652e-11   1.11756e-08 DIIS
   @DF-RHF iter   9:   -78.03975909964194   -3.55271e-13   1.66174e-09 DIIS
   @DF-RHF iter  10:   -78.03975909964197   -2.84217e-14   1.43072e-10 DIIS
   @DF-RHF iter  11:   -78.03975909964193    4.26326e-14   8.23901e-12 DIIS
   @DF-RHF iter  12:   -78.03975909964194   -1.42109e-14   1.25827e-12 DIIS
   @DF-RHF iter  13:   -78.03975909964193    1.42109e-14   2.54089e-13 DIIS
   @DF-RHF iter  14:   -78.03975909964191    1.42109e-14   4.37186e-14 DIIS

  ==> Post-Iterations <==

    Orbital Energies (a.u.)
    -----------------------

    Doubly Occupied:                                                      

       1A    -11.237181     2A    -11.235555     3A     -1.030210  
       4A     -0.789955     5A     -0.637457     6A     -0.583305  
       7A     -0.502735     8A     -0.373371  

    Virtual:                                                              

       9A      0.167247    10A      0.203577    11A      0.232845  
      12A      0.237654    13A      0.303111    14A      0.463103  
      15A      0.580456    16A      0.609476    17A      0.689765  
      18A      0.709131    19A      0.779792    20A      0.807365  
      21A      0.861483    22A      0.932468    23A      0.970983  
      24A      1.009023    25A      1.132071    26A      1.234404  
      27A      1.241046    28A      1.261907    29A      1.293038  
      30A      1.599786    31A      1.738011    32A      1.753182  
      33A      1.814505    34A      1.849649    35A      1.860455  
      36A      1.908124    37A      1.969835    38A      1.979920  
      39A      2.227541    40A      2.251016    41A      2.364559  
      42A      2.439660    43A      2.508110    44A      2.637864  
      45A      2.703792    46A      2.815251    47A      3.117122  
      48A      3.391247  

    Final Occupation by Irrep:
              A 
    DOCC [     8 ]

  Energy converged.

  @DF-RHF Final Energy:   -78.03975909964191

   => Energetics <=

    Nuclear Repulsion Energy =             33.2980976622856915
    One-Electron Energy =                -169.8961784015962735
    Two-Electron Energy =                  58.5583216396686623
    PCM Polarization Energy =               0.0000000000000000
    Total Energy =                        -78.0397590996419126

    Alert: EFP and PCM quantities not currently incorporated into SCF psivars.

Properties will be evaluated at   0.000000,   0.000000,   0.000000 Bohr

Properties computed using the SCF density matrix

  Nuclear Dipole Moment: (a.u.)
     X:     0.0000      Y:     0.0000      Z:    -0.0000

  Electronic Dipole Moment: (a.u.)
     X:     0.0000      Y:    -0.0000      Z:    -0.0000

  Dipole Moment: (a.u.)
     X:     0.0000      Y:    -0.0000      Z:    -0.0000     Total:     0.0000

  Dipole Moment: (Debye)
     X:     0.0000      Y:    -0.0000      Z:    -0.0000     Total:     0.0000


*** tstop() called on yorks-mac.wireless.emory.edu at Fri Dec 29 18:35:49 2017
Module time:
	user time   =       1.08 seconds =       0.02 minutes
	system time =       0.06 seconds =       0.00 minutes
	total time  =          2 seconds =       0.03 minutes
Total time:
	user time   =      10.40 seconds =       0.17 minutes
	system time =       0.40 seconds =       0.01 minutes
	total time  =         12 seconds =       0.20 minutes
   => Loading Basis Set <=

    Name: CC-PVDZ-JKFIT
    Role: RIFIT
    Keyword: DF_BASIS_MP2
    atoms 1, 4     entry C          line   121 file /Users/york/src/psi4new/psi4/share/psi4/basis/cc-pvdz-jkfit.gbs 
    atoms 2-3, 5-6 entry H          line    51 file /Users/york/src/psi4new/psi4/share/psi4/basis/cc-pvdz-jkfit.gbs 

   => Loading Basis Set <=

    Name: STO-3G
    Role: ORBITAL
    Keyword: MINAO_BASIS
    atoms 1, 4     entry C          line    61 file /Users/york/src/psi4new/psi4/share/psi4/basis/sto-3g.gbs 
    atoms 2-3, 5-6 entry H          line    19 file /Users/york/src/psi4new/psi4/share/psi4/basis/sto-3g.gbs 


Reading options from the FORTE block
Calling plugin forte.so.



  Forte
  ----------------------------------------------------------------------------
  A suite of quantum chemistry methods for strongly correlated electrons

    git branch: master - git commit: f15141bf

  Developed by:
    Francesco A. Evangelista, Chenyang Li, Kevin P. Hannon,
    Jeffrey B. Schriber, Tianyuan Zhang, Chenxi Cai
  ----------------------------------------------------------------------------

  Size of Determinant class: 32

  ==> MO Space Information <==

  Read options for space FROZEN_DOCC
  Read options for space RESTRICTED_DOCC
  Read options for space ACTIVE
 Removing orbital 0
 Removing orbital 1
  -------------------------------
                        A   Sum
  -------------------------------
    FROZEN_DOCC         2     2
    RESTRICTED_DOCC     4     4
    ACTIVE              3     3
    RESTRICTED_UOCC    39    39
    FROZEN_UOCC         0     0
    Total              48    48
  -------------------------------

  ==> Integral Transformation <==

  Number of molecular orbitals:               48
  Number of correlated molecular orbitals:    46
  Number of frozen occupied orbitals:          2
  Number of frozen unoccupied orbitals:        0

    Molecular point group: c1
    Full point group: D2h

    Geometry (in Angstrom), charge = 0, multiplicity = 1:

       Center              X                  Y                   Z               Mass       
    ------------   -----------------  -----------------  -----------------  -----------------
           C          0.000000000000     0.668188000000     0.000000000000    12.000000000000
           H          0.000000000000     1.238289000000     0.923274000000     1.007825032070
           H          0.000000000000     1.238289000000    -0.923274000000     1.007825032070
           C          0.000000000000    -0.668188000000     0.000000000000    12.000000000000
           H          0.000000000000    -1.238289000000     0.923274000000     1.007825032070
           H          0.000000000000    -1.238289000000    -0.923274000000     1.007825032070

  -AO BASIS SET INFORMATION:
    Name                   = CC-PVDZ
    Blend                  = CC-PVDZ
    Total number of shells = 24
    Number of primitives   = 64
    Number of AO           = 50
    Number of SO           = 48
    Maximum AM             = 2
    Spherical Harmonics    = TRUE

  -Contraction Scheme:
    Atom   Type   All Primitives // Shells:
   ------ ------ --------------------------
       1     C     17s 4p 1d // 3s 2p 1d 
       2     H     4s 1p // 2s 1p 
       3     H     4s 1p // 2s 1p 
       4     C     17s 4p 1d // 3s 2p 1d 
       5     H     4s 1p // 2s 1p 
       6     H     4s 1p // 2s 1p 

  ==> AO Basis Functions <==

    [ CC-PVDZ ]
    spherical
    ****
    C   1
    S   8 1.00
                      6665.00000000           0.00069200
                      1000.00000000           0.00532900
                       228.00000000           0.02707700
                        64.71000000           0.10171800
                        21.06000000           0.27474000
                         7.49500000           0.44856400
                         2.79700000           0.28507400
                         0.52150000           0.01520400
    S   8 1.00
                      6665.00000000          -0.00014600
                      1000.00000000          -0.00115400
                       228.00000000          -0.00572500
                        64.71000000          -0.02331200
                        21.06000000          -0.06395500
                         7.49500000          -0.14998100
                         2.79700000          -0.12726200
                         0.52150000           0.54452900
    S   1 1.00
                         0.15960000           1.00000000
    P   3 1.00
                         9.43900000           0.03810900
                         2.00200000           0.20948000
                         0.54560000           0.50855700
    P   1 1.00
                         0.15170000           1.00000000
    D   1 1.00
                         0.55000000           1.00000000
    ****
    H   2
    S   3 1.00
                        13.01000000           0.01968500
                         1.96200000           0.13797700
                         0.44460000           0.47814800
    S   1 1.00
                         0.12200000           1.00000000
    P   1 1.00
                         0.72700000           1.00000000
    ****
    H   3
    S   3 1.00
                        13.01000000           0.01968500
                         1.96200000           0.13797700
                         0.44460000           0.47814800
    S   1 1.00
                         0.12200000           1.00000000
    P   1 1.00
                         0.72700000           1.00000000
    ****
    C   4
    S   8 1.00
                      6665.00000000           0.00069200
                      1000.00000000           0.00532900
                       228.00000000           0.02707700
                        64.71000000           0.10171800
                        21.06000000           0.27474000
                         7.49500000           0.44856400
                         2.79700000           0.28507400
                         0.52150000           0.01520400
    S   8 1.00
                      6665.00000000          -0.00014600
                      1000.00000000          -0.00115400
                       228.00000000          -0.00572500
                        64.71000000          -0.02331200
                        21.06000000          -0.06395500
                         7.49500000          -0.14998100
                         2.79700000          -0.12726200
                         0.52150000           0.54452900
    S   1 1.00
                         0.15960000           1.00000000
    P   3 1.00
                         9.43900000           0.03810900
                         2.00200000           0.20948000
                         0.54560000           0.50855700
    P   1 1.00
                         0.15170000           1.00000000
    D   1 1.00
                         0.55000000           1.00000000
    ****
    H   5
    S   3 1.00
                        13.01000000           0.01968500
                         1.96200000           0.13797700
                         0.44460000           0.47814800
    S   1 1.00
                         0.12200000           1.00000000
    P   1 1.00
                         0.72700000           1.00000000
    ****
    H   6
    S   3 1.00
                        13.01000000           0.01968500
                         1.96200000           0.13797700
                         0.44460000           0.47814800
    S   1 1.00
                         0.12200000           1.00000000
    P   1 1.00
                         0.72700000           1.00000000
    ****


  DFIntegrals overall time
 Computing Density fitted integrals 

 Number of auxiliary basis functions:  232
 Need 0.003983 GB to store DF integrals

  Computing DF Integrals               ......Done. Timing        0.044519 s
  Frozen-core energy            -78.536479041441 a.u.

  FrozenOneBody Operator takes  0.31261600 s
  Resorting integrals after freezing core.
 Done with resorting
 Resorting integrals takes   0.03041200s
  DFIntegrals take      0.63736600 s

              ---------------------------------------------------
                               ACTIVE-DSRG-MRPT2
                Wrapper for Multiple SS-DSRG-MRPT2 Computations
                                  Chenyang Li
              ---------------------------------------------------

  Note: Orbitals are NOT optimized throughout the process.
  Reference selection criteria (CAS/CIS/CISD) will NOT change.
  Each state uses its OWN semicanonical orbitals.
  Ground state is assumed to be a singlet.
  Otherwise, please run separate DSRG-MRPT2 jobs.

  ==> Input Summary <==

    total roots requested (include S0)                     2
    multiplicity                                           1
    reference space type                                CISD
    separate HF in CISD                                 TURE
    DSRG-MRPT2 internal amplitudes           SINGLES_DOUBLES
    DSRG-MRPT2 internal type                            AUTO

  ==> Roots Summary <==

                 A
    ----------------
      NROOTS     2
    ----------------

              ---------------------------------------------------
                Complete Active Space Configuration Interaction
                                  Chenyang Li
              ---------------------------------------------------


  ==> Input Summary <==

    No. a electrons in active      =     2
    No. b electrons in active      =     2
    multiplicity                   =     1
    spin ms (2 * Sz)               =     0

  ==> Orbital Spaces <==

    TOTAL MO                      [   48 ]
    FROZEN CORE                   [    2 ]
    FROZEN VIRTUAL                [    0 ]
    CORRELATED MO                 [   46 ]
    CORE                          [    4 ]
    ACTIVE                        [    3 ]
    VIRTUAL                       [   39 ]

  =============================
  Current Job: Singlet A states
  =============================

  Forming determinants                ...  Done. Timing        0.000035 s

  ==> Determinants Summary <==

    number of alpha active electrons         =     2
    number of beta active electrons          =     2
    root symmetry (zero based)               =     0
    number of determinants (include RHF)     =     9

  Isolate RHF determinant to the rest determinants.
  Recompute RHF energy ... Done.
  The upcoming diagonalization excludes RHF determinant.

  Diagonalizing Hamiltonian           ...
[...]
    <[V, T2]>                      =     -0.515686429648919
    DSRG-MRPT2 correlation energy  =     -0.545991473488418
    DSRG-MRPT2 total energy        =   -192.112137726956263
    max(T1)                        =      0.018467935590606
    ||T1||                         =      0.091205515929134

  ==> Total Timings (s) for Computing Commutators <==

             [H1, T1]    [H1, T2]    [H2, T1]    [H2, T2]
    -----------------------------------------------------
    -> C0       0.006       0.013       0.010       0.322
    -> C1       0.000       0.000       0.000       0.000
    -> C2                   0.000       0.000       0.000
    -----------------------------------------------------


  ==> Working on Root 4 <==

  Computing 1-, 2- and 3-cumulants ... Done. Timing        0.130360 s


  ==> Checking Fock Matrix Diagonal Blocks <==

    Off-Diag. Elements       Max           2-Norm
    ------------------------------------------------
    Fa actv_docc         0.0000000000   0.0000000000
    Fb actv_docc         0.0000000000   0.0000000000
    ------------------------------------------------
    Fa actv_virt         0.0000000000   0.0000000000
    Fb actv_virt         0.0000000000   0.0000000000
    ------------------------------------------------
    Fa core              0.0306726688   0.0433777043
    Fb core              0.0306726688   0.0433777043
    ------------------------------------------------
    Fa virt              0.0225223964   0.1366101173
    Fb virt              0.0225223964   0.1366101173
    ------------------------------------------------

  ==> Integral Transformation to Semicanonical Basis <==
    Molecular point group: c1
    Full point group: C1

    Geometry (in Angstrom), charge = 0, multiplicity = 1:

       Center              X                  Y                   Z               Mass       
    ------------   -----------------  -----------------  -----------------  -----------------
           C         -0.148137084364     0.650936168206  2586.164376496523    12.000000000000
           H         -0.148137084364     0.650936168206  2587.249480191696     1.007825032070
           H         -0.148137084364     1.621091247422  2585.678321816937     1.007825032070
           C         -0.148137084364    -0.486136003342  2585.462259917835    12.000000000000
           H         -0.148137084364    -1.456291082558  2585.948314597421     1.007825032070
           H         -0.148137084364    -0.486136003342  2584.377156222663     1.007825032070
           O         -0.148137084365    -0.486136003341  -2415.622843777337    15.994914619560
           C          0.425594124641     0.333237079206  -2414.922447296603    12.000000000000
           H          1.361790844916     0.096517130491  -2414.387120397747     1.007825032070
           H          0.042009961413     1.359169549770  -2414.783158828387     1.007825032070

  -AO BASIS SET INFORMATION:
    Name                   = CC-PVDZ
    Blend                  = CC-PVDZ
    Total number of shells = 42
    Number of primitives   = 118
    Number of AO           = 90
    Number of SO           = 86
    Maximum AM             = 2
    Spherical Harmonics    = TRUE

  -Contraction Scheme:
    Atom   Type   All Primitives // Shells:
   ------ ------ --------------------------
       1     C     17s 4p 1d // 3s 2p 1d 
       2     H     4s 1p // 2s 1p 
       3     H     4s 1p // 2s 1p 
       4     C     17s 4p 1d // 3s 2p 1d 
       5     H     4s 1p // 2s 1p 
       6     H     4s 1p // 2s 1p 
       7     O     17s 4p 1d // 3s 2p 1d 
       8     C     17s 4p 1d // 3s 2p 1d 
       9     H     4s 1p // 2s 1p 
      10     H     4s 1p // 2s 1p 

  ==> AO Basis Functions <==

    [ CC-PVDZ ]
    spherical
    ****
    C   1
    S   8 1.00
                      6665.00000000           0.00069200
                      1000.00000000           0.00532900
                       228.00000000           0.02707700
                        64.71000000           0.10171800
                        21.06000000           0.27474000
                         7.49500000           0.44856400
                         2.79700000           0.28507400
                         0.52150000           0.01520400
    S   8 1.00
                      6665.00000000          -0.00014600
                      1000.00000000          -0.00115400
                       228.00000000          -0.00572500
                        64.71000000          -0.02331200
                        21.06000000          -0.06395500
                         7.49500000          -0.14998100
                         2.79700000          -0.12726200
                         0.52150000           0.54452900
    S   1 1.00
                         0.15960000           1.00000000
    P   3 1.00
                         9.43900000           0.03810900
                         2.00200000           0.20948000
                         0.54560000           0.50855700
    P   1 1.00
                         0.15170000           1.00000000
    D   1 1.00
                         0.55000000           1.00000000
    ****
    H   2
    S   3 1.00
                        13.01000000           0.01968500
                         1.96200000           0.13797700
                         0.44460000           0.47814800
    S   1 1.00
                         0.12200000           1.00000000
    P   1 1.00
                         0.72700000           1.00000000
    ****
    H   3
    S   3 1.00
                        13.01000000           0.01968500
                         1.96200000           0.13797700
                         0.44460000           0.47814800
    S   1 1.00
                         0.12200000           1.00000000
    P   1 1.00
                         0.72700000           1.00000000
    ****
    C   4
    S   8 1.00
                      6665.00000000           0.00069200
                      1000.00000000           0.00532900
                       228.00000000           0.02707700
                        64.71000000           0.10171800
                        21.06000000           0.27474000
                         7.49500000           0.44856400
                         2.79700000           0.28507400
                         0.52150000           0.01520400
    S   8 1.00
                      6665.00000000          -0.00014600
                      1000.00000000          -0.00115400
                       228.00000000          -0.00572500
                        64.71000000          -0.02331200
                        21.06000000          -0.06395500
                         7.49500000          -0.14998100
                         2.79700000          -0.12726200
                         0.52150000           0.54452900
    S   1 1.00
                         0.15960000           1.00000000
    P   3 1.00
                         9.43900000           0.03810900
                         2.00200000           0.20948000
                         0.54560000           0.50855700
    P   1 1.00
                         0.15170000           1.00000000
    D   1 1.00
                         0.55000000           1.00000000
    ****
    H   5
    S   3 1.00
                        13.01000000           0.01968500
                         1.96200000           0.13797700
                         0.44460000           0.47814800
    S   1 1.00
                         0.12200000           1.00000000
    P   1 1.00
                         0.72700000           1.00000000
    ****
    H   6
    S   3 1.00
                        13.01000000           0.01968500
                         1.96200000           0.13797700
                         0.44460000           0.47814800
    S   1 1.00
                         0.12200000           1.00000000
    P   1 1.00
                         0.72700000           1.00000000
    ****
    O   7
    S   8 1.00
                     11720.00000000           0.00071000
                      1759.00000000           0.00547000
                       400.80000000           0.02783700
                       113.70000000           0.10480000
                        37.03000000           0.28306200
                        13.27000000           0.44871900
                         5.02500000           0.27095200
                         1.01300000           0.01545800
    S   8 1.00
                     11720.00000000          -0.00016000
                      1759.00000000          -0.00126300
                       400.80000000          -0.00626700
                       113.70000000          -0.02571600
                        37.03000000          -0.07092400
                        13.27000000          -0.16541100
                         5.02500000          -0.11695500
                         1.01300000           0.55736800
    S   1 1.00
                         0.30230000           1.00000000
    P   3 1.00
                        17.70000000           0.04301800
                         3.85400000           0.22891300
                         1.04600000           0.50872800
    P   1 1.00
                         0.27530000           1.00000000
    D   1 1.00
                         1.18500000           1.00000000
    ****
    C   8
    S   8 1.00
                      6665.00000000           0.00069200
                      1000.00000000           0.00532900
                       228.00000000           0.02707700
                        64.71000000           0.10171800
                        21.06000000           0.27474000
                         7.49500000           0.44856400
                         2.79700000           0.28507400
                         0.52150000           0.01520400
    S   8 1.00
                      6665.00000000          -0.00014600
                      1000.00000000          -0.00115400
                       228.00000000          -0.00572500
                        64.71000000          -0.02331200
                        21.06000000          -0.06395500
                         7.49500000          -0.14998100
                         2.79700000          -0.12726200
                         0.52150000           0.54452900
    S   1 1.00
                         0.15960000           1.00000000
    P   3 1.00
                         9.43900000           0.03810900
                         2.00200000           0.20948000
                         0.54560000           0.50855700
    P   1 1.00
                         0.15170000           1.00000000
    D   1 1.00
                         0.55000000           1.00000000
    ****
    H   9
    S   3 1.00
                        13.01000000           0.01968500
                         1.96200000           0.13797700
                         0.44460000           0.47814800
    S   1 1.00
                         0.12200000           1.00000000
    P   1 1.00
                         0.72700000           1.00000000
    ****
    H  10
    S   3 1.00
                        13.01000000           0.01968500
                         1.96200000           0.13797700
                         0.44460000           0.47814800
    S   1 1.00
                         0.12200000           1.00000000
    P   1 1.00
                         0.72700000           1.00000000
    ****


 Integrals are about to be computed.
 Computing Density fitted integrals 

 Number of auxiliary basis functions:  418
 Need 0.023034 GB to store DF integrals

  Computing DF Integrals               ......Done. Timing        0.153994 s
 Integrals are about to be updated.
  Frozen-core energy           -183.369768989787 a.u.

  FrozenOneBody Operator takes  1.40141400 s
  Resorting integrals after freezing core.
 Done with resorting
 Resorting integrals takes   0.16047100s
  Frozen Orbitals takes     1.574 s.

  ==> Reference Transformation to Semicanonical Basis <==

    Transformed 1 cumulants.
    Transformed 2 cumulants and RDMs.
    Transformed 3 cumulants.
  SemiCanonicalize takes 4.572515 s.

  ==> Multireference Driven Similarity Renormalization Group <==

    Reading DSRG options ............................ Done
    Setting ambit MO space .......................... Done
    Preparing tensors for density cumulants ......... Done
    Building Fock matrix ............................ Done
    Checking reference energy ....................... Done

                  --------------------------------------------
                      Density Fitted / Cholesky Decomposed
                    MR-DSRG Second-Order Perturbation Theory
                      Kevin Hannon and Chenyang (York) Li
                                    1 thread
                  --------------------------------------------

    References:
      u-DSRG-MRPT2:      J. Chem. Theory Comput. 2015, 11, 2097.
      DF/CD-DSRG-MRPT2:  J. Chem. Phys. 2016, 144, 204111.
      (pr-)DSRG-MRPT2:   J. Chem. Phys. 2017, 146, 124132.


  ==> Calculation Information <==

    Flow parameter                                 5.000e-01
    Taylor expansion threshold                     1.000e-03
    Cholesky tolerance                             1.000e-06
    Psi4 ref_type                                        RHF
    Integral type                                         DF
    Source operator                                 STANDARD
    CCVV algorithm                                 FLY_AMBIT
    CCVV source                                       NORMAL
    Reference relaxation                                NONE
    State type                                STATE-SPECIFIC
    Internal_amp                             SINGLES_DOUBLES
    Internal_amp_select                                 AUTO

  ==> Checking Semicanonical Orbitals <==

    Abs. max of Fock core, active, virtual blocks (Fij, i != j)
                  core          active         virtual
    --------------------------------------------------
    Fα    0.0000000000    0.0000000002    0.0000000000
    Fβ    0.0000000000    0.0000000002    0.0000000000
    --------------------------------------------------

    1-Norm of Fock core, active, virtual blocks (Fij, i != j)
                  core          active         virtual
    --------------------------------------------------
    Fα    0.0000000000    0.0000000004    0.0000000000
    Fβ    0.0000000000    0.0000000004    0.0000000000
    --------------------------------------------------

    Orbitals are semi-canonicalized.
    It is OK for Fock (active) not being diagonal because CISD active space is incomplete.
    Please inspect if the Fock diag. blocks (C, AH, AP, V) are diagonal or not in the prior CI step.


  ==> Computing DSRG-MRPT2 Energy <==

  Reference Energy = -191.560087377223908
    Computing T2                             ...... Done. Timing        0.602152 s
    Renormalizing V                          ...... Done. Timing        0.506171 s
    Computing T1                             ...... Done. Timing        0.009923 s
    Renormalizing F                          ...... Done. Timing        0.010371 s
    Computing <[F, T1]>                      ...... Done. Timing        0.003604 s
    Computing <[F, T2]>                      ...... Done. Timing        0.010238 s
    Computing <[V, T1]>                      ...... Done. Timing        0.009495 s
    Computing <[V, T2]> 4HH                  ...... Done. Timing        0.013399 s
    Computing <V, T2]> 4PP                   ...... Done. Timing        0.019515 s
    Computing [V, T2] 4PH                    ...... Done. Timing        0.075959 s
    Computing [V, T2] λ3                     ...... Done. Timing        0.101427 s
    Computing <[V, T2]> (C_2)^4 (no ccvv)    ...... Done. Timing        0.071718 s
    Computing <[V, T2]> (C_2)^4 ccvv         ...... Done. Timing        0.107737 s
  Eccvv: -0.1930166333

  ==> DSRG-MRPT2 (DF/CD) Energy Summary <==

    E0 (reference)                 =   -191.560087377223908
    <[F, T1]>                      =     -0.005184721520637
    <[F, T2]>                      =      0.001781547196709
    <[V, T1]>                      =      0.001781547196709
    <[V, T2]> C_4 (C_2)^2 HH       =     -0.000768469227426
    <[V, T2]> C_4 (C_2)^2 PP       =     -0.009179264337315
    <[V, T2]> C_4 (C_2)^2 PH       =     -0.004406608102907
    <[V, T2]> C_6 C_2              =     -0.000000000000000
    <[V, T2]> (C_2)^4              =     -0.608469251986757
    <[V, T2]>                      =     -0.622823593654405
    DSRG-MRPT2 correlation energy  =     -0.624445220781625
    DSRG-MRPT2 total energy        =   -192.184532598005546
    max(T1)                        =      0.011295122256429
    ||T1||                         =      0.042124350704830

  ==> Total Timings (s) for Computing Commutators <==

             [H1, T1]    [H1, T2]    [H2, T1]    [H2, T2]
    -----------------------------------------------------
    -> C0       0.004       0.010       0.010       0.310
    -> C1       0.000       0.000       0.000       0.000
    -> C2                   0.000       0.000       0.000
    -----------------------------------------------------

  Computing VCISD-DSRG-PT2 oscillator strength ... Done. Timing        0.097934 s

  ==> VCISD Transition Dipole Moment (a.u.) <==

   0 A ->  1 A:  X:  0.0000  Y: -0.0000  Z: -0.0000  Total:  0.0000
   0 A ->  2 A:  X: -0.0000  Y: -0.0000  Z: -0.0000  Total:  0.0000
   0 A ->  3 A:  X:  0.0000  Y:  0.0000  Z:  0.0000  Total:  0.0000
   0 A ->  4 A:  X:  0.0000  Y:  1.6656  Z:  1.0285  Total:  1.9575

  ==> VCISD Oscillator Strength (a.u.) <==

   0 A ->  1 A:  X:  0.0000  Y:  0.0000  Z:  0.0000  Total:  0.0000
   0 A ->  2 A:  X:  0.0000  Y:  0.0000  Z:  0.0000  Total:  0.0000
   0 A ->  3 A:  X:  0.0000  Y:  0.0000  Z:  0.0000  Total:  0.0000
   0 A ->  4 A:  X:  0.0000  Y:  0.6547  Z:  0.2496  Total:  0.9043

  ==> VCISD-DSRG-PT2 Transition Dipole Moment (a.u.) <==

   0 A ->  4 A:  X:  0.0000  Y:  1.4662  Z:  0.9053  Total:  1.7231

  ==> VCISD-DSRG-PT2 Oscillator Strength (a.u.) <==

   0 A ->  4 A:  X:  0.0000  Y:  0.4507  Z:  0.1718  Total:  0.6225


  ==> ACTIVE-DSRG-MRPT2 Summary <==

    2S+1  Sym.  ROOT               VCISD      VCISD-DSRG-PT2    % T1
    ----------------------------------------------------------------
       1     A     0     -191.9140595870     -192.4990178169    0.00
       1     A     1     -191.7488708648     -192.3499340105   95.40
       1     A     2     -191.6034115728     -192.2090527755    0.00
       1     A     3     -191.5661462535     -192.1121377270    0.00
       1     A     4     -191.5600873772     -192.1845325980  100.00
    ----------------------------------------------------------------

  ==> Relative Energy WRT Totally Symmetric Ground State (eV) <==

    2S+1  Sym.  ROOT     VCISD  DSRG-PT2                           Excitation Type
    ------------------------------------------------------------------------------
       1     A     1    4.4950    4.0568                    2A -> 4A (Diffuse) (S)
       1     A     2    8.4532    7.8903      3A,2A -> 4A (Diffuse) ,5A (Diffuse) 
       1     A     3    9.4672   10.5275      3A,0A -> 4A (Diffuse) ,5A (Diffuse) 
       1     A     4    9.6321    8.5576                    3A -> 5A (Diffuse) (S)
    ------------------------------------------------------------------------------
    Notes on excitation type:
    General format: mAH -> nAP (<r^2>) (S/D)
      mAH:   Mulliken symbol of m-th Active Hole orbital
      nAP:   Mulliken symbol of n-th Active Particle orbital
      <r^2>: orbital extent of the nAP orbital in a.u.
      S/D:   single/double excitation
    NOTE: m and n are ZERO based ACTIVE indices (NO core orbitals)!	size-intensive error for C2H4 pi->pi*.............................PASSED
	abs. energy of excited C2H4.......................................PASSED
	abs. energy of excited C2H4...H2CO................................PASSED

*** Psi4 exiting successfully. Buy a developer a beer!
