
    -----------------------------------------------------------------------
          Psi4: An Open-Source Ab Initio Electronic Structure Package
                               Psi4 1.4a2.dev313 

                         Git: Rev {master} 65c0921 


    R. M. Parrish, L. A. Burns, D. G. A. Smith, A. C. Simmonett,
    A. E. DePrince III, E. G. Hohenstein, U. Bozkaya, A. Yu. Sokolov,
    R. Di Remigio, R. M. Richard, J. F. Gonthier, A. M. James,
    H. R. McAlexander, A. Kumar, M. Saitow, X. Wang, B. P. Pritchard,
    P. Verma, H. F. Schaefer III, K. Patkowski, R. A. King, E. F. Valeev,
    F. A. Evangelista, J. M. Turney, T. D. Crawford, and C. D. Sherrill,
    J. Chem. Theory Comput. 13(7) pp 3185--3197 (2017).
    (doi: 10.1021/acs.jctc.7b00174)


                         Additional Contributions by
    P. Kraus, H. Kruse, M. H. Lechner, M. C. Schieber, R. A. Shaw,
    A. Alenaizan, R. Galvelis, Z. L. Glick, S. Lehtola, and J. P. Misiewicz

    -----------------------------------------------------------------------


    Psi4 started on: Saturday, 21 March 2020 10:23PM

    Process ID: 22266
    Host:       Yorks-Mac.local
    PSIDATADIR: /Users/york/src/psi4group/psi4/share/psi4
    Memory:     500.0 MiB
    Threads:    1
    
  ==> Input File <==

--------------------------------------------------------------------------
import forte

Escf = -230.53543239670859
Ept2 = {"1AG":  {0: -231.319065668045, 1: -231.006602969564},
        "1B1G": {0: -231.006798885089},
        "1B2U": {0: -231.067788818100, 1: -231.026801831595},
        "1B3U": {0: -231.125817636184, 1: -231.026830664732},
        "3AG":  {0: -231.035884871274, 1: -230.931365758204},
        "5AG":  {0: -230.983595393967, 1: -230.749287428947}}

memory 1 gb

molecule benzene{
0 1

H   0.000000   2.484212   0.000000
H   0.000000  -2.484212   0.000000
H   2.151390   1.242106   0.000000
H  -2.151390  -1.242106   0.000000
H  -2.151390   1.242106   0.000000
H   2.151390  -1.242106   0.000000
C   0.000000   1.396792   0.000000
C   0.000000  -1.396792   0.000000
C   1.209657   0.698396   0.000000
C  -1.209657  -0.698396   0.000000
C  -1.209657   0.698396   0.000000
C   1.209657  -0.698396   0.000000

noreorient
}

set {
  reference      rhf
  scf_type       df
  basis          def2-svp
  df_basis_scf   def2-svp-jkfit
  df_basis_mp2   def2-svp-ri
  e_convergence  12
  d_convergence  10
  maxiter        100
  docc           [6,3,1,1,0,1,5,4]
}
Escf, wfn = energy('scf', return_wfn=True)
compare_values(Escf, variable("CURRENT ENERGY"), 8, "DF-SCF(RHF) energy")

set forte{
  int_type             df
  active_space_solver  cas
  correlation_solver   sa-mrdsrg
  corr_level           pt2
  calc_type            sa
  dsrg_s               0.50
  frozen_docc          [2,1,0,0,0,0,2,1]
  restricted_docc      [4,2,0,0,0,0,3,3]
  active               [0,0,1,2,1,2,0,0]
  e_convergence        12
  r_convergence        8
  # just to test if the state average weights are computed correctly
  avg_state            [[0,1,2], [1,1,1], [6,1,2], [7,1,2], [0,3,2], [0,5,2]]
  avg_weight           [[1,2], [2], [0,1], [0,1], [0.25,0.25], [0.5,0.5]]
  print                2
}

energy('forte', ref_wfn=wfn)
for sym, roots in Ept2.items():
    for n, Eref in roots.items():
        name = f"ENERGY ROOT {n} {sym}"
        msg = f"SA-DSRG-PT2 energy on {sym:>4s} root {n}"
        compare_values(Eref, variable(name), 8, msg)
--------------------------------------------------------------------------

  Memory set to 953.674 MiB by Python driver.

Scratch directory: /Users/york/scratch/psi4/

*** tstart() called on Yorks-Mac.local
*** at Sat Mar 21 22:23:24 2020

   => Loading Basis Set <=

    Name: DEF2-SVP
    Role: ORBITAL
    Keyword: BASIS
    atoms 1-6  entry H          line    15 file /Users/york/src/psi4group/psi4/share/psi4/basis/def2-svp.gbs 
    atoms 7-12 entry C          line    90 file /Users/york/src/psi4group/psi4/share/psi4/basis/def2-svp.gbs 


         ---------------------------------------------------------
                                   SCF
               by Justin Turney, Rob Parrish, Andy Simmonett
                          and Daniel G. A. Smith
                              RHF Reference
                        1 Threads,    953 MiB Core
         ---------------------------------------------------------

  ==> Geometry <==

    Molecular point group: d2h
    Full point group: D2h

    Geometry (in Angstrom), charge = 0, multiplicity = 1:

       Center              X                  Y                   Z               Mass       
    ------------   -----------------  -----------------  -----------------  -----------------
         H           -0.000000000000     2.484212000000     0.000000000000     1.007825032230
         H            0.000000000000    -2.484212000000     0.000000000000     1.007825032230
         H            2.151390000000     1.242106000000     0.000000000000     1.007825032230
         H           -2.151390000000    -1.242106000000     0.000000000000     1.007825032230
         H           -2.151390000000     1.242106000000     0.000000000000     1.007825032230
         H            2.151390000000    -1.242106000000     0.000000000000     1.007825032230
         C           -0.000000000000     1.396792000000     0.000000000000    12.000000000000
         C            0.000000000000    -1.396792000000     0.000000000000    12.000000000000
         C            1.209657000000     0.698396000000     0.000000000000    12.000000000000
         C           -1.209657000000    -0.698396000000     0.000000000000    12.000000000000
         C           -1.209657000000     0.698396000000     0.000000000000    12.000000000000
         C            1.209657000000    -0.698396000000     0.000000000000    12.000000000000

  Running in d2h symmetry.

  Rotational constants: A =      0.18963  B =      0.18963  C =      0.09482 [cm^-1]
  Rotational constants: A =   5685.07500  B =   5685.07158  C =   2842.53665 [MHz]
  Nuclear repulsion =  203.153509659802069

  Charge       = 0
  Multiplicity = 1
  Electrons    = 42
  Nalpha       = 21
  Nbeta        = 21

  ==> Algorithm <==

  SCF Algorithm Type is DF.
  DIIS enabled.
  MOM disabled.
  Fractional occupation disabled.
  Guess Type is SAD.
  Energy threshold   = 1.00e-12
  Density threshold  = 1.00e-10
  Integral threshold = 0.00e+00

  ==> Primary Basis <==

  Basis Set: DEF2-SVP
    Blend: DEF2-SVP
    Number of shells: 54
    Number of basis function: 114
    Number of Cartesian functions: 120
    Spherical Harmonics?: true
    Max angular momentum: 2

   => Loading Basis Set <=

    Name: DEF2-SVP-JKFIT
    Role: JKFIT
    Keyword: DF_BASIS_SCF
    atoms 1-6  entry H          line    23 file /Users/york/src/psi4group/psi4/share/psi4/basis/def2-svp-jkfit.gbs 
    atoms 7-12 entry C          line   203 file /Users/york/src/psi4group/psi4/share/psi4/basis/def2-svp-jkfit.gbs 

  ==> Pre-Iterations <==

   -------------------------------------------------------
    Irrep   Nso     Nmo     Nalpha   Nbeta   Ndocc  Nsocc
   -------------------------------------------------------
     Ag        24      24       6       6       6       0
     B1g       18      18       3       3       3       0
     B2g        6       6       1       1       1       0
     B3g        9       9       1       1       1       0
     Au         6       6       0       0       0       0
     B1u        9       9       1       1       1       0
     B2u       24      24       5       5       5       0
     B3u       18      18       4       4       4       0
   -------------------------------------------------------
    Total     114     114      21      21      21       0
   -------------------------------------------------------

  ==> Integral Setup <==

  DFHelper Memory: AOs need 0.059 GiB; user supplied 0.698 GiB. Using in-core AOs.

  ==> MemDFJK: Density-Fitted J/K Matrices <==

    J tasked:                   Yes
    K tasked:                   Yes
    wK tasked:                   No
    OpenMP threads:               1
    Memory [MiB]:               715
    Algorithm:                 Core
    Schwarz Cutoff:           1E-12
    Mask sparsity (%):       1.0157
    Fitting Condition:        1E-10

   => Auxiliary Basis Set <=

  Basis Set: DEF2-SVP-JKFIT
    Blend: DEF2-SVP-JKFIT
    Number of shells: 186
    Number of basis function: 558
    Number of Cartesian functions: 654
    Spherical Harmonics?: true
    Max angular momentum: 4

  Minimum eigenvalue in the overlap matrix is 5.2740819284E-04.
  Reciprocal condition number of the overlap matrix is 9.0744521805E-05.
    Using symmetric orthogonalization.
  SCF Guess: Superposition of Atomic Densities via on-the-fly atomic UHF.

  ==> Iterations <==

                           Total Energy        Delta E     RMS |[F,P]|

   @DF-RHF iter SAD:  -229.97803014346704   -2.29978e+02   0.00000e+00 
   @DF-RHF iter   1:  -230.42836044254204   -4.50330e-01   8.58819e-03 DIIS
   @DF-RHF iter   2:  -230.52072018891147   -9.23597e-02   3.56435e-03 DIIS
   @DF-RHF iter   3:  -230.53441410434522   -1.36939e-02   7.53918e-04 DIIS
   @DF-RHF iter   4:  -230.53542239007101   -1.00829e-03   6.58763e-05 DIIS
   @DF-RHF iter   5:  -230.53543208658013   -9.69651e-06   1.21176e-05 DIIS
   @DF-RHF iter   6:  -230.53543239484537   -3.08265e-07   1.15796e-06 DIIS
   @DF-RHF iter   7:  -230.53543239733349   -2.48812e-09   1.24971e-07 DIIS
   @DF-RHF iter   8:  -230.53543239736652   -3.30260e-11   1.54811e-08 DIIS
   @DF-RHF iter   9:  -230.53543239736692   -3.97904e-13   1.93515e-09 DIIS
   @DF-RHF iter  10:  -230.53543239736723   -3.12639e-13   2.49859e-10 DIIS
   @DF-RHF iter  11:  -230.53543239736706    1.70530e-13   2.71782e-11 DIIS
  Energy and wave function converged.


  ==> Post-Iterations <==

    Orbital Energies [Eh]
    ---------------------

    Doubly Occupied:                                                      

       1Ag   -11.239854     1B2u  -11.239340     1B3u  -11.239340  
       2Ag   -11.238194     1B1g  -11.238194     2B2u  -11.237673  
       3Ag    -1.138423     3B2u   -1.002606     2B3u   -1.002606  
       2B1g   -0.815685     4Ag    -0.815685     5Ag    -0.707590  
       4B2u   -0.636406     3B3u   -0.621787     5B2u   -0.588098  
       4B3u   -0.588098     1B1u   -0.501666     3B1g   -0.495915  
       6Ag    -0.495915     1B3g   -0.337218     1B2g   -0.337218  

    Virtual:                                                              

       1Au     0.132938     2B1u    0.132938     7Ag     0.181801  
       6B2u    0.221597     5B3u    0.221597     4B1g    0.258845  
       8Ag     0.258845     7B2u    0.280412     2B3g    0.346580  
       5B1g    0.454031     9Ag     0.454031     8B2u    0.472098  
       6B3u    0.472098    10Ag     0.528998     7B3u    0.585578  
       9B2u    0.590279     8B3u    0.590279    11Ag     0.620233  
      10B2u    0.659861     3B1u    0.688627    12Ag     0.707451  
       6B1g    0.707451     7B1g    0.742919     3B3g    0.757960  
       2B2g    0.757960     2Au     0.838106     4B1u    0.838106  
      11B2u    0.870308     9B3u    0.870308    13Ag     0.895859  
       8B1g    0.895859     4B3g    0.917185    12B2u    0.968954  
       9B1g    0.975543    14Ag     0.975543    15Ag     0.977440  
      13B2u    1.026759    10B3u    1.026759    14B2u    1.100502  
      10B1g    1.171927    15B2u    1.255355    11B3u    1.255356  
       5B1u    1.403153     5B3g    1.500324     3B2g    1.500324  
       4B2g    1.507977    16Ag     1.509460    11B1g    1.509460  
       6B1u    1.567434     3Au     1.567434    16B2u    1.769347  
      12B3u    1.917849    17Ag     1.931099     6B3g    1.933642  
      18Ag     2.032464    12B1g    2.032464    19Ag     2.034782  
       4Au     2.043332     7B1u    2.043333    17B2u    2.048313  
      13B3u    2.048313    14B3u    2.103364    18B2u    2.103364  
       8B1u    2.225002     7B3g    2.282364     5B2g    2.282364  
      15B3u    2.284259    20Ag     2.291634    13B1g    2.291634  
      14B1g    2.384168    19B2u    2.458598    16B3u    2.458598  
      20B2u    2.468137     8B3g    2.627564     6B2g    2.627564  
      15B1g    2.655064    21Ag     2.655065     5Au     2.672579  
       9B1u    2.672579     9B3g    2.893582    16B1g    2.946502  
      22Ag     2.946502     6Au     2.988936    23Ag     3.079498  
      21B2u    3.085754    17B3u    3.085755    18B3u    3.229413  
      22B2u    3.229413    23B2u    3.241836    24Ag     3.497679  
      17B1g    3.497680    18B1g    3.628413    24B2u    4.053617  

    Final Occupation by Irrep:
             Ag   B1g   B2g   B3g    Au   B1u   B2u   B3u 
    DOCC [     6,    3,    1,    1,    0,    1,    5,    4 ]

  @DF-RHF Final Energy:  -230.53543239736706

   => Energetics <=

    Nuclear Repulsion Energy =            203.1535096598020687
    One-Electron Energy =                -712.3428645637922045
    Two-Electron Energy =                 278.6539225066230756
    Total Energy =                       -230.5354323973670603

Computation Completed


Properties will be evaluated at   0.000000,   0.000000,   0.000000 [a0]

Properties computed using the SCF density matrix

  Nuclear Dipole Moment: [e a0]
     X:     0.0000      Y:     0.0000      Z:     0.0000

  Electronic Dipole Moment: [e a0]
     X:     0.0000      Y:     0.0000      Z:     0.0000

  Dipole Moment: [e a0]
     X:     0.0000      Y:     0.0000      Z:     0.0000     Total:     0.0000

  Dipole Moment: [D]
     X:     0.0000      Y:     0.0000      Z:     0.0000     Total:     0.0000


*** tstop() called on Yorks-Mac.local at Sat Mar 21 22:23:26 2020
Module time:
	user time   =       2.39 seconds =       0.04 minutes
	system time =       0.07 seconds =       0.00 minutes
	total time  =          2 seconds =       0.03 minutes
Total time:
	user time   =       2.39 seconds =       0.04 minutes
	system time =       0.07 seconds =       0.00 minutes
	total time  =          2 seconds =       0.03 minutes
    DF-SCF(RHF) energy................................................PASSED

Scratch directory: /Users/york/scratch/psi4/

 Data is an array -> call again
 Data is an array -> call again
 Data is an array -> call again
 Data is an array -> call again
 Data is an array -> call again
 Data is an array -> call again
 Data is an array -> call again
 Data is an array -> call again
 Data is an array -> call again
 Data is an array -> call again
 Data is an array -> call again
 Data is an array -> call again   => Loading Basis Set <=

    Name: DEF2-SVP-RI
    Role: RIFIT
    Keyword: DF_BASIS_MP2
    atoms 1-6  entry H          line    22 file /Users/york/src/psi4group/psi4/share/psi4/basis/def2-svp-ri.gbs 
    atoms 7-12 entry C          line   153 file /Users/york/src/psi4group/psi4/share/psi4/basis/def2-svp-ri.gbs 

   => Loading Basis Set <=

    Name: STO-3G
    Role: ORBITAL
    Keyword: MINAO_BASIS
    atoms 1-6  entry H          line    19 file /Users/york/src/psi4group/psi4/share/psi4/basis/sto-3g.gbs 
    atoms 7-12 entry C          line    61 file /Users/york/src/psi4group/psi4/share/psi4/basis/sto-3g.gbs 


  Forte
  ----------------------------------------------------------------------------
  A suite of quantum chemistry methods for strongly correlated electrons

    git branch: spin-adapted-dsrg - git commit: f405f75d

  Developed by:
    Francesco A. Evangelista, Chenyang Li, Kevin P. Hannon,
    Jeffrey B. Schriber, Tianyuan Zhang, Chenxi Cai,
    Nan He, Nicholas Stair, Shuhe Wang, Renke Huang
  ----------------------------------------------------------------------------

  Size of Determinant class: 128 bits
  Read options for space FROZEN_DOCC
  Read options for space RESTRICTED_DOCC
  Read options for space ACTIVE

  ==> MO Space Information <==

  -------------------------------------------------------------------------
                       Ag   B1g   B2g   B3g    Au   B1u   B2u   B3u   Sum
  -------------------------------------------------------------------------
    FROZEN_DOCC         2     1     0     0     0     0     2     1     6
    RESTRICTED_DOCC     4     2     0     0     0     0     3     3    12
    ACTIVE              0     0     1     2     1     2     0     0     6
    RESTRICTED_UOCC    18    15     5     7     5     7    19    14    90
    FROZEN_UOCC         0     0     0     0     0     0     0     0     0
    Total              24    18     6     9     6     9    24    18   114
  -------------------------------------------------------------------------
  State Quintet Ag (Ms = -2) weights:
      0.011764705882
      0.011764705882
  State Triplet Ag (Ms = -1) weights:
      0.009803921569
      0.009803921569
  State Quintet Ag (Ms = -1) weights:
      0.011764705882
      0.011764705882
  State Singlet Ag (Ms = 0) weights:
      0.117647058824
      0.235294117647
  State Singlet B1g (Ms = 0) weights:
      0.235294117647
  State Singlet B2u (Ms = 0) weights:
      0.000000000000
      0.117647058824
  State Singlet B3u (Ms = 0) weights:
      0.000000000000
      0.117647058824
  State Triplet Ag (Ms = 0) weights:
      0.009803921569
      0.009803921569
  State Quintet Ag (Ms = 0) weights:
      0.011764705882
      0.011764705882
  State Triplet Ag (Ms = 1) weights:
      0.009803921569
      0.009803921569
  State Quintet Ag (Ms = 1) weights:
      0.011764705882
      0.011764705882
  State Quintet Ag (Ms = 2) weights:
      0.011764705882
      0.011764705882

  ==> Integral Transformation <==

  Number of molecular orbitals:                   114
  Number of correlated molecular orbitals:        108
  Number of frozen occupied orbitals:               6
  Number of frozen unoccupied orbitals:             0
  Two-electron integral type:              Density fitting


  Computing Density fitted integrals 

  Number of auxiliary basis functions:  372
  Need 38.68 MB to store DF integrals
  DFHelper Memory: AOs need 0.039 GiB; user supplied 1.907 GiB. Using in-core AOs.


  Transforming DF Integrals            ......Done.
  Timing for density-fitting transformation:                  0.254 s.
  DFHelper Memory: AOs need 0.039 GiB; user supplied 5.960 GiB. Using in-core AOs.


  Frozen-core energy           -294.244679441311 a.u.
  Timing for frozen one-body operator:                        0.708 s.
  Resorting integrals after freezing core.
  Timing for resorting DF integrals:                          0.169 s.
  Timing for freezing core and virtual orbitals:              0.881 s.
  Timing for computing density-fitted integrals:              1.913 s.

  ==> Summary of Active Space Solver Input <==

    Irrep.  Multi.(2ms)      N
    --------------------------
       Ag      5  ( -4)      2
       Ag      3  ( -2)      2
       Ag      5  ( -2)      2
       Ag      1  (  0)      2
      B1g      1  (  0)      1
      B2u      1  (  0)      2
      B3u      1  (  0)      2
       Ag      3  (  0)      2
       Ag      5  (  0)      2
       Ag      3  (  2)      2
       Ag      5  (  2)      2
       Ag      5  (  4)      2
    --------------------------
    N: number of roots
    ms: spin z component
    Total number of roots:  23
    --------------------------


              ---------------------------------------------------
                Complete Active Space Configuration Interaction
                                  Chenyang Li
              ---------------------------------------------------


  ==> Input Summary <==

    No. a electrons in active      =     1
    No. b electrons in active      =     5
    multiplicity                   =     5
    spin ms (2 * Sz)               =    -4

  ==> Orbital Spaces <==

    TOTAL MO                      [   24    18     6     9     6     9    24    18 ]
    FROZEN CORE                   [    2     1     0     0     0     0     2     1 ]
    FROZEN VIRTUAL                [    0     0     0     0     0     0     0     0 ]
    CORRELATED MO                 [   22    17     6     9     6     9    22    17 ]
    CORE                          [    4     2     0     0     0     0     3     3 ]
    ACTIVE                        [    0     0     1     2     1     2     0     0 ]
    VIRTUAL                       [   18    15     5     7     5     7    19    14 ]
  Continue to the next symmetry block: No need to find the solution for ms = -4 / 2 < 0.

              ---------------------------------------------------
                Complete Active Space Configuration Interaction
                                  Chenyang Li
              ---------------------------------------------------


  ==> Input Summary <==

    No. a electrons in active      =     2
    No. b electrons in active      =     4
    multiplicity                   =     3
    spin ms (2 * Sz)               =    -2

  ==> Orbital Spaces <==

    TOTAL MO                      [   24    18     6     9     6     9    24    18 ]
    FROZEN CORE                   [    2     1     0     0     0     0     2     1 ]
    FROZEN VIRTUAL                [    0     0     0     0     0     0     0     0 ]
    CORRELATED MO                 [   22    17     6     9     6     9    22    17 ]
    CORE                          [    4     2     0     0     0     0     3     3 ]
    ACTIVE                        [    0     0     1     2     1     2     0     0 ]
    VIRTUAL                       [   18    15     5     7     5     7    19    14 ]
  Continue to the next symmetry block: No need to find the solution for ms = -2 / 2 < 0.

              ---------------------------------------------------
                Complete Active Space Configuration Interaction
                                  Chenyang Li
              ---------------------------------------------------


  ==> Input Summary <==

    No. a electrons in active      =     2
    No. b electrons in active      =     4
    multiplicity                   =     5
    spin ms (2 * Sz)               =    -2

  ==> Orbital Spaces <==

    TOTAL MO                      [   24    18     6     9     6     9    24    18 ]
    FROZEN CORE                   [    2     1     0     0     0     0     2     1 ]
    FROZEN VIRTUAL                [    0     0     0     0     0     0     0     0 ]
    CORRELATED MO                 [   22    17     6     9     6     9    22    17 ]
    CORE                          [    4     2     0     0     0     0     3     3 ]
    ACTIVE                        [    0     0     1     2     1     2     0     0 ]
    VIRTUAL                       [   18    15     5     7     5     7    19    14 ]
  Continue to the next symmetry block: No need to find the solution for ms = -2 / 2 < 0.

              ---------------------------------------------------
                Complete Active Space Configuration Interaction
                                  Chenyang Li
              ---------------------------------------------------


  ==> Input Summary <==

    No. a electrons in active      =     3
    No. b electrons in active      =     3
    multiplicity                   =     1
    spin ms (2 * Sz)               =     0

  ==> Orbital Spaces <==

    TOTAL MO                      [   24    18     6     9     6     9    24    18 ]
    FROZEN CORE                   [    2     1     0     0     0     0     2     1 ]
    FROZEN VIRTUAL                [    0     0     0     0     0     0     0     0 ]
    CORRELATED MO                 [   22    17     6     9     6     9    22    17 ]
    CORE                          [    4     2     0     0     0     0     3     3 ]
    ACTIVE                        [    0     0     1     2     1     2     0     0 ]
    VIRTUAL                       [   18    15     5     7     5     7    19    14 ]
  Forming alpha and beta strings      ...  Done. Timing        0.000089 s
  Forming determinants                ...  Done. Timing        0.000067 s

  ==> Determinants Summary <==

    number of alpha active electrons         =     3
    number of beta active electrons          =     3
    root symmetry (zero based)               =     0
    number of determinants                   =   104


  ==> Determinants |alpha|beta> <==

  |0022020000000000000000000000000000000000000000000000000000000000>
  |0022-+0000000000000000000000000000000000000000000000000000000000>
  |0-+2020000000000000000000000000000000000000000000000000000000000>
  |0-+2-+0000000000000000000000000000000000000000000000000000000000>
  |-0++-20000000000000000000000000000000000000000000000000000000000>
  |--2+0+0000000000000000000000000000000000000000000000000000000000>
  |0022+-0000000000000000000000000000000000000000000000000000000000>
  |0022200000000000000000000000000000000000000000000000000000000000>
  |0-+2+-0000000000000000000000000000000000000000000000000000000000>
  |0-+2200000000000000000000000000000000000000000000000000000000000>
  |-0++2-0000000000000000000000000000000000000000000000000000000000>
  |--2++00000000000000000000000000000000000000000000000000000000000>
  |0+-2020000000000000000000000000000000000000000000000000000000000>
  |0+-2-+0000000000000000000000000000000000000000000000000000000000>
  |0202020000000000000000000000000000000000000000000000000000000000>
  |0202-+0000000000000000000000000000000000000000000000000000000000>
  |-+0+-20000000000000000000000000000000000000000000000000000000000>
  |-2-+0+0000000000000000000000000000000000000000000000000000000000>
  |0+-2+-0000000000000000000000000000000000000000000000000000000000>
  |0+-2200000000000000000000000000000000000000000000000000000000000>
  |0202+-0000000000000000000000000000000000000000000000000000000000>
  |0202200000000000000000000000000000000000000000000000000000000000>
  |-+0+2-0000000000000000000000000000000000000000000000000000000000>
  |-2-++00000000000000000000000000000000000000000000000000000000000>
  |+0--+20000000000000000000000000000000000000000000000000000000000>
  |+0--2+0000000000000000000000000000000000000000000000000000000000>
  |+-0-+20000000000000000000000000000000000000000000000000000000000>
  |+-0-2+0000000000000000000000000000000000000000000000000000000000>
  |2000220000000000000000000000000000000000000000000000000000000000>
  |2--0++0000000000000000000000000000000000000000000000000000000000>
  |++2-0-0000000000000000000000000000000000000000000000000000000000>
  |++2--00000000000000000000000000000000000000000000000000000000000>
  |+2+-0-0000000000000000000000000000000000000000000000000000000000>
  |+2+--00000000000000000000000000000000000000000000000000000000000>
  |2++0--0000000000000000000000000000000000000000000000000000000000>
  |2220000000000000000000000000000000000000000000000000000000000000>
  |0020220000000000000000000000000000000000000000000000000000000000>
  |0-+0220000000000000000000000000000000000000000000000000000000000>
  |-0+-+20000000000000000000000000000000000000000000000000000000000>
  |-0+-2+0000000000000000000000000000000000000000000000000000000000>
  |0+-0220000000000000000000000000000000000000000000000000000000000>
  |0200220000000000000000000000000000000000000000000000000000000000>
  |-+0-+20000000000000000000000000000000000000000000000000000000000>
  |-+0-2+0000000000000000000000000000000000000000000000000000000000>
  |+0-+-20000000000000000000000000000000000000000000000000000000000>
  |+-0+-20000000000000000000000000000000000000000000000000000000000>
  |2002020000000000000000000000000000000000000000000000000000000000>
  |2002-+0000000000000000000000000000000000000000000000000000000000>
  |+0-+2-0000000000000000000000000000000000000000000000000000000000>
  |+-0+2-0000000000000000000000000000000000000000000000000000000000>
  |2002+-0000000000000000000000000000000000000000000000000000000000>
  |2002200000000000000000000000000000000000000000000000000000000000>
  |0002220000000000000000000000000000000000000000000000000000000000>
  |0--2++0000000000000000000000000000000000000000000000000000000000>
  |-0-++20000000000000000000000000000000000000000000000000000000000>
  |-0-+2+0000000000000000000000000000000000000000000000000000000000>
  |--0++20000000000000000000000000000000000000000000000000000000000>
  |--0+2+0000000000000000000000000000000000000000000000000000000000>
  |0++2--0000000000000000000000000000000000000000000000000000000000>
  |0222000000000000000000000000000000000000000000000000000000000000>
  |-+2+0-0000000000000000000000000000000000000000000000000000000000>
  |-+2+-00000000000000000000000000000000000000000000000000000000000>
  |-2++0-0000000000000000000000000000000000000000000000000000000000>
  |-2++-00000000000000000000000000000000000000000000000000000000000>
  |+0+--20000000000000000000000000000000000000000000000000000000000>
  |+-2-0+0000000000000000000000000000000000000000000000000000000000>
  |2020020000000000000000000000000000000000000000000000000000000000>
  |2020-+0000000000000000000000000000000000000000000000000000000000>
  |2-+0020000000000000000000000000000000000000000000000000000000000>
  |2-+0-+0000000000000000000000000000000000000000000000000000000000>
  |+0+-2-0000000000000000000000000000000000000000000000000000000000>
  |+-2-+00000000000000000000000000000000000000000000000000000000000>
  |2020+-0000000000000000000000000000000000000000000000000000000000>
  |2020200000000000000000000000000000000000000000000000000000000000>
  |2-+0+-0000000000000000000000000000000000000000000000000000000000>
  |2-+0200000000000000000000000000000000000000000000000000000000000>
  |++0--20000000000000000000000000000000000000000000000000000000000>
  |+2--0+0000000000000000000000000000000000000000000000000000000000>
  |2+-0020000000000000000000000000000000000000000000000000000000000>
  |2+-0-+0000000000000000000000000000000000000000000000000000000000>
  |2200020000000000000000000000000000000000000000000000000000000000>
  |2200-+0000000000000000000000000000000000000000000000000000000000>
  |++0-2-0000000000000000000000000000000000000000000000000000000000>
  |+2--+00000000000000000000000000000000000000000000000000000000000>
  |2+-0+-0000000000000000000000000000000000000000000000000000000000>
  |2+-0200000000000000000000000000000000000000000000000000000000000>
  |2200+-0000000000000000000000000000000000000000000000000000000000>
  |2200200000000000000000000000000000000000000000000000000000000000>
  |0220020000000000000000000000000000000000000000000000000000000000>
  |0220-+0000000000000000000000000000000000000000000000000000000000>
  |-+2-0+0000000000000000000000000000000000000000000000000000000000>
  |-2+-0+0000000000000000000000000000000000000000000000000000000000>
  |0220+-0000000000000000000000000000000000000000000000000000000000>
  |0220200000000000000000000000000000000000000000000000000000000000>
  |-+2-+00000000000000000000000000000000000000000000000000000000000>
  |-2+-+00000000000000000000000000000000000000000000000000000000000>
  |+-2+0-0000000000000000000000000000000000000000000000000000000000>
  |+-2+-00000000000000000000000000000000000000000000000000000000000>
  |2022000000000000000000000000000000000000000000000000000000000000>
  |2-+2000000000000000000000000000000000000000000000000000000000000>
  |+2-+0-0000000000000000000000000000000000000000000000000000000000>
  |+2-+-00000000000000000000000000000000000000000000000000000000000>
  |2+-2000000000000000000000000000000000000000000000000000000000000>
  |2202000000000000000000000000000000000000000000000000000000000000>

  Diagonalizing Hamiltonian           ...

  ==> Computing Coupling Lists <==
  --------------------------------
        α          0.000677 s
        β          0.000650 s
        αα         0.000629 s
        ββ         0.000610 s
        αβ         0.001428 s
  --------------------------------

  Davidson-Liu solver algorithm using SigmaVectorSparseList sigma algorithm
  Found 52 roots with 2S+1 = 1 *
  Found 42 roots with 2S+1 = 3
  Found 10 roots with 2S+1 = 5  Done. Timing        0.018602 s

  * * * * * * * * * * * * * * * * *
  *  CI Vectors & Configurations  *
  * * * * * * * * * * * * * * * * *

  ==> Root No. 0 <==

    2 20 0 20          0.9541598092
    0 20 2 20         -0.1302722479
    2 00 0 22         -0.1302721082
    a b0 a 2b          0.0835357894
    b a0 b 2a          0.0835357894
    a a0 b 2b          0.0782424578
    b b0 a 2a          0.0782424578
    b 2a b a0         -0.0532691182
    a 2b a b0         -0.0532691182
    2 ab 0 ba         -0.0532690993
    2 ba 0 ab         -0.0532690993

    Total Energy:   -230.593826971687292


  ==> Root No. 1 <==

    2 00 0 22         -0.4412652096
    2 20 0 ab         -0.4192965608
    2 20 0 ba         -0.4192965608
    2 ab 0 20          0.2696075360
    2 ba 0 20          0.2696075360
    0 20 0 22          0.2058071003
    a b0 b 2a         -0.1696490046
    b a0 a 2b         -0.1696490046
    a b0 a 2b         -0.1696489298
    b a0 b 2a         -0.1696489298
    2 00 2 20          0.1334908266
    2 20 2 00         -0.1083099916
    2 20 0 02          0.1083098435
    0 20 2 20          0.1019678733
    0 22 0 20         -0.0861634559
    2 02 0 20          0.0861633381
    2 00 2 ba          0.0659543812
    2 00 2 ab          0.0659543812
    b b0 a a2          0.0634704828
    a a0 b b2          0.0634704828
    b 2b a a0         -0.0616092029
    a 2a b b0         -0.0616092029
    2 aa 0 bb         -0.0616091727
    2 bb 0 aa         -0.0616091727
    b 2a a b0          0.0568077318
    a 2b b a0          0.0568077318
    2 ab 0 ab         -0.0568076693
    2 ba 0 ba         -0.0568076693
    b 0b a 2a         -0.0565730890
    a 0a b 2b         -0.0565730890
    0 ab 0 22         -0.0547009412
    0 ba 0 22         -0.0547009412
    a b0 a b2          0.0507883888
    b a0 b a2          0.0507883888

    Total Energy:   -230.284956886946418



  ==> Permanent Dipole Moments (Ag) <==

  Only print nonzero (> 1.0e-5) elements.


  ==> Transition Dipole Moments (Ag -> Ag) <==

  Only print nonzero (> 1.0e-5) elements.


  ==> Oscillator Strength (Ag -> Ag) <==

  Only print nonzero (> 1.0e-5) elements.


              ---------------------------------------------------
                Complete Active Space Configuration Interaction
                                  Chenyang Li
              ---------------------------------------------------


  ==> Input Summary <==

    No. a electrons in active      =     3
    No. b electrons in active      =     3
    multiplicity                   =     1
    spin ms (2 * Sz)               =     0

  ==> Orbital Spaces <==

    TOTAL MO                      [   24    18     6     9     6     9    24    18 ]
    FROZEN CORE                   [    2     1     0     0     0     0     2     1 ]
    FROZEN VIRTUAL                [    0     0     0     0     0     0     0     0 ]
    CORRELATED MO                 [   22    17     6     9     6     9    22    17 ]
    CORE                          [    4     2     0     0     0     0     3     3 ]
    ACTIVE                        [    0     0     1     2     1     2     0     0 ]
    VIRTUAL                       [   18    15     5     7     5     7    19    14 ]
  Forming alpha and beta strings      ...  Done. Timing        0.000061 s
  Forming determinants                ...  Done. Timing        0.000045 s

  ==> Determinants Summary <==

    number of alpha active electrons         =     3
    number of beta active electrons          =     3
    root symmetry (zero based)               =     1
    number of determinants                   =    96


  ==> Determinants |alpha|beta> <==

  |002+-20000000000000000000000000000000000000000000000000000000000>
  |0-++-20000000000000000000000000000000000000000000000000000000000>
  |-0+2020000000000000000000000000000000000000000000000000000000000>
  |-0+2-+0000000000000000000000000000000000000000000000000000000000>
  |002+2-0000000000000000000000000000000000000000000000000000000000>
  |0-++2-0000000000000000000000000000000000000000000000000000000000>
  |-0+2+-0000000000000000000000000000000000000000000000000000000000>
  |-0+2200000000000000000000000000000000000000000000000000000000000>
  |0+-+-20000000000000000000000000000000000000000000000000000000000>
  |020+-20000000000000000000000000000000000000000000000000000000000>
  |-+02020000000000000000000000000000000000000000000000000000000000>
  |-+02-+0000000000000000000000000000000000000000000000000000000000>
  |0+-+2-0000000000000000000000000000000000000000000000000000000000>
  |020+2-0000000000000000000000000000000000000000000000000000000000>
  |-+02+-0000000000000000000000000000000000000000000000000000000000>
  |-+02200000000000000000000000000000000000000000000000000000000000>
  |+0-0220000000000000000000000000000000000000000000000000000000000>
  |+-00220000000000000000000000000000000000000000000000000000000000>
  |200-+20000000000000000000000000000000000000000000000000000000000>
  |200-2+0000000000000000000000000000000000000000000000000000000000>
  |++20--0000000000000000000000000000000000000000000000000000000000>
  |+2+0--0000000000000000000000000000000000000000000000000000000000>
  |2++-0-0000000000000000000000000000000000000000000000000000000000>
  |2++--00000000000000000000000000000000000000000000000000000000000>
  |002-+20000000000000000000000000000000000000000000000000000000000>
  |002-2+0000000000000000000000000000000000000000000000000000000000>
  |0-+-+20000000000000000000000000000000000000000000000000000000000>
  |0-+-2+0000000000000000000000000000000000000000000000000000000000>
  |-0+0220000000000000000000000000000000000000000000000000000000000>
  |--20++0000000000000000000000000000000000000000000000000000000000>
  |0+--+20000000000000000000000000000000000000000000000000000000000>
  |0+--2+0000000000000000000000000000000000000000000000000000000000>
  |020-+20000000000000000000000000000000000000000000000000000000000>
  |020-2+0000000000000000000000000000000000000000000000000000000000>
  |-+00220000000000000000000000000000000000000000000000000000000000>
  |-2-0++0000000000000000000000000000000000000000000000000000000000>
  |+0-2020000000000000000000000000000000000000000000000000000000000>
  |+0-2-+0000000000000000000000000000000000000000000000000000000000>
  |+-02020000000000000000000000000000000000000000000000000000000000>
  |+-02-+0000000000000000000000000000000000000000000000000000000000>
  |200+-20000000000000000000000000000000000000000000000000000000000>
  |2--+0+0000000000000000000000000000000000000000000000000000000000>
  |+0-2+-0000000000000000000000000000000000000000000000000000000000>
  |+0-2200000000000000000000000000000000000000000000000000000000000>
  |+-02+-0000000000000000000000000000000000000000000000000000000000>
  |+-02200000000000000000000000000000000000000000000000000000000000>
  |200+2-0000000000000000000000000000000000000000000000000000000000>
  |2--++00000000000000000000000000000000000000000000000000000000000>
  |0--++20000000000000000000000000000000000000000000000000000000000>
  |0--+2+0000000000000000000000000000000000000000000000000000000000>
  |-0-2++0000000000000000000000000000000000000000000000000000000000>
  |--02++0000000000000000000000000000000000000000000000000000000000>
  |022+0-0000000000000000000000000000000000000000000000000000000000>
  |022+-00000000000000000000000000000000000000000000000000000000000>
  |-+22000000000000000000000000000000000000000000000000000000000000>
  |-2+2000000000000000000000000000000000000000000000000000000000000>
  |+-20020000000000000000000000000000000000000000000000000000000000>
  |+-20-+0000000000000000000000000000000000000000000000000000000000>
  |202-0+0000000000000000000000000000000000000000000000000000000000>
  |2-+-0+0000000000000000000000000000000000000000000000000000000000>
  |+-20+-0000000000000000000000000000000000000000000000000000000000>
  |+-20200000000000000000000000000000000000000000000000000000000000>
  |202-+00000000000000000000000000000000000000000000000000000000000>
  |2-+-+00000000000000000000000000000000000000000000000000000000000>
  |+2-0020000000000000000000000000000000000000000000000000000000000>
  |+2-0-+0000000000000000000000000000000000000000000000000000000000>
  |2+--0+0000000000000000000000000000000000000000000000000000000000>
  |220-0+0000000000000000000000000000000000000000000000000000000000>
  |+2-0+-0000000000000000000000000000000000000000000000000000000000>
  |+2-0200000000000000000000000000000000000000000000000000000000000>
  |2+--+00000000000000000000000000000000000000000000000000000000000>
  |220-+00000000000000000000000000000000000000000000000000000000000>
  |0++--20000000000000000000000000000000000000000000000000000000000>
  |022-0+0000000000000000000000000000000000000000000000000000000000>
  |-+20020000000000000000000000000000000000000000000000000000000000>
  |-+20-+0000000000000000000000000000000000000000000000000000000000>
  |-2+0020000000000000000000000000000000000000000000000000000000000>
  |-2+0-+0000000000000000000000000000000000000000000000000000000000>
  |0++-2-0000000000000000000000000000000000000000000000000000000000>
  |022-+00000000000000000000000000000000000000000000000000000000000>
  |-+20+-0000000000000000000000000000000000000000000000000000000000>
  |-+20200000000000000000000000000000000000000000000000000000000000>
  |-2+0+-0000000000000000000000000000000000000000000000000000000000>
  |-2+0200000000000000000000000000000000000000000000000000000000000>
  |+0+2--0000000000000000000000000000000000000000000000000000000000>
  |+-22000000000000000000000000000000000000000000000000000000000000>
  |202+0-0000000000000000000000000000000000000000000000000000000000>
  |202+-00000000000000000000000000000000000000000000000000000000000>
  |2-++0-0000000000000000000000000000000000000000000000000000000000>
  |2-++-00000000000000000000000000000000000000000000000000000000000>
  |++02--0000000000000000000000000000000000000000000000000000000000>
  |+2-2000000000000000000000000000000000000000000000000000000000000>
  |2+-+0-0000000000000000000000000000000000000000000000000000000000>
  |2+-+-00000000000000000000000000000000000000000000000000000000000>
  |220+0-0000000000000000000000000000000000000000000000000000000000>
  |220+-00000000000000000000000000000000000000000000000000000000000>

  Diagonalizing Hamiltonian           ...

  ==> Computing Coupling Lists <==
  --------------------------------
        α          0.000498 s
        β          0.000494 s
        αα         0.000475 s
        ββ         0.000471 s
        αβ         0.001094 s
  --------------------------------

  Davidson-Liu solver algorithm using SigmaVectorSparseList sigma algorithm
  Found 40 roots with 2S+1 = 1 *
  Found 48 roots with 2S+1 = 3
  Found 8 roots with 2S+1 = 5  Done. Timing        0.010632 s

  * * * * * * * * * * * * * * * * *
  *  CI Vectors & Configurations  *
  * * * * * * * * * * * * * * * * *

  ==> Root No. 0 <==

    2 20 a b0         -0.4192964793
    2 20 b a0         -0.4192964793
    a b0 2 20          0.3235362467
    b a0 2 20          0.3235362467
    0 20 a 2b         -0.2873781866
    0 20 b 2a         -0.2873781866
    b 2a 0 20          0.2696076132
    a 2b 0 20          0.2696076132
    2 20 b 0a         -0.1083098905
    2 20 a 0b         -0.1083098905
    a b2 0 20         -0.0861633773
    b a2 0 20         -0.0861633773
    0 20 b a2          0.0659543608
    0 20 a b2          0.0659543608
    a a0 2 bb          0.0634704770
    b b0 2 aa          0.0634704770
    2 bb a a0         -0.0616091733
    2 aa b b0         -0.0616091733
    a 2a 0 bb          0.0616091711
    b 2b 0 aa          0.0616091711
    b 2a 0 ba          0.0568076753
    a 2b 0 ab          0.0568076753
    2 ba a b0          0.0568076742
    2 ab b a0          0.0568076742
    0 aa b 2b         -0.0565730859
    0 bb a 2a         -0.0565730859
    a 0b 2 20          0.0547009328
    b 0a 2 20          0.0547009328
    2 00 b 2a          0.0519196094
    2 00 a 2b          0.0519196094
    b a0 2 ba          0.0507883951
    a b0 2 ab          0.0507883951

    Total Energy:   -230.284957006182253



  ==> Permanent Dipole Moments (B1g) <==

  Only print nonzero (> 1.0e-5) elements.


              ---------------------------------------------------
                Complete Active Space Configuration Interaction
                                  Chenyang Li
              ---------------------------------------------------


  ==> Input Summary <==

    No. a electrons in active      =     3
    No. b electrons in active      =     3
    multiplicity                   =     1
    spin ms (2 * Sz)               =     0

  ==> Orbital Spaces <==

    TOTAL MO                      [   24    18     6     9     6     9    24    18 ]
    FROZEN CORE                   [    2     1     0     0     0     0     2     1 ]
    FROZEN VIRTUAL                [    0     0     0     0     0     0     0     0 ]
    CORRELATED MO                 [   22    17     6     9     6     9    22    17 ]
    CORE                          [    4     2     0     0     0     0     3     3 ]
    ACTIVE                        [    0     0     1     2     1     2     0     0 ]
    VIRTUAL                       [   18    15     5     7     5     7    19    14 ]
  Forming alpha and beta strings      ...  Done. Timing        0.000058 s
  Forming determinants                ...  Done. Timing        0.000047 s

  ==> Determinants Summary <==

    number of alpha active electrons         =     3
    number of beta active electrons          =     3
    root symmetry (zero based)               =     6
    number of determinants                   =   104


  ==> Determinants |alpha|beta> <==

  |00+2-20000000000000000000000000000000000000000000000000000000000>
  |0-220+0000000000000000000000000000000000000000000000000000000000>
  |-02+020000000000000000000000000000000000000000000000000000000000>
  |-02+-+0000000000000000000000000000000000000000000000000000000000>
  |--++020000000000000000000000000000000000000000000000000000000000>
  |--++-+0000000000000000000000000000000000000000000000000000000000>
  |00+22-0000000000000000000000000000000000000000000000000000000000>
  |0-22+00000000000000000000000000000000000000000000000000000000000>
  |-02++-0000000000000000000000000000000000000000000000000000000000>
  |-02+200000000000000000000000000000000000000000000000000000000000>
  |--+++-0000000000000000000000000000000000000000000000000000000000>
  |--++200000000000000000000000000000000000000000000000000000000000>
  |0+02-20000000000000000000000000000000000000000000000000000000000>
  |02-20+0000000000000000000000000000000000000000000000000000000000>
  |-+-+020000000000000000000000000000000000000000000000000000000000>
  |-+-+-+0000000000000000000000000000000000000000000000000000000000>
  |-20+020000000000000000000000000000000000000000000000000000000000>
  |-20+-+0000000000000000000000000000000000000000000000000000000000>
  |0+022-0000000000000000000000000000000000000000000000000000000000>
  |02-2+00000000000000000000000000000000000000000000000000000000000>
  |-+-++-0000000000000000000000000000000000000000000000000000000000>
  |-+-+200000000000000000000000000000000000000000000000000000000000>
  |-20++-0000000000000000000000000000000000000000000000000000000000>
  |-20+200000000000000000000000000000000000000000000000000000000000>
  |+00-220000000000000000000000000000000000000000000000000000000000>
  |+---++0000000000000000000000000000000000000000000000000000000000>
  |20-0+20000000000000000000000000000000000000000000000000000000000>
  |20-02+0000000000000000000000000000000000000000000000000000000000>
  |2-00+20000000000000000000000000000000000000000000000000000000000>
  |2-002+0000000000000000000000000000000000000000000000000000000000>
  |+++---0000000000000000000000000000000000000000000000000000000000>
  |+22-000000000000000000000000000000000000000000000000000000000000>
  |2+200-0000000000000000000000000000000000000000000000000000000000>
  |2+20-00000000000000000000000000000000000000000000000000000000000>
  |22+00-0000000000000000000000000000000000000000000000000000000000>
  |22+0-00000000000000000000000000000000000000000000000000000000000>
  |0-20+20000000000000000000000000000000000000000000000000000000000>
  |0-202+0000000000000000000000000000000000000000000000000000000000>
  |-02-++0000000000000000000000000000000000000000000000000000000000>
  |--+-++0000000000000000000000000000000000000000000000000000000000>
  |02-0+20000000000000000000000000000000000000000000000000000000000>
  |02-02+0000000000000000000000000000000000000000000000000000000000>
  |-+--++0000000000000000000000000000000000000000000000000000000000>
  |-20-++0000000000000000000000000000000000000000000000000000000000>
  |+--+020000000000000000000000000000000000000000000000000000000000>
  |+--+-+0000000000000000000000000000000000000000000000000000000000>
  |20-20+0000000000000000000000000000000000000000000000000000000000>
  |2-020+0000000000000000000000000000000000000000000000000000000000>
  |+--++-0000000000000000000000000000000000000000000000000000000000>
  |+--+200000000000000000000000000000000000000000000000000000000000>
  |20-2+00000000000000000000000000000000000000000000000000000000000>
  |2-02+00000000000000000000000000000000000000000000000000000000000>
  |00-2+20000000000000000000000000000000000000000000000000000000000>
  |00-22+0000000000000000000000000000000000000000000000000000000000>
  |0-02+20000000000000000000000000000000000000000000000000000000000>
  |0-022+0000000000000000000000000000000000000000000000000000000000>
  |-00+220000000000000000000000000000000000000000000000000000000000>
  |---+++0000000000000000000000000000000000000000000000000000000000>
  |0+220-0000000000000000000000000000000000000000000000000000000000>
  |0+22-00000000000000000000000000000000000000000000000000000000000>
  |02+20-0000000000000000000000000000000000000000000000000000000000>
  |02+2-00000000000000000000000000000000000000000000000000000000000>
  |-+++--0000000000000000000000000000000000000000000000000000000000>
  |-22+000000000000000000000000000000000000000000000000000000000000>
  |+02-020000000000000000000000000000000000000000000000000000000000>
  |+02--+0000000000000000000000000000000000000000000000000000000000>
  |+-+-020000000000000000000000000000000000000000000000000000000000>
  |+-+--+0000000000000000000000000000000000000000000000000000000000>
  |20+0-20000000000000000000000000000000000000000000000000000000000>
  |2-200+0000000000000000000000000000000000000000000000000000000000>
  |+02-+-0000000000000000000000000000000000000000000000000000000000>
  |+02-200000000000000000000000000000000000000000000000000000000000>
  |+-+-+-0000000000000000000000000000000000000000000000000000000000>
  |+-+-200000000000000000000000000000000000000000000000000000000000>
  |20+02-0000000000000000000000000000000000000000000000000000000000>
  |2-20+00000000000000000000000000000000000000000000000000000000000>
  |++--020000000000000000000000000000000000000000000000000000000000>
  |++---+0000000000000000000000000000000000000000000000000000000000>
  |+20-020000000000000000000000000000000000000000000000000000000000>
  |+20--+0000000000000000000000000000000000000000000000000000000000>
  |2+00-20000000000000000000000000000000000000000000000000000000000>
  |22-00+0000000000000000000000000000000000000000000000000000000000>
  |++--+-0000000000000000000000000000000000000000000000000000000000>
  |++--200000000000000000000000000000000000000000000000000000000000>
  |+20-+-0000000000000000000000000000000000000000000000000000000000>
  |+20-200000000000000000000000000000000000000000000000000000000000>
  |2+002-0000000000000000000000000000000000000000000000000000000000>
  |22-0+00000000000000000000000000000000000000000000000000000000000>
  |0+20-20000000000000000000000000000000000000000000000000000000000>
  |02+0-20000000000000000000000000000000000000000000000000000000000>
  |-++-020000000000000000000000000000000000000000000000000000000000>
  |-++--+0000000000000000000000000000000000000000000000000000000000>
  |0+202-0000000000000000000000000000000000000000000000000000000000>
  |02+02-0000000000000000000000000000000000000000000000000000000000>
  |-++-+-0000000000000000000000000000000000000000000000000000000000>
  |-++-200000000000000000000000000000000000000000000000000000000000>
  |+02+--0000000000000000000000000000000000000000000000000000000000>
  |+-++--0000000000000000000000000000000000000000000000000000000000>
  |20+20-0000000000000000000000000000000000000000000000000000000000>
  |20+2-00000000000000000000000000000000000000000000000000000000000>
  |++-+--0000000000000000000000000000000000000000000000000000000000>
  |+20+--0000000000000000000000000000000000000000000000000000000000>
  |2+020-0000000000000000000000000000000000000000000000000000000000>
  |2+02-00000000000000000000000000000000000000000000000000000000000>

  Diagonalizing Hamiltonian           ...

  ==> Computing Coupling Lists <==
  --------------------------------
        α          0.000531 s
        β          0.000528 s
        αα         0.000502 s
        ββ         0.000495 s
        αβ         0.001241 s
  --------------------------------

  Davidson-Liu solver algorithm using SigmaVectorSparseList sigma algorithm
  Found 43 roots with 2S+1 = 1 *
  Found 51 roots with 2S+1 = 3
  Found 9 roots with 2S+1 = 5
  Found 1 roots with 2S+1 = 7  Done. Timing        0.015370 s

  * * * * * * * * * * * * * * * * *
  *  CI Vectors & Configurations  *
  * * * * * * * * * * * * * * * * *

  ==> Root No. 0 <==

    a 20 b 20         -0.4879078260
    b 20 a 20         -0.4879078260
    2 a0 0 2b          0.4879066190
    2 b0 0 2a          0.4879066190
    2 a0 2 b0          0.0633327620
    2 b0 2 a0          0.0633327620
    a 20 a bb         -0.0633326562
    b 20 b aa         -0.0633326562
    b 20 a ab          0.0633326230
    a 20 b ba          0.0633326230
    2 a0 0 b2          0.0633325409
    2 b0 0 a2          0.0633325409

    Total Energy:   -230.310295997065452


  ==> Root No. 1 <==

    2 b0 0 2a         -0.4721367852
    2 a0 0 2b         -0.4721367852
    a 20 b 20         -0.4721355627
    b 20 a 20         -0.4721355627
    2 a0 2 b0          0.0999889085
    2 b0 2 a0          0.0999889085
    0 a0 2 2b         -0.0926764448
    0 b0 2 2a         -0.0926764448
    a 00 b 22         -0.0926763534
    b 00 a 22         -0.0926763534
    0 2b 0 2a          0.0799916538
    0 2a 0 2b          0.0799916538
    2 b0 0 a2         -0.0655474218
    2 a0 0 b2         -0.0655474218
    b ab a 20          0.0538875215
    a ba b 20          0.0538875215

    Total Energy:   -230.255273498327313



  ==> Permanent Dipole Moments (B2u) <==

  Only print nonzero (> 1.0e-5) elements.


  ==> Transition Dipole Moments (B2u -> B2u) <==

  Only print nonzero (> 1.0e-5) elements.


  ==> Oscillator Strength (B2u -> B2u) <==

  Only print nonzero (> 1.0e-5) elements.


              ---------------------------------------------------
                Complete Active Space Configuration Interaction
                                  Chenyang Li
              ---------------------------------------------------


  ==> Input Summary <==

    No. a electrons in active      =     3
    No. b electrons in active      =     3
    multiplicity                   =     1
    spin ms (2 * Sz)               =     0

  ==> Orbital Spaces <==

    TOTAL MO                      [   24    18     6     9     6     9    24    18 ]
    FROZEN CORE                   [    2     1     0     0     0     0     2     1 ]
    FROZEN VIRTUAL                [    0     0     0     0     0     0     0     0 ]
    CORRELATED MO                 [   22    17     6     9     6     9    22    17 ]
    CORE                          [    4     2     0     0     0     0     3     3 ]
    ACTIVE                        [    0     0     1     2     1     2     0     0 ]
    VIRTUAL                       [   18    15     5     7     5     7    19    14 ]
  Forming alpha and beta strings      ...  Done. Timing        0.000059 s
  Forming determinants                ...  Done. Timing        0.000045 s

  ==> Determinants Summary <==

    number of alpha active electrons         =     3
    number of beta active electrons          =     3
    root symmetry (zero based)               =     7
    number of determinants                   =    96


  ==> Determinants |alpha|beta> <==

  |0-2+020000000000000000000000000000000000000000000000000000000000>
  |0-2+-+0000000000000000000000000000000000000000000000000000000000>
  |-0220+0000000000000000000000000000000000000000000000000000000000>
  |--+20+0000000000000000000000000000000000000000000000000000000000>
  |0-2++-0000000000000000000000000000000000000000000000000000000000>
  |0-2+200000000000000000000000000000000000000000000000000000000000>
  |-022+00000000000000000000000000000000000000000000000000000000000>
  |--+2+00000000000000000000000000000000000000000000000000000000000>
  |02-+020000000000000000000000000000000000000000000000000000000000>
  |02-+-+0000000000000000000000000000000000000000000000000000000000>
  |-+-20+0000000000000000000000000000000000000000000000000000000000>
  |-2020+0000000000000000000000000000000000000000000000000000000000>
  |02-++-0000000000000000000000000000000000000000000000000000000000>
  |02-+200000000000000000000000000000000000000000000000000000000000>
  |-+-2+00000000000000000000000000000000000000000000000000000000000>
  |-202+00000000000000000000000000000000000000000000000000000000000>
  |+--0+20000000000000000000000000000000000000000000000000000000000>
  |+--02+0000000000000000000000000000000000000000000000000000000000>
  |20--++0000000000000000000000000000000000000000000000000000000000>
  |2-0-++0000000000000000000000000000000000000000000000000000000000>
  |+2200-0000000000000000000000000000000000000000000000000000000000>
  |+220-00000000000000000000000000000000000000000000000000000000000>
  |2+2-000000000000000000000000000000000000000000000000000000000000>
  |22+-000000000000000000000000000000000000000000000000000000000000>
  |00+-220000000000000000000000000000000000000000000000000000000000>
  |0-2-++0000000000000000000000000000000000000000000000000000000000>
  |-020+20000000000000000000000000000000000000000000000000000000000>
  |-0202+0000000000000000000000000000000000000000000000000000000000>
  |--+0+20000000000000000000000000000000000000000000000000000000000>
  |--+02+0000000000000000000000000000000000000000000000000000000000>
  |0+0-220000000000000000000000000000000000000000000000000000000000>
  |02--++0000000000000000000000000000000000000000000000000000000000>
  |-+-0+20000000000000000000000000000000000000000000000000000000000>
  |-+-02+0000000000000000000000000000000000000000000000000000000000>
  |-200+20000000000000000000000000000000000000000000000000000000000>
  |-2002+0000000000000000000000000000000000000000000000000000000000>
  |+002-20000000000000000000000000000000000000000000000000000000000>
  |+--20+0000000000000000000000000000000000000000000000000000000000>
  |20-+020000000000000000000000000000000000000000000000000000000000>
  |20-+-+0000000000000000000000000000000000000000000000000000000000>
  |2-0+020000000000000000000000000000000000000000000000000000000000>
  |2-0+-+0000000000000000000000000000000000000000000000000000000000>
  |+0022-0000000000000000000000000000000000000000000000000000000000>
  |+--2+00000000000000000000000000000000000000000000000000000000000>
  |20-++-0000000000000000000000000000000000000000000000000000000000>
  |20-+200000000000000000000000000000000000000000000000000000000000>
  |2-0++-0000000000000000000000000000000000000000000000000000000000>
  |2-0+200000000000000000000000000000000000000000000000000000000000>
  |00-+220000000000000000000000000000000000000000000000000000000000>
  |0-0+220000000000000000000000000000000000000000000000000000000000>
  |-002+20000000000000000000000000000000000000000000000000000000000>
  |-0022+0000000000000000000000000000000000000000000000000000000000>
  |0+2+--0000000000000000000000000000000000000000000000000000000000>
  |02++--0000000000000000000000000000000000000000000000000000000000>
  |-++20-0000000000000000000000000000000000000000000000000000000000>
  |-++2-00000000000000000000000000000000000000000000000000000000000>
  |+020-20000000000000000000000000000000000000000000000000000000000>
  |+-+0-20000000000000000000000000000000000000000000000000000000000>
  |20+-020000000000000000000000000000000000000000000000000000000000>
  |20+--+0000000000000000000000000000000000000000000000000000000000>
  |+0202-0000000000000000000000000000000000000000000000000000000000>
  |+-+02-0000000000000000000000000000000000000000000000000000000000>
  |20+-+-0000000000000000000000000000000000000000000000000000000000>
  |20+-200000000000000000000000000000000000000000000000000000000000>
  |++-0-20000000000000000000000000000000000000000000000000000000000>
  |+200-20000000000000000000000000000000000000000000000000000000000>
  |2+0-020000000000000000000000000000000000000000000000000000000000>
  |2+0--+0000000000000000000000000000000000000000000000000000000000>
  |++-02-0000000000000000000000000000000000000000000000000000000000>
  |+2002-0000000000000000000000000000000000000000000000000000000000>
  |2+0-+-0000000000000000000000000000000000000000000000000000000000>
  |2+0-200000000000000000000000000000000000000000000000000000000000>
  |0+2-020000000000000000000000000000000000000000000000000000000000>
  |0+2--+0000000000000000000000000000000000000000000000000000000000>
  |02+-020000000000000000000000000000000000000000000000000000000000>
  |02+--+0000000000000000000000000000000000000000000000000000000000>
  |-++0-20000000000000000000000000000000000000000000000000000000000>
  |-2200+0000000000000000000000000000000000000000000000000000000000>
  |0+2-+-0000000000000000000000000000000000000000000000000000000000>
  |0+2-200000000000000000000000000000000000000000000000000000000000>
  |02+-+-0000000000000000000000000000000000000000000000000000000000>
  |02+-200000000000000000000000000000000000000000000000000000000000>
  |-++02-0000000000000000000000000000000000000000000000000000000000>
  |-220+00000000000000000000000000000000000000000000000000000000000>
  |+0220-0000000000000000000000000000000000000000000000000000000000>
  |+022-00000000000000000000000000000000000000000000000000000000000>
  |+-+20-0000000000000000000000000000000000000000000000000000000000>
  |+-+2-00000000000000000000000000000000000000000000000000000000000>
  |20++--0000000000000000000000000000000000000000000000000000000000>
  |2-2+000000000000000000000000000000000000000000000000000000000000>
  |++-20-0000000000000000000000000000000000000000000000000000000000>
  |++-2-00000000000000000000000000000000000000000000000000000000000>
  |+2020-0000000000000000000000000000000000000000000000000000000000>
  |+202-00000000000000000000000000000000000000000000000000000000000>
  |2+0+--0000000000000000000000000000000000000000000000000000000000>
  |22-+000000000000000000000000000000000000000000000000000000000000>

  Diagonalizing Hamiltonian           ...

  ==> Computing Coupling Lists <==
  --------------------------------
        α          0.000496 s
        β          0.000494 s
        αα         0.000477 s
        ββ         0.000469 s
        αβ         0.001093 s
  --------------------------------

  Davidson-Liu solver algorithm using SigmaVectorSparseList sigma algorithm
  Found 40 roots with 2S+1 = 1 *
  Found 48 roots with 2S+1 = 3
  Found 8 roots with 2S+1 = 5  Done. Timing        0.013074 s

  * * * * * * * * * * * * * * * * *
  *  CI Vectors & Configurations  *
  * * * * * * * * * * * * * * * * *

  ==> Root No. 0 <==

    b 20 0 2a         -0.4542145509
    a 20 0 2b         -0.4542145509
    2 b0 a 20         -0.4542144160
    2 a0 b 20         -0.4542144160
    a 20 2 b0          0.1036867844
    b 20 2 a0          0.1036867844
    b 20 0 a2          0.1036867486
    a 20 0 b2          0.1036867486
    2 a0 a bb          0.1036867224
    2 b0 b aa          0.1036867224
    2 a0 b ba         -0.1036867134
    2 b0 a ab         -0.1036867134
    0 2b a 20          0.0902972416
    0 2a b 20          0.0902972416
    b aa 0 2b          0.0902971951
    a bb 0 2a          0.0902971951
    2 0a b 20         -0.0902971851
    2 0b a 20         -0.0902971851
    b ab 0 2a          0.0902971798
    a ba 0 2b          0.0902971798

    Total Energy:   -230.404946809668957


  ==> Root No. 1 <==

    2 b0 a 20          0.4721362268
    2 a0 b 20          0.4721362268
    a 20 0 2b         -0.4721361149
    b 20 0 2a         -0.4721361149
    a 20 0 b2          0.0999889678
    b 20 0 a2          0.0999889678
    0 b0 a 22         -0.0926764069
    0 a0 b 22         -0.0926764069
    b 00 2 2a          0.0926764055
    a 00 2 2b          0.0926764055
    2 0b a 20          0.0799916836
    2 0a b 20          0.0799916836
    b 20 2 a0         -0.0655474363
    a 20 2 b0         -0.0655474363
    b aa 0 2b          0.0538874661
    a bb 0 2a          0.0538874661

    Total Energy:   -230.255273504974809



  ==> Permanent Dipole Moments (B3u) <==

  Only print nonzero (> 1.0e-5) elements.


  ==> Transition Dipole Moments (B3u -> B3u) <==

  Only print nonzero (> 1.0e-5) elements.


  ==> Oscillator Strength (B3u -> B3u) <==

  Only print nonzero (> 1.0e-5) elements.


              ---------------------------------------------------
                Complete Active Space Configuration Interaction
                                  Chenyang Li
              ---------------------------------------------------


  ==> Input Summary <==

    No. a electrons in active      =     3
    No. b electrons in active      =     3
    multiplicity                   =     3
    spin ms (2 * Sz)               =     0

  ==> Orbital Spaces <==

    TOTAL MO                      [   24    18     6     9     6     9    24    18 ]
    FROZEN CORE                   [    2     1     0     0     0     0     2     1 ]
    FROZEN VIRTUAL                [    0     0     0     0     0     0     0     0 ]
    CORRELATED MO                 [   22    17     6     9     6     9    22    17 ]
    CORE                          [    4     2     0     0     0     0     3     3 ]
    ACTIVE                        [    0     0     1     2     1     2     0     0 ]
    VIRTUAL                       [   18    15     5     7     5     7    19    14 ]
  Forming alpha and beta strings      ...  Done. Timing        0.000062 s
  Forming determinants                ...  Done. Timing        0.000048 s

  ==> Determinants Summary <==

    number of alpha active electrons         =     3
    number of beta active electrons          =     3
    root symmetry (zero based)               =     0
    number of determinants                   =   104


  ==> Determinants |alpha|beta> <==

  |0022020000000000000000000000000000000000000000000000000000000000>
  |0022-+0000000000000000000000000000000000000000000000000000000000>
  |0-+2020000000000000000000000000000000000000000000000000000000000>
  |0-+2-+0000000000000000000000000000000000000000000000000000000000>
  |-0++-20000000000000000000000000000000000000000000000000000000000>
  |--2+0+0000000000000000000000000000000000000000000000000000000000>
  |0022+-0000000000000000000000000000000000000000000000000000000000>
  |0022200000000000000000000000000000000000000000000000000000000000>
  |0-+2+-0000000000000000000000000000000000000000000000000000000000>
  |0-+2200000000000000000000000000000000000000000000000000000000000>
  |-0++2-0000000000000000000000000000000000000000000000000000000000>
  |--2++00000000000000000000000000000000000000000000000000000000000>
  |0+-2020000000000000000000000000000000000000000000000000000000000>
  |0+-2-+0000000000000000000000000000000000000000000000000000000000>
  |0202020000000000000000000000000000000000000000000000000000000000>
  |0202-+0000000000000000000000000000000000000000000000000000000000>
  |-+0+-20000000000000000000000000000000000000000000000000000000000>
  |-2-+0+0000000000000000000000000000000000000000000000000000000000>
  |0+-2+-0000000000000000000000000000000000000000000000000000000000>
  |0+-2200000000000000000000000000000000000000000000000000000000000>
  |0202+-0000000000000000000000000000000000000000000000000000000000>
  |0202200000000000000000000000000000000000000000000000000000000000>
  |-+0+2-0000000000000000000000000000000000000000000000000000000000>
  |-2-++00000000000000000000000000000000000000000000000000000000000>
  |+0--+20000000000000000000000000000000000000000000000000000000000>
  |+0--2+0000000000000000000000000000000000000000000000000000000000>
  |+-0-+20000000000000000000000000000000000000000000000000000000000>
  |+-0-2+0000000000000000000000000000000000000000000000000000000000>
  |2000220000000000000000000000000000000000000000000000000000000000>
  |2--0++0000000000000000000000000000000000000000000000000000000000>
  |++2-0-0000000000000000000000000000000000000000000000000000000000>
  |++2--00000000000000000000000000000000000000000000000000000000000>
  |+2+-0-0000000000000000000000000000000000000000000000000000000000>
  |+2+--00000000000000000000000000000000000000000000000000000000000>
  |2++0--0000000000000000000000000000000000000000000000000000000000>
  |2220000000000000000000000000000000000000000000000000000000000000>
  |0020220000000000000000000000000000000000000000000000000000000000>
  |0-+0220000000000000000000000000000000000000000000000000000000000>
  |-0+-+20000000000000000000000000000000000000000000000000000000000>
  |-0+-2+0000000000000000000000000000000000000000000000000000000000>
  |0+-0220000000000000000000000000000000000000000000000000000000000>
  |0200220000000000000000000000000000000000000000000000000000000000>
  |-+0-+20000000000000000000000000000000000000000000000000000000000>
  |-+0-2+0000000000000000000000000000000000000000000000000000000000>
  |+0-+-20000000000000000000000000000000000000000000000000000000000>
  |+-0+-20000000000000000000000000000000000000000000000000000000000>
  |2002020000000000000000000000000000000000000000000000000000000000>
  |2002-+0000000000000000000000000000000000000000000000000000000000>
  |+0-+2-0000000000000000000000000000000000000000000000000000000000>
  |+-0+2-0000000000000000000000000000000000000000000000000000000000>
  |2002+-0000000000000000000000000000000000000000000000000000000000>
  |2002200000000000000000000000000000000000000000000000000000000000>
  |0002220000000000000000000000000000000000000000000000000000000000>
  |0--2++0000000000000000000000000000000000000000000000000000000000>
  |-0-++20000000000000000000000000000000000000000000000000000000000>
  |-0-+2+0000000000000000000000000000000000000000000000000000000000>
  |--0++20000000000000000000000000000000000000000000000000000000000>
  |--0+2+0000000000000000000000000000000000000000000000000000000000>
  |0++2--0000000000000000000000000000000000000000000000000000000000>
  |0222000000000000000000000000000000000000000000000000000000000000>
  |-+2+0-0000000000000000000000000000000000000000000000000000000000>
  |-+2+-00000000000000000000000000000000000000000000000000000000000>
  |-2++0-0000000000000000000000000000000000000000000000000000000000>
  |-2++-00000000000000000000000000000000000000000000000000000000000>
  |+0+--20000000000000000000000000000000000000000000000000000000000>
  |+-2-0+0000000000000000000000000000000000000000000000000000000000>
  |2020020000000000000000000000000000000000000000000000000000000000>
  |2020-+0000000000000000000000000000000000000000000000000000000000>
  |2-+0020000000000000000000000000000000000000000000000000000000000>
  |2-+0-+0000000000000000000000000000000000000000000000000000000000>
  |+0+-2-0000000000000000000000000000000000000000000000000000000000>
  |+-2-+00000000000000000000000000000000000000000000000000000000000>
  |2020+-0000000000000000000000000000000000000000000000000000000000>
  |2020200000000000000000000000000000000000000000000000000000000000>
  |2-+0+-0000000000000000000000000000000000000000000000000000000000>
  |2-+0200000000000000000000000000000000000000000000000000000000000>
  |++0--20000000000000000000000000000000000000000000000000000000000>
  |+2--0+0000000000000000000000000000000000000000000000000000000000>
  |2+-0020000000000000000000000000000000000000000000000000000000000>
  |2+-0-+0000000000000000000000000000000000000000000000000000000000>
  |2200020000000000000000000000000000000000000000000000000000000000>
  |2200-+0000000000000000000000000000000000000000000000000000000000>
  |++0-2-0000000000000000000000000000000000000000000000000000000000>
  |+2--+00000000000000000000000000000000000000000000000000000000000>
  |2+-0+-0000000000000000000000000000000000000000000000000000000000>
  |2+-0200000000000000000000000000000000000000000000000000000000000>
  |2200+-0000000000000000000000000000000000000000000000000000000000>
  |2200200000000000000000000000000000000000000000000000000000000000>
  |0220020000000000000000000000000000000000000000000000000000000000>
  |0220-+0000000000000000000000000000000000000000000000000000000000>
  |-+2-0+0000000000000000000000000000000000000000000000000000000000>
  |-2+-0+0000000000000000000000000000000000000000000000000000000000>
  |0220+-0000000000000000000000000000000000000000000000000000000000>
  |0220200000000000000000000000000000000000000000000000000000000000>
  |-+2-+00000000000000000000000000000000000000000000000000000000000>
  |-2+-+00000000000000000000000000000000000000000000000000000000000>
  |+-2+0-0000000000000000000000000000000000000000000000000000000000>
  |+-2+-00000000000000000000000000000000000000000000000000000000000>
  |2022000000000000000000000000000000000000000000000000000000000000>
  |2-+2000000000000000000000000000000000000000000000000000000000000>
  |+2-+0-0000000000000000000000000000000000000000000000000000000000>
  |+2-+-00000000000000000000000000000000000000000000000000000000000>
  |2+-2000000000000000000000000000000000000000000000000000000000000>
  |2202000000000000000000000000000000000000000000000000000000000000>

  Diagonalizing Hamiltonian           ...

  ==> Computing Coupling Lists <==
  --------------------------------
        α          0.000528 s
        β          0.000526 s
        αα         0.000514 s
        ββ         0.000507 s
        αβ         0.001184 s
  --------------------------------

  Davidson-Liu solver algorithm using SigmaVectorSparseList sigma algorithm
  Found 52 roots with 2S+1 = 1
  Found 42 roots with 2S+1 = 3 *
  Found 10 roots with 2S+1 = 5  Done. Timing        0.015228 s

  * * * * * * * * * * * * * * * * *
  *  CI Vectors & Configurations  *
  * * * * * * * * * * * * * * * * *

  ==> Root No. 0 <==

    2 20 0 ba          0.4836588608
    2 20 0 ab         -0.4836588608
    2 ba 0 20          0.3354310567
    2 ab 0 20         -0.3354310567
    a b0 a 2b         -0.3319367886
    b a0 b 2a          0.3319367886
    0 20 2 ba         -0.0851424117
    0 20 2 ab          0.0851424117
    a b0 a b2          0.0794625490
    b a0 b a2         -0.0794625490
    a 2b a b0          0.0765113905
    b 2a b a0         -0.0765113905
    2 ab 0 ba         -0.0765113247
    2 ba 0 ab          0.0765113247
    a 0b a 2b         -0.0676385480
    b 0a b 2a          0.0676385480
    0 ab 2 20          0.0653949936
    0 ba 2 20         -0.0653949936

    Total Energy:   -230.318720914147036


  ==> Root No. 1 <==

    2 20 0 ab         -0.3872495180
    2 20 0 ba          0.3872495180
    b a0 a 2b         -0.3872217280
    a b0 b 2a          0.3872217280
    2 ba 0 20         -0.3826517969
    2 ab 0 20          0.3826517969
    b a0 b 2a         -0.1795735724
    a b0 a 2b          0.1795735724
    2 00 2 ba         -0.0641248252
    2 00 2 ab          0.0641248252

    Total Energy:   -230.170739771985609



  ==> Permanent Dipole Moments (Ag) <==

  Only print nonzero (> 1.0e-5) elements.


  ==> Transition Dipole Moments (Ag -> Ag) <==

  Only print nonzero (> 1.0e-5) elements.


  ==> Oscillator Strength (Ag -> Ag) <==

  Only print nonzero (> 1.0e-5) elements.


              ---------------------------------------------------
                Complete Active Space Configuration Interaction
                                  Chenyang Li
              ---------------------------------------------------


  ==> Input Summary <==

    No. a electrons in active      =     3
    No. b electrons in active      =     3
    multiplicity                   =     5
    spin ms (2 * Sz)               =     0

  ==> Orbital Spaces <==

    TOTAL MO                      [   24    18     6     9     6     9    24    18 ]
    FROZEN CORE                   [    2     1     0     0     0     0     2     1 ]
    FROZEN VIRTUAL                [    0     0     0     0     0     0     0     0 ]
    CORRELATED MO                 [   22    17     6     9     6     9    22    17 ]
    CORE                          [    4     2     0     0     0     0     3     3 ]
    ACTIVE                        [    0     0     1     2     1     2     0     0 ]
    VIRTUAL                       [   18    15     5     7     5     7    19    14 ]
  Forming alpha and beta strings      ...  Done. Timing        0.000061 s
  Forming determinants                ...  Done. Timing        0.000049 s

  ==> Determinants Summary <==

    number of alpha active electrons         =     3
    number of beta active electrons          =     3
    root symmetry (zero based)               =     0
    number of determinants                   =   104


  ==> Determinants |alpha|beta> <==

  |0022020000000000000000000000000000000000000000000000000000000000>
  |0022-+0000000000000000000000000000000000000000000000000000000000>
  |0-+2020000000000000000000000000000000000000000000000000000000000>
  |0-+2-+0000000000000000000000000000000000000000000000000000000000>
  |-0++-20000000000000000000000000000000000000000000000000000000000>
  |--2+0+0000000000000000000000000000000000000000000000000000000000>
  |0022+-0000000000000000000000000000000000000000000000000000000000>
  |0022200000000000000000000000000000000000000000000000000000000000>
  |0-+2+-0000000000000000000000000000000000000000000000000000000000>
  |0-+2200000000000000000000000000000000000000000000000000000000000>
  |-0++2-0000000000000000000000000000000000000000000000000000000000>
  |--2++00000000000000000000000000000000000000000000000000000000000>
  |0+-2020000000000000000000000000000000000000000000000000000000000>
  |0+-2-+0000000000000000000000000000000000000000000000000000000000>
  |0202020000000000000000000000000000000000000000000000000000000000>
  |0202-+0000000000000000000000000000000000000000000000000000000000>
  |-+0+-20000000000000000000000000000000000000000000000000000000000>
  |-2-+0+0000000000000000000000000000000000000000000000000000000000>
  |0+-2+-0000000000000000000000000000000000000000000000000000000000>
  |0+-2200000000000000000000000000000000000000000000000000000000000>
  |0202+-0000000000000000000000000000000000000000000000000000000000>
  |0202200000000000000000000000000000000000000000000000000000000000>
  |-+0+2-0000000000000000000000000000000000000000000000000000000000>
  |-2-++00000000000000000000000000000000000000000000000000000000000>
  |+0--+20000000000000000000000000000000000000000000000000000000000>
  |+0--2+0000000000000000000000000000000000000000000000000000000000>
  |+-0-+20000000000000000000000000000000000000000000000000000000000>
  |+-0-2+0000000000000000000000000000000000000000000000000000000000>
  |2000220000000000000000000000000000000000000000000000000000000000>
  |2--0++0000000000000000000000000000000000000000000000000000000000>
  |++2-0-0000000000000000000000000000000000000000000000000000000000>
  |++2--00000000000000000000000000000000000000000000000000000000000>
  |+2+-0-0000000000000000000000000000000000000000000000000000000000>
  |+2+--00000000000000000000000000000000000000000000000000000000000>
  |2++0--0000000000000000000000000000000000000000000000000000000000>
  |2220000000000000000000000000000000000000000000000000000000000000>
  |0020220000000000000000000000000000000000000000000000000000000000>
  |0-+0220000000000000000000000000000000000000000000000000000000000>
[...]
    CORE                          [    4     2     0     0     0     0     3     3 ]
    ACTIVE                        [    0     0     1     2     1     2     0     0 ]
    VIRTUAL                       [   18    15     5     7     5     7    19    14 ]
  Forming alpha and beta strings      ...  Done. Timing        0.000051 s
  Forming determinants                ...  Done. Timing        0.000027 s

  ==> Determinants Summary <==

    number of alpha active electrons         =     4
    number of beta active electrons          =     2
    root symmetry (zero based)               =     0
    number of determinants                   =    52


  ==> Determinants |alpha|beta> <==

  |0++0220000000000000000000000000000000000000000000000000000000000>
  |0220++0000000000000000000000000000000000000000000000000000000000>
  |+0++-20000000000000000000000000000000000000000000000000000000000>
  |+-2+0+0000000000000000000000000000000000000000000000000000000000>
  |+0++2-0000000000000000000000000000000000000000000000000000000000>
  |+-2++00000000000000000000000000000000000000000000000000000000000>
  |++0+-20000000000000000000000000000000000000000000000000000000000>
  |+2-+0+0000000000000000000000000000000000000000000000000000000000>
  |++0+2-0000000000000000000000000000000000000000000000000000000000>
  |+2-++00000000000000000000000000000000000000000000000000000000000>
  |0++2020000000000000000000000000000000000000000000000000000000000>
  |0++2-+0000000000000000000000000000000000000000000000000000000000>
  |-+2+0+0000000000000000000000000000000000000000000000000000000000>
  |-2++0+0000000000000000000000000000000000000000000000000000000000>
  |0++2+-0000000000000000000000000000000000000000000000000000000000>
  |0++2200000000000000000000000000000000000000000000000000000000000>
  |-+2++00000000000000000000000000000000000000000000000000000000000>
  |-2+++00000000000000000000000000000000000000000000000000000000000>
  |+0+-+20000000000000000000000000000000000000000000000000000000000>
  |+0+-2+0000000000000000000000000000000000000000000000000000000000>
  |2020++0000000000000000000000000000000000000000000000000000000000>
  |2-+0++0000000000000000000000000000000000000000000000000000000000>
  |++0-+20000000000000000000000000000000000000000000000000000000000>
  |++0-2+0000000000000000000000000000000000000000000000000000000000>
  |2+-0++0000000000000000000000000000000000000000000000000000000000>
  |2200++0000000000000000000000000000000000000000000000000000000000>
  |+0-++20000000000000000000000000000000000000000000000000000000000>
  |+0-+2+0000000000000000000000000000000000000000000000000000000000>
  |+-0++20000000000000000000000000000000000000000000000000000000000>
  |+-0+2+0000000000000000000000000000000000000000000000000000000000>
  |2002++0000000000000000000000000000000000000000000000000000000000>
  |++2+0-0000000000000000000000000000000000000000000000000000000000>
  |++2+-00000000000000000000000000000000000000000000000000000000000>
  |+2++0-0000000000000000000000000000000000000000000000000000000000>
  |+2++-00000000000000000000000000000000000000000000000000000000000>
  |2++2000000000000000000000000000000000000000000000000000000000000>
  |0022++0000000000000000000000000000000000000000000000000000000000>
  |0-+2++0000000000000000000000000000000000000000000000000000000000>
  |-0+++20000000000000000000000000000000000000000000000000000000000>
  |-0++2+0000000000000000000000000000000000000000000000000000000000>
  |0+-2++0000000000000000000000000000000000000000000000000000000000>
  |0202++0000000000000000000000000000000000000000000000000000000000>
  |-+0++20000000000000000000000000000000000000000000000000000000000>
  |-+0+2+0000000000000000000000000000000000000000000000000000000000>
  |++2-0+0000000000000000000000000000000000000000000000000000000000>
  |+2+-0+0000000000000000000000000000000000000000000000000000000000>
  |2++0020000000000000000000000000000000000000000000000000000000000>
  |2++0-+0000000000000000000000000000000000000000000000000000000000>
  |++2-+00000000000000000000000000000000000000000000000000000000000>
  |+2+-+00000000000000000000000000000000000000000000000000000000000>
  |2++0+-0000000000000000000000000000000000000000000000000000000000>
  |2++0200000000000000000000000000000000000000000000000000000000000>

  Diagonalizing Hamiltonian           ...

  ==> Computing Coupling Lists <==
  --------------------------------
        α          0.000348 s
        β          0.000195 s
        αα         0.000486 s
        ββ         0.000102 s
        αβ         0.000590 s
  --------------------------------

  Davidson-Liu solver algorithm using SigmaVectorSparseList sigma algorithm
  Found 42 roots with 2S+1 = 3 *
  Found 10 roots with 2S+1 = 5  Done. Timing        0.005884 s

  * * * * * * * * * * * * * * * * *
  *  CI Vectors & Configurations  *
  * * * * * * * * * * * * * * * * *

  ==> Root No. 0 <==

    2 20 0 aa          0.7580194569
    2 aa 0 20          0.4535527580
    a b0 a 2a          0.2344259849
    b a0 a 2a          0.2343621589
    a a0 b 2a          0.1732469541
    a a0 a 2b          0.1731831282
    0 20 2 aa         -0.0966144141
    0 aa 2 20         -0.0675413743
    a a0 b a2         -0.0577717787
    a 2a b a0         -0.0525258133
    2 aa 0 ab          0.0525145441

    Total Energy:   -231.035884871274789


  ==> Root No. 1 <==

    2 aa 0 20         -0.6349288004
    2 20 0 aa          0.5037136790
    a a0 b 2a         -0.3787877247
    a a0 a 2b         -0.3782928413
    b a0 a 2a          0.1096298085
    a b0 a 2a          0.1091349251
    2 ba 0 aa          0.0682706634
    b 2a a a0          0.0682212108
    2 00 2 aa         -0.0680424614

    Total Energy:   -230.931365758204834



  ==> Permanent Dipole Moments (Ag) <==

  Only print nonzero (> 1.0e-5) elements.


  ==> Transition Dipole Moments (Ag -> Ag) <==

  Only print nonzero (> 1.0e-5) elements.


  ==> Oscillator Strength (Ag -> Ag) <==

  Only print nonzero (> 1.0e-5) elements.


              ---------------------------------------------------
                Complete Active Space Configuration Interaction
                                  Chenyang Li
              ---------------------------------------------------


  ==> Input Summary <==

    No. a electrons in active      =     4
    No. b electrons in active      =     2
    multiplicity                   =     5
    spin ms (2 * Sz)               =     2

  ==> Orbital Spaces <==

    TOTAL MO                      [   24    18     6     9     6     9    24    18 ]
    FROZEN CORE                   [    2     1     0     0     0     0     2     1 ]
    FROZEN VIRTUAL                [    0     0     0     0     0     0     0     0 ]
    CORRELATED MO                 [   22    17     6     9     6     9    22    17 ]
    CORE                          [    4     2     0     0     0     0     3     3 ]
    ACTIVE                        [    0     0     1     2     1     2     0     0 ]
    VIRTUAL                       [   18    15     5     7     5     7    19    14 ]
  Forming alpha and beta strings      ...  Done. Timing        0.000049 s
  Forming determinants                ...  Done. Timing        0.000027 s

  ==> Determinants Summary <==

    number of alpha active electrons         =     4
    number of beta active electrons          =     2
    root symmetry (zero based)               =     0
    number of determinants                   =    52


  ==> Determinants |alpha|beta> <==

  |0++0220000000000000000000000000000000000000000000000000000000000>
  |0220++0000000000000000000000000000000000000000000000000000000000>
  |+0++-20000000000000000000000000000000000000000000000000000000000>
  |+-2+0+0000000000000000000000000000000000000000000000000000000000>
  |+0++2-0000000000000000000000000000000000000000000000000000000000>
  |+-2++00000000000000000000000000000000000000000000000000000000000>
  |++0+-20000000000000000000000000000000000000000000000000000000000>
  |+2-+0+0000000000000000000000000000000000000000000000000000000000>
  |++0+2-0000000000000000000000000000000000000000000000000000000000>
  |+2-++00000000000000000000000000000000000000000000000000000000000>
  |0++2020000000000000000000000000000000000000000000000000000000000>
  |0++2-+0000000000000000000000000000000000000000000000000000000000>
  |-+2+0+0000000000000000000000000000000000000000000000000000000000>
  |-2++0+0000000000000000000000000000000000000000000000000000000000>
  |0++2+-0000000000000000000000000000000000000000000000000000000000>
  |0++2200000000000000000000000000000000000000000000000000000000000>
  |-+2++00000000000000000000000000000000000000000000000000000000000>
  |-2+++00000000000000000000000000000000000000000000000000000000000>
  |+0+-+20000000000000000000000000000000000000000000000000000000000>
  |+0+-2+0000000000000000000000000000000000000000000000000000000000>
  |2020++0000000000000000000000000000000000000000000000000000000000>
  |2-+0++0000000000000000000000000000000000000000000000000000000000>
  |++0-+20000000000000000000000000000000000000000000000000000000000>
  |++0-2+0000000000000000000000000000000000000000000000000000000000>
  |2+-0++0000000000000000000000000000000000000000000000000000000000>
  |2200++0000000000000000000000000000000000000000000000000000000000>
  |+0-++20000000000000000000000000000000000000000000000000000000000>
  |+0-+2+0000000000000000000000000000000000000000000000000000000000>
  |+-0++20000000000000000000000000000000000000000000000000000000000>
  |+-0+2+0000000000000000000000000000000000000000000000000000000000>
  |2002++0000000000000000000000000000000000000000000000000000000000>
  |++2+0-0000000000000000000000000000000000000000000000000000000000>
  |++2+-00000000000000000000000000000000000000000000000000000000000>
  |+2++0-0000000000000000000000000000000000000000000000000000000000>
  |+2++-00000000000000000000000000000000000000000000000000000000000>
  |2++2000000000000000000000000000000000000000000000000000000000000>
  |0022++0000000000000000000000000000000000000000000000000000000000>
  |0-+2++0000000000000000000000000000000000000000000000000000000000>
  |-0+++20000000000000000000000000000000000000000000000000000000000>
  |-0++2+0000000000000000000000000000000000000000000000000000000000>
  |0+-2++0000000000000000000000000000000000000000000000000000000000>
  |0202++0000000000000000000000000000000000000000000000000000000000>
  |-+0++20000000000000000000000000000000000000000000000000000000000>
  |-+0+2+0000000000000000000000000000000000000000000000000000000000>
  |++2-0+0000000000000000000000000000000000000000000000000000000000>
  |+2+-0+0000000000000000000000000000000000000000000000000000000000>
  |2++0020000000000000000000000000000000000000000000000000000000000>
  |2++0-+0000000000000000000000000000000000000000000000000000000000>
  |++2-+00000000000000000000000000000000000000000000000000000000000>
  |+2+-+00000000000000000000000000000000000000000000000000000000000>
  |2++0+-0000000000000000000000000000000000000000000000000000000000>
  |2++0200000000000000000000000000000000000000000000000000000000000>

  Diagonalizing Hamiltonian           ...

  ==> Computing Coupling Lists <==
  --------------------------------
        α          0.000347 s
        β          0.000196 s
        αα         0.000483 s
        ββ         0.000101 s
        αβ         0.000593 s
  --------------------------------

  Davidson-Liu solver algorithm using SigmaVectorSparseList sigma algorithm
  Found 42 roots with 2S+1 = 3
  Found 10 roots with 2S+1 = 5 *  Done. Timing        0.005755 s

  * * * * * * * * * * * * * * * * *
  *  CI Vectors & Configurations  *
  * * * * * * * * * * * * * * * * *

  ==> Root No. 0 <==

    a b0 a 2a          0.4822278232
    b a0 a 2a         -0.4822278232
    a a0 a 2b          0.4822278232
    a a0 b 2a         -0.4822278232
    a 2a b a0          0.0892020192
    a 2b a a0         -0.0892020192
    a 2a a b0         -0.0892020192
    b 2a a a0          0.0892020192
    2 ba 0 aa         -0.0890531583
    2 ab 0 aa          0.0890531583
    2 aa 0 ba         -0.0890531583
    2 aa 0 ab          0.0890531583

    Total Energy:   -230.983595393967448


  ==> Root No. 1 <==

    a 2a b a0         -0.2638744589
    b 2a a a0         -0.2638744589
    a 2a a b0          0.2638744589
    a 2b a a0          0.2638744589
    2 aa 0 ba         -0.2635686560
    2 aa 0 ab          0.2635686560
    2 ba 0 aa         -0.2635686560
    2 ab 0 aa          0.2635686560
    a a0 a b2         -0.2578202118
    b a0 a a2          0.2578202118
    a a0 b a2          0.2578202118
    a b0 a a2         -0.2578202118
    a 0a b 2a         -0.1821185365
    a 0b a 2a          0.1821185365
    a 0a a 2b          0.1821185365
    b 0a a 2a         -0.1821185365
    a 2a b 0a          0.0723654509
    a 2b a 0a         -0.0723654509
    b 2a a 0a          0.0723654509
    a 2a a 0b         -0.0723654509
    a b2 a a0          0.0599434461
    a a2 a b0          0.0599434461
    b a2 a a0         -0.0599434461
    a a2 b a0         -0.0599434461

    Total Energy:   -230.749287428947184



  ==> Permanent Dipole Moments (Ag) <==

  Only print nonzero (> 1.0e-5) elements.


  ==> Transition Dipole Moments (Ag -> Ag) <==

  Only print nonzero (> 1.0e-5) elements.


  ==> Oscillator Strength (Ag -> Ag) <==

  Only print nonzero (> 1.0e-5) elements.


              ---------------------------------------------------
                Complete Active Space Configuration Interaction
                                  Chenyang Li
              ---------------------------------------------------


  ==> Input Summary <==

    No. a electrons in active      =     5
    No. b electrons in active      =     1
    multiplicity                   =     5
    spin ms (2 * Sz)               =     4

  ==> Orbital Spaces <==

    TOTAL MO                      [   24    18     6     9     6     9    24    18 ]
    FROZEN CORE                   [    2     1     0     0     0     0     2     1 ]
    FROZEN VIRTUAL                [    0     0     0     0     0     0     0     0 ]
    CORRELATED MO                 [   22    17     6     9     6     9    22    17 ]
    CORE                          [    4     2     0     0     0     0     3     3 ]
    ACTIVE                        [    0     0     1     2     1     2     0     0 ]
    VIRTUAL                       [   18    15     5     7     5     7    19    14 ]
  Forming alpha and beta strings      ...  Done. Timing        0.000030 s
  Forming determinants                ...  Done. Timing        0.000010 s

  ==> Determinants Summary <==

    number of alpha active electrons         =     5
    number of beta active electrons          =     1
    root symmetry (zero based)               =     0
    number of determinants                   =    10


  ==> Determinants |alpha|beta> <==

  |2++0++0000000000000000000000000000000000000000000000000000000000>
  |++2+0+0000000000000000000000000000000000000000000000000000000000>
  |+2++0+0000000000000000000000000000000000000000000000000000000000>
  |++2++00000000000000000000000000000000000000000000000000000000000>
  |+2+++00000000000000000000000000000000000000000000000000000000000>
  |0++2++0000000000000000000000000000000000000000000000000000000000>
  |+0+++20000000000000000000000000000000000000000000000000000000000>
  |+0++2+0000000000000000000000000000000000000000000000000000000000>
  |++0++20000000000000000000000000000000000000000000000000000000000>
  |++0+2+0000000000000000000000000000000000000000000000000000000000>

  Diagonalizing Hamiltonian           ...

  ==> Computing Coupling Lists <==
  --------------------------------
        α          0.000101 s
        β          0.000022 s
        αα         0.000169 s
        ββ         0.000006 s
        αβ         0.000085 s
  --------------------------------

  Davidson-Liu solver algorithm using SigmaVectorSparseList sigma algorithm
  Found 10 roots with 2S+1 = 5 *  Done. Timing        0.000916 s

  * * * * * * * * * * * * * * * * *
  *  CI Vectors & Configurations  *
  * * * * * * * * * * * * * * * * *

  ==> Root No. 0 <==

    a a0 a 2a          0.9644556465
    a 2a a a0         -0.1784040384
    2 aa 0 aa          0.1781063166
    a 0a a a2         -0.0514035321
    0 aa 2 aa         -0.0513891294

    Total Energy:   -230.983595393966993


  ==> Root No. 1 <==

    a 2a a a0         -0.5277489179
    2 aa 0 aa         -0.5271373119
    a a0 a a2          0.5156404236
    a 0a a 2a         -0.3642370731
    a 2a a 0a          0.1447309018
    a a2 a a0         -0.1198868922
    a 0a a a2         -0.0697991776
    0 aa 2 aa          0.0697256937

    Total Energy:   -230.749287428947298



  ==> Permanent Dipole Moments (Ag) <==

  Only print nonzero (> 1.0e-5) elements.


  ==> Transition Dipole Moments (Ag -> Ag) <==

  Only print nonzero (> 1.0e-5) elements.


  ==> Oscillator Strength (Ag -> Ag) <==

  Only print nonzero (> 1.0e-5) elements.


  ==> Energy Summary <==

    Multi.(2ms)  Irrep.  No.               Energy
    ---------------------------------------------
       1  (  0)    Ag     0     -231.319065668045
       1  (  0)    Ag     1     -231.006602969564
    ---------------------------------------------
       1  (  0)   B1g     0     -231.006798885089
    ---------------------------------------------
       1  (  0)   B2u     0     -231.067788818100
       1  (  0)   B2u     1     -231.026801831595
    ---------------------------------------------
       1  (  0)   B3u     0     -231.125817636184
       1  (  0)   B3u     1     -231.026830664732
    ---------------------------------------------
       3  (  0)    Ag     0     -231.035884871274
       3  (  0)    Ag     1     -230.931365758204
    ---------------------------------------------
       5  (  0)    Ag     0     -230.983595393967
       5  (  0)    Ag     1     -230.749287428947
    ---------------------------------------------
       3  (  2)    Ag     0     -231.035884871275
       3  (  2)    Ag     1     -230.931365758205
    ---------------------------------------------
       5  (  2)    Ag     0     -230.983595393967
       5  (  2)    Ag     1     -230.749287428947
    ---------------------------------------------
       5  (  4)    Ag     0     -230.983595393967
       5  (  4)    Ag     1     -230.749287428947
    ---------------------------------------------

  ==> Total Timings (s) for Computing Commutators <==

             [H1, T1]    [H1, T2]    [H2, T1]    [H2, T2]
    -----------------------------------------------------
    -> C0       0.001       0.002       0.001       0.000
    -> C1       0.000       0.000       0.000       0.000
    -> C2                   0.000       0.000       0.000
    -----------------------------------------------------


  Time to prepare integrals: 1.9528419971466064 seconds
  Time to run job          : 7.963592052459717 seconds
  Total                    : 7.963592052459717 seconds    SA-DSRG-PT2 energy on  1AG root 0.................................PASSED
    SA-DSRG-PT2 energy on  1AG root 1.................................PASSED
    SA-DSRG-PT2 energy on 1B1G root 0.................................PASSED
    SA-DSRG-PT2 energy on 1B2U root 0.................................PASSED
    SA-DSRG-PT2 energy on 1B2U root 1.................................PASSED
    SA-DSRG-PT2 energy on 1B3U root 0.................................PASSED
    SA-DSRG-PT2 energy on 1B3U root 1.................................PASSED
    SA-DSRG-PT2 energy on  3AG root 0.................................PASSED
    SA-DSRG-PT2 energy on  3AG root 1.................................PASSED
    SA-DSRG-PT2 energy on  5AG root 0.................................PASSED
    SA-DSRG-PT2 energy on  5AG root 1.................................PASSED

    Psi4 stopped on: Saturday, 21 March 2020 10:23PM
    Psi4 wall time for execution: 0:00:12.73

*** Psi4 exiting successfully. Buy a developer a beer!
