
    -----------------------------------------------------------------------
          Psi4: An Open-Source Ab Initio Electronic Structure Package
                               Psi4 undefined 

                         Git: Rev {master} b0f5b75 dirty


    R. M. Parrish, L. A. Burns, D. G. A. Smith, A. C. Simmonett,
    A. E. DePrince III, E. G. Hohenstein, U. Bozkaya, A. Yu. Sokolov,
    R. Di Remigio, R. M. Richard, J. F. Gonthier, A. M. James,
    H. R. McAlexander, A. Kumar, M. Saitow, X. Wang, B. P. Pritchard,
    P. Verma, H. F. Schaefer III, K. Patkowski, R. A. King, E. F. Valeev,
    F. A. Evangelista, J. M. Turney, T. D. Crawford, and C. D. Sherrill,
    J. Chem. Theory Comput. 13(7) pp 3185--3197 (2017).
    (doi: 10.1021/acs.jctc.7b00174)

    -----------------------------------------------------------------------


    Psi4 started on: Thursday, 05 July 2018 09:40PM

    Process ID: 1304
    Host:       DESKTOP-JOFFIR0
    PSIDATADIR: /home/zty/Source/psi4-github-bin-g++-6.3.0-opt-c++11/share/psi4
    Memory:     500.0 MiB
    Threads:    1
    
  ==> Input File <==

--------------------------------------------------------------------------
#! Generated using commit GITCOMMIT

import forte

refrohf    = -15.611546532146
refudsrg   = -15.545427111263837 # unrelaxed
refprdsrg  = -15.545445272160 # partially relaxed
refrdsrg   = -15.545413272167 # relaxed

molecule {
  0 3
  Be 0.00000000    0.00000000   0.000000000
  H  0.00000000    1.2750       2.7500
  H  0.00000000   -1.2750       2.7500
  units bohr
  no_reorient
}

basis {
cartesian
****
Be 0
S 6 1.00
 1267.07000 0.001940
  190.35600 0.014786
   43.29590 0.071795
   12.14420 0.236348
    3.80923 0.471763
    1.26847 0.355183
S 3 1.00
    5.69388 -0.028876
    1.55563 -0.177565
    0.171855 1.071630
S 1 1.0
    0.057181 1.000000
P 1 1.0
    5.69388  1.000000
P 2 1.0
    1.55563  0.144045
    0.171855 0.949692
****
H 0
S 3 1.00
   19.24060  0.032828
    2.899200 0.231208
    0.653400 0.817238
S 1 1.0
    0.177600  1.00000
****
}

set {
  docc               [2,0,0,0]
  socc               [1,0,0,1]
  reference          rohf
  scf_type           pk
  maxiter            300
  e_convergence      8
  d_convergence      10
}

set forte {
  job_type               mrdsrg
  int_type               cholesky
  cholesky_tolerance     1e-4
  corr_level             ldsrg2
  frozen_docc            [1,0,0,0]
  restricted_docc        [1,0,0,0]
  active                 [1,0,0,1]
  multiplicity           1
  root_sym               0
  nroot                  1
  root                   0
  dsrg_s                 1.0
  maxiter                100
  e_convergence          8
  relax_ref              twice
  dsrg_nivo              true
}

Escf, wfn = energy('scf', return_wfn=True)
compare_values(refrohf,get_variable("CURRENT ENERGY"),10,"ROHF energy")

energy('forte', ref_wfn=wfn)
compare_values(refudsrg,get_variable("UNRELAXED ENERGY"),8,"MRDSRG unrelaxed energy")
compare_values(refprdsrg,get_variable("PARTIALLY RELAXED ENERGY"),8,"MRDSRG partially relaxed energy")
compare_values(refrdsrg,get_variable("RELAXED ENERGY"),8,"MRDSRG relaxed energy")
--------------------------------------------------------------------------

*** tstart() called on DESKTOP-JOFFIR0
*** at Thu Jul  5 21:40:06 2018

   => Loading Basis Set <=

    Name: ANONYMOUS684CA5D5
    Role: ORBITAL
    Keyword: BASIS
    atoms 1   entry BE         line     5 inputblock anonymous684ca5d5 
    atoms 2-3 entry H          line    25 inputblock anonymous684ca5d5 


         ---------------------------------------------------------
                                   SCF
            by Justin Turney, Rob Parrish, Andy Simmonett
                             and Daniel Smith
                             ROHF Reference
                        1 Threads,    500 MiB Core
         ---------------------------------------------------------

  ==> Geometry <==

    Molecular point group: c2v
    Full point group: C2v

    Geometry (in Bohr), charge = 0, multiplicity = 3:

       Center              X                  Y                   Z               Mass       
    ------------   -----------------  -----------------  -----------------  -----------------
         BE           0.000000000000     0.000000000000    -0.502640731480     9.012182201000
         H           -0.000000000000     1.275000000000     2.247359268520     1.007825032070
         H            0.000000000000    -1.275000000000     2.247359268520     1.007825032070

  Running in c2v symmetry.

  Rotational constants: A =     18.37210  B =      4.83252  C =      3.82612 [cm^-1]
  Rotational constants: A = 550781.60550  B = 144875.38330  C = 114704.08189 [MHz]
  Nuclear repulsion =    3.031382610983898

  Charge       = 0
  Multiplicity = 3
  Electrons    = 6
  Nalpha       = 4
  Nbeta        = 2

  ==> Algorithm <==

  SCF Algorithm Type is PK.
  DIIS enabled.
  MOM disabled.
  Fractional occupation disabled.
  Guess Type is GWH.
  Energy threshold   = 1.00e-08
  Density threshold  = 1.00e-10
  Integral threshold = 0.00e+00

  ==> Primary Basis <==

  Basis Set: ANONYMOUS684CA5D5
    Blend: ANONYMOUS684CA5D5
    Number of shells: 9
    Number of basis function: 13
    Number of Cartesian functions: 13
    Spherical Harmonics?: false
    Max angular momentum: 1

  ==> Pre-Iterations <==

   -------------------------------------------------------
    Irrep   Nso     Nmo     Nalpha   Nbeta   Ndocc  Nsocc
   -------------------------------------------------------
     A1         7       7       3       2       2       1
     A2         0       0       0       0       0       0
     B1         2       2       0       0       0       0
     B2         4       4       1       0       0       1
   -------------------------------------------------------
    Total      13      13       4       2       2       2
   -------------------------------------------------------

  ==> Integral Setup <==

  Using in-core PK algorithm.
   Calculation information:
      Number of atoms:                   3
      Number of AO shells:               9
      Number of primitives:             21
      Number of atomic orbitals:        13
      Number of basis functions:        13

      Integral cutoff                 1.00e-12
      Number of threads:                 1

  Performing in-core PK
  Using 8372 doubles for integral storage.
  We computed 1035 shell quartets total.
  Whereas there are 1035 unique shell quartets.

  ==> DiskJK: Disk-Based J/K Matrices <==

    J tasked:                  Yes
    K tasked:                  Yes
    wK tasked:                  No
    Memory (MB):               375
    Schwarz Cutoff:          1E-12

    OpenMP threads:              1

  Minimum eigenvalue in the overlap matrix is 1.3143755134E-01.
  Using Symmetric Orthogonalization.

  SCF Guess: Generalized Wolfsberg-Helmholtz.

  ==> Iterations <==

                        Total Energy        Delta E     RMS |[F,P]|

   @ROHF iter   1:   -15.45433104192440   -1.54543e+01   1.04833e-01 
   @ROHF iter   2:   -15.60927248244068   -1.54941e-01   4.00568e-03 DIIS
   @ROHF iter   3:   -15.61118408470079   -1.91160e-03   1.07044e-03 DIIS
   @ROHF iter   4:   -15.61147726741054   -2.93183e-04   4.72731e-04 DIIS
   @ROHF iter   5:   -15.61154512994983   -6.78625e-05   7.69087e-05 DIIS
   @ROHF iter   6:   -15.61154648529867   -1.35535e-06   1.40030e-05 DIIS
   @ROHF iter   7:   -15.61154653183158   -4.65329e-08   1.24662e-06 DIIS
   @ROHF iter   8:   -15.61154653214470   -3.13122e-10   8.86151e-08 DIIS
   @ROHF iter   9:   -15.61154653214599   -1.29319e-12   8.47164e-09 DIIS
   @ROHF iter  10:   -15.61154653214598    7.10543e-15   7.12223e-10 DIIS
   @ROHF iter  11:   -15.61154653214601   -2.48690e-14   9.38142e-11 DIIS

  ==> Post-Iterations <==

    Orbital Energies [Eh]
    ---------------------

    Doubly Occupied:                                                      

       1A1    -4.739412     2A1    -0.555329  

    Singly Occupied:                                                      

       1B2    -0.124111     3A1    -0.109925  

    Virtual:                                                              

       1B1     0.145758     2B2     0.257460     4A1     0.272612  
       5A1     0.325586     3B2     1.130941     6A1     1.208293  
       2B1     8.963573     4B2     9.001730     7A1     9.081773  

    Final Occupation by Irrep:
             A1    A2    B1    B2 
    DOCC [     2,    0,    0,    0 ]
    SOCC [     1,    0,    0,    1 ]

  Energy converged.

  @ROHF Final Energy:   -15.61154653214601

   => Energetics <=

    Nuclear Repulsion Energy =              3.0313826109838984
    One-Electron Energy =                 -26.0505763815493765
    Two-Electron Energy =                   7.4076472384194698
    Total Energy =                        -15.6115465321460096



Properties will be evaluated at   0.000000,   0.000000,   0.000000 [a0]

Properties computed using the SCF density matrix

  Nuclear Dipole Moment: [e a0]
     X:     0.0000      Y:     0.0000      Z:     2.4842

  Electronic Dipole Moment: [e a0]
     X:     0.0000      Y:     0.0000      Z:    -2.5844

  Dipole Moment: [e a0]
     X:     0.0000      Y:     0.0000      Z:    -0.1002     Total:     0.1002

  Dipole Moment: [D]
     X:     0.0000      Y:     0.0000      Z:    -0.2548     Total:     0.2548


*** tstop() called on DESKTOP-JOFFIR0 at Thu Jul  5 21:40:07 2018
Module time:
	user time   =       0.09 seconds =       0.00 minutes
	system time =       0.02 seconds =       0.00 minutes
	total time  =          1 seconds =       0.02 minutes
Total time:
	user time   =       0.09 seconds =       0.00 minutes
	system time =       0.02 seconds =       0.00 minutes
	total time  =          1 seconds =       0.02 minutes
	ROHF energy.......................................................PASSED
   => Loading Basis Set <=

    Name: STO-3G
    Role: ORBITAL
    Keyword: MINAO_BASIS
    atoms 1   entry BE         line    41 file /home/zty/Source/psi4-github-bin-g++-6.3.0-opt-c++11/share/psi4/basis/sto-3g.gbs 
    atoms 2-3 entry H          line    19 file /home/zty/Source/psi4-github-bin-g++-6.3.0-opt-c++11/share/psi4/basis/sto-3g.gbs 


Reading options from the FORTE block
Calling plugin forte.so.



  Forte
  ----------------------------------------------------------------------------
  A suite of quantum chemistry methods for strongly correlated electrons

    git branch: DSRG_NIVO - git commit: 05d3f4c

  Developed by:
    Francesco A. Evangelista, Chenyang Li, Kevin P. Hannon,
    Jeffrey B. Schriber, Tianyuan Zhang, Chenxi Cai
  ----------------------------------------------------------------------------

  Size of Determinant class: 16

  ==> MO Space Information <==

  Read options for space FROZEN_DOCC
  Read options for space RESTRICTED_DOCC
  Read options for space ACTIVE
 Removing orbital 0
  -------------------------------------------------
                       A1    A2    B1    B2   Sum
  -------------------------------------------------
    FROZEN_DOCC         1     0     0     0     1
    RESTRICTED_DOCC     1     0     0     0     1
    ACTIVE              1     0     0     1     2
    RESTRICTED_UOCC     4     0     2     3     9
    FROZEN_UOCC         0     0     0     0     0
    Total               7     0     2     4    13
  -------------------------------------------------

  ==> Integral Transformation <==

  Number of molecular orbitals:               13
  Number of correlated molecular orbitals:    12
  Number of frozen occupied orbitals:          1
  Number of frozen unoccupied orbitals:        0

    Molecular point group: c2v
    Full point group: C2v

    Geometry (in Bohr), charge = 0, multiplicity = 3:

       Center              X                  Y                   Z               Mass       
    ------------   -----------------  -----------------  -----------------  -----------------
         BE           0.000000000000     0.000000000000    -0.502640731480     9.012182201000
         H           -0.000000000000     1.275000000000     2.247359268520     1.007825032070
         H            0.000000000000    -1.275000000000     2.247359268520     1.007825032070

  -AO BASIS SET INFORMATION:
    Name                   = ANONYMOUS684CA5D5
    Blend                  = ANONYMOUS684CA5D5
    Total number of shells = 9
    Number of primitives   = 21
    Number of AO           = 13
    Number of SO           = 13
    Maximum AM             = 1
    Spherical Harmonics    = FALSE

  -Contraction Scheme:
    Atom   Type   All Primitives // Shells:
   ------ ------ --------------------------
       1    BE     10s 3p // 3s 2p 
       2     H     4s // 2s 
       3     H     4s // 2s 

  ==> AO Basis Functions <==

    [ ANONYMOUS684CA5D5 ]
    cartesian
    ****
   BE   1
    S   6 1.00
                      1267.07000000           0.00194000
                       190.35600000           0.01478600
                        43.29590000           0.07179500
                        12.14420000           0.23634800
                         3.80923000           0.47176300
                         1.26847000           0.35518300
    S   3 1.00
                         5.69388000          -0.02887600
                         1.55563000          -0.17756500
                         0.17185500           1.07163000
    S   1 1.00
                         0.05718100           1.00000000
    P   1 1.00
                         5.69388000           1.00000000
    P   2 1.00
                         1.55563000           0.14404500
                         0.17185500           0.94969200
    ****
    H   2
    S   3 1.00
                        19.24060000           0.03282800
                         2.89920000           0.23120800
                         0.65340000           0.81723800
    S   1 1.00
                         0.17760000           1.00000000
    ****


  Cholesky integrals time
 Computing the Cholesky Vectors 

    Computing CD Integrals               ......Done. Timing        0.019316 s
 Need 0.000069 GB to store cd integrals in core

 Number of cholesky vectors 55 to satisfy       0.000100000000 tolerance
  Using in-core PK algorithm.
   Calculation information:
      Number of atoms:                   3
      Number of AO shells:               9
      Number of primitives:             21
      Number of atomic orbitals:        13
      Number of basis functions:        13

      Integral cutoff                 1.00e-12
      Number of threads:                 1

  Performing in-core PK
  Using 8372 doubles for integral storage.
  We computed 1035 shell quartets total.
  Whereas there are 1035 unique shell quartets.


  Frozen-core energy            -14.929378863416 a.u.

  FrozenOneBody Operator takes  0.05041300 s
  Resorting integrals after freezing core.
  CholeskyIntegrals take 0.08800300

                -----------------------------------------------
                  String-based Full Configuration Interaction
                          by Francesco A. Evangelista
                -----------------------------------------------

  Number of electrons: 6
  Charge: 0
  Multiplicity: 1
  Davidson subspace max dim: 8
  Davidson subspace min dim: 2
  M_s: 0

  ==> String Lists <==

  Number of alpha electrons     = 1
  Number of beta electrons      = 1
  Number of alpha strings       = 2
  Number of beta strings        = 2
  Timing for strings        =      0.000 s
  Timing for NN strings     =      0.000 s
  Timing for VO strings     =      0.000 s
  Timing for OO strings     =      0.000 s
  Timing for VVOO strings   =      0.000 s
  Timing for VOVO strings   =      0.000 s
  Timing for 1-hole strings =      0.000 s
  Timing for 2-hole strings =      0.000 s
  Timing for 3-hole strings =      0.000 s
  Total timing              =      0.000 s

  ==> FCI Solver <==

    Number of determinants                           2
    Symmetry                                         0
    Multiplicity                                     1
    Number of roots                                  1
    Target root                                      0
    Trial vectors per root                          10

  Allocating memory for the Hamiltonian algorithm. Size: 2 x 1 x 1.   Memory: 0.000000 GB

  ==> FCI Initial Guess <==

  ---------------------------------------------
    Root            Energy     <S^2>   Spin
  ---------------------------------------------
      0      -15.483411479480  0.000  singlet
      1      -15.440217680785  0.000  singlet
  ---------------------------------------------
  Timing for initial guess  =      0.000 s

  ==> Diagonalizing Hamiltonian <==

  ----------------------------------------
    Iter.      Avg. Energy       Delta_E
  ----------------------------------------
      1      -15.483411479480  -1.548e+01
      2      -15.483411479480  -3.553e-15
  ----------------------------------------
  The Davidson-Liu algorithm converged in 3 iterations.

  ==> Root No. 0 <==

    0 2     -0.91017273
    2 0      0.41422892

    Total Energy:       -15.483411479480155

  ==> Computing RDMs for Root No. 0 <==

    Timing for 1-RDM: 0.000 s
    Timing for 2-RDM: 0.000 s
    Timing for 3-RDM: 0.000 s

  ==> NATURAL ORBITALS <==

        1B2     1.656829      1A1     0.343171  


       -----------------------------------------------------------------
                            Semi-Canonical Orbitals
         Chenyang Li, Jeffrey B. Schriber and Francesco A. Evangelista
       -----------------------------------------------------------------

  Took 0.000715 s to build Fock matrix

  ==> Checking Fock Matrix Diagonal Blocks <==

    Off-Diag. Elements       Max           2-Norm
    ------------------------------------------------
    Fa actv              0.0000000000   0.0000000000
    Fb actv              0.0000000000   0.0000000000
    ------------------------------------------------
    Fa core              0.0000000000   0.0000000000
    Fb core              0.0000000000   0.0000000000
    ------------------------------------------------
    Fa virt              0.0179823487   0.0459297459
    Fb virt              0.0179823487   0.0459297459
    ------------------------------------------------

  ==> Integral Transformation to Semicanonical Basis <==
    Molecular point group: c2v
    Full point group: C2v

    Geometry (in Bohr), charge = 0, multiplicity = 3:

       Center              X                  Y                   Z               Mass       
    ------------   -----------------  -----------------  -----------------  -----------------
         BE           0.000000000000     0.000000000000    -0.502640731480     9.012182201000
         H           -0.000000000000     1.275000000000     2.247359268520     1.007825032070
         H            0.000000000000    -1.275000000000     2.247359268520     1.007825032070

  -AO BASIS SET INFORMATION:
    Name                   = ANONYMOUS684CA5D5
    Blend                  = ANONYMOUS684CA5D5
    Total number of shells = 9
    Number of primitives   = 21
    Number of AO           = 13
    Number of SO           = 13
    Maximum AM             = 1
    Spherical Harmonics    = FALSE

  -Contraction Scheme:
    Atom   Type   All Primitives // Shells:
   ------ ------ --------------------------
       1    BE     10s 3p // 3s 2p 
       2     H     4s // 2s 
       3     H     4s // 2s 

  ==> AO Basis Functions <==

    [ ANONYMOUS684CA5D5 ]
    cartesian
    ****
   BE   1
    S   6 1.00
                      1267.07000000           0.00194000
                       190.35600000           0.01478600
                        43.29590000           0.07179500
                        12.14420000           0.23634800
                         3.80923000           0.47176300
                         1.26847000           0.35518300
    S   3 1.00
                         5.69388000          -0.02887600
                         1.55563000          -0.17756500
                         0.17185500           1.07163000
    S   1 1.00
                         0.05718100           1.00000000
    P   1 1.00
                         5.69388000           1.00000000
    P   2 1.00
                         1.55563000           0.14404500
                         0.17185500           0.94969200
    ****
    H   2
    S   3 1.00
                        19.24060000           0.03282800
                         2.89920000           0.23120800
                         0.65340000           0.81723800
    S   1 1.00
                         0.17760000           1.00000000
    ****


 Integrals are about to be computed.
 Computing the Cholesky Vectors 

    Computing CD Integrals               ......Done. Timing        0.026288 s
 Need 0.000069 GB to store cd integrals in core

 Number of cholesky vectors 55 to satisfy       0.000100000000 tolerance

 Integrals are about to be updated.  Using in-core PK algorithm.
   Calculation information:
      Number of atoms:                   3
      Number of AO shells:               9
      Number of primitives:             21
      Number of atomic orbitals:        13
      Number of basis functions:        13

      Integral cutoff                 1.00e-12
      Number of threads:                 1

  Performing in-core PK
  Using 8372 doubles for integral storage.
  We computed 1035 shell quartets total.
  Whereas there are 1035 unique shell quartets.


  Frozen-core energy            -14.929378863416 a.u.

  FrozenOneBody Operator takes  0.05228900 s
  Resorting integrals after freezing core.
  Frozen Orbitals takes     0.052 s.

  ==> Reference Transformation to Semicanonical Basis <==

    Transformed 1 cumulants.
    Transformed 2 cumulants and RDMs.
    Transformed 3 cumulants.
  SemiCanonicalize takes 0.302663 s.

  ==> Multireference Driven Similarity Renormalization Group <==

    Reading DSRG options ............................ Done
    Setting ambit MO space .......................... Done
    Preparing tensors for density cumulants ......... Done
    Building Fock matrix ............................ Done
    Checking reference energy ....................... Done

           ----------------------------------------------------------
             Multireference Driven Similarity Renormalization Group
                                  Chenyang Li
           ----------------------------------------------------------

  Additional contributions by: Tianyuan Zhang

  ==> Density Cumulant Summary <==

    2-body             AA           AB           BB
    -----------------------------------------------
    max          0.142144     0.377020     0.142144
    norm         0.284288     0.604241     0.284288
    -----------------------------------------------
    3-body            AAA          AAB          ABB          BBB
    ------------------------------------------------------------
    max          0.000000     0.093364     0.093364     0.000000
    norm         0.000000     0.264074     0.264074     0.000000
    ------------------------------------------------------------

  ==> Checking Semicanonical Orbitals <==

    Abs. max of Fock core, active, virtual blocks (Fij, i != j)
                  core          active         virtual
    --------------------------------------------------
    Fα    0.0000000000    0.0000027020    0.0000348566
    Fβ    0.0000000000    0.0000027020    0.0000348566
    --------------------------------------------------

    1-Norm of Fock core, active, virtual blocks (Fij, i != j)
                  core          active         virtual
    --------------------------------------------------
    Fα    0.0000000000    0.0000054040    0.0002098329
    Fβ    0.0000000000    0.0000054040    0.0002098329
    --------------------------------------------------

    Orbitals are semi-canonicalized.

  ==> Calculation Information <==

    ntamp                                            15
    diis_min_vecs                                     2
    diis_max_vecs                                     5
    flow parameter                            1.000e+00
    taylor expansion threshold                1.000e-03
    intruder_tamp                             1.000e-01
    corr_level                                   LDSRG2
    int_type                                   CHOLESKY
    source operator                            STANDARD
    smart_dsrg_s                                 DSRG_S
    reference relaxation                          TWICE
    dsrg transformation type                    UNITARY
    core virtual source type                     NORMAL
    sequential dsrg transformation                FALSE
    omit blocks of >= 3 virtual indices            TRUE


  ==> MR-DSRG Reference Relaxation Iter. 0 <==


  ==> Build Initial Amplitude from DSRG-MRPT2 <==

    Computing T2 amplitudes ...          Done. Timing      0.007 s
    Computing T1 amplitudes ...          Done. Timing      0.001 s

  ==> First-Order Excitation Amplitudes Summary <==

    Active Indices:    1    8 
    Largest T1 amplitudes for spin case A:
       i       a                  i       a                  i       a               
    --------------------------------------------------------------------------------
    [  8      10    ]-0.030716 [  8       9    ]-0.020913 [  0       3    ]-0.015844 
    [  1       4    ]-0.015314 [  0       4    ] 0.012583 [  0       1    ] 0.011845 
    [  1       2    ]-0.010014 [  1       3    ] 0.006370 [  0       2    ]-0.002533 
    [  1       5    ]-0.000644 [  8      11    ] 0.000513 [  0       5    ]-0.000442 
    [  8       3    ]-0.000009 [  1      10    ] 0.000004 [  8       4    ]-0.000002 
    --------------------------------------------------------------------------------
    Norm of T1A vector: (nonzero elements: 23)                    0.048095519200794.
    --------------------------------------------------------------------------------
    Largest T1 amplitudes for spin case B:
       _       _                  _       _                  _       _               
       i       a                  i       a                  i       a               
    --------------------------------------------------------------------------------
    [  8      10    ]-0.030716 [  8       9    ]-0.020913 [  0       3    ]-0.015844 
    [  1       4    ]-0.015314 [  0       4    ] 0.012583 [  0       1    ] 0.011845 
    [  1       2    ]-0.010014 [  1       3    ] 0.006370 [  0       2    ]-0.002533 
    [  1       5    ]-0.000644 [  8      11    ] 0.000513 [  0       5    ]-0.000442 
    [  8       3    ]-0.000009 [  1      10    ] 0.000004 [  8       4    ]-0.000002 
    --------------------------------------------------------------------------------
    Norm of T1B vector: (nonzero elements: 23)                    0.048095519200794.
    --------------------------------------------------------------------------------
    Largest T2 amplitudes for spin case AA:
       i   j   a   b              i   j   a   b              i   j   a   b           
    --------------------------------------------------------------------------------
    [  0   1   1   3]-0.031123 [  1   8   1   9] 0.015439 [  0   8   3   9]-0.014312 
    [  1   8   3   9] 0.012538 [  0   1   8   9] 0.012234 [  0   8   2   8]-0.012230 
    [  1   8   4   8]-0.012204 [  1   8   2   9] 0.011231 [  0   8   3   8] 0.009942 
    [  0   1   2   3]-0.009786 [  0   8   1   9] 0.008910 [  0   8   4   8] 0.008832 
    [  1   8   2   8]-0.008288 [  1   8   3   8] 0.008093 [  0   8   1   8] 0.007581 
    --------------------------------------------------------------------------------
    Norm of T2AA vector: (nonzero elements: 432)                  0.106891066394467.
    --------------------------------------------------------------------------------
    Largest T2 amplitudes for spin case AB:
           _       _                  _       _                  _       _           
       i   j   a   b              i   j   a   b              i   j   a   b           
    --------------------------------------------------------------------------------
    [  0   0   8   8]-0.060731 [  8   8   8  10]-0.042448 [  8   8   9   9]-0.041150 
    [  0   8   4   8] 0.033136 [  0   0   3   3]-0.032661 [  1   1   9   9]-0.029472 
    [  0   8   3   9]-0.029301 [  0   0   8  10]-0.026106 [  8   8  10  10]-0.025647 
    [  1   1   1   2]-0.025101 [  0   0   8   9]-0.023634 [  1   8   1   9] 0.023380 
    [  1   1   2   2]-0.022528 [  1   1   6   6]-0.021019 [  0   1   8   9] 0.020931 
    --------------------------------------------------------------------------------
    Norm of T2AB vector: (nonzero elements: 733)                  0.199958026888592.
    --------------------------------------------------------------------------------
    Largest T2 amplitudes for spin case BB:
       _   _   _   _              _   _   _   _              _   _   _   _           
       i   j   a   b              i   j   a   b              i   j   a   b           
    --------------------------------------------------------------------------------
    [  0   1   1   3]-0.031123 [  1   8   1   9] 0.015439 [  0   8   3   9]-0.014312 
    [  1   8   3   9] 0.012538 [  0   1   8   9] 0.012234 [  0   8   2   8]-0.012230 
    [  1   8   4   8]-0.012204 [  1   8   2   9] 0.011231 [  0   8   3   8] 0.009942 
    [  0   1   2   3]-0.009786 [  0   8   1   9] 0.008910 [  0   8   4   8] 0.008832 
    [  1   8   2   8]-0.008288 [  1   8   3   8] 0.008093 [  0   8   1   8] 0.007581 
    --------------------------------------------------------------------------------
    Norm of T2BB vector: (nonzero elements: 432)                  0.106891066394467.
    --------------------------------------------------------------------------------

  ==> Possible Intruders <==

    T1 amplitudes larger than 0.1000 for spin case A: NULL
    T1 amplitudes larger than 0.1000 for spin case B: NULL
    T2 amplitudes larger than 0.1000 for spin case AA: NULL
    T2 amplitudes larger than 0.1000 for spin case AB: NULL
    T2 amplitudes larger than 0.1000 for spin case BB: NULL

  ==> Computing MR-LDSRG(2) Energy <==

    Reference:
      J. Chem. Phys. 2016, 144, 164114.

                  Energy (a.u.)           Non-Diagonal Norm        Amplitude RMS         Timings (s)   
           ---------------------------  ---------------------  ---------------------  -----------------
    Iter.        Corr.         Delta       Hbar1      Hbar2        T1         T2        Hbar     Amp.  
    ---------------------------------------------------------------------------------------------------
        0   -0.057850428227 -5.785e-02   1.281e-01  4.009e-01   7.861e-03  3.648e-02     6.442    0.004
        1   -0.060974657998 -3.124e-03   1.297e-01  3.888e-01   2.623e-03  9.592e-03     6.459    0.004
        2   -0.061732597152 -7.579e-04   1.300e-01  3.867e-01   9.383e-04  3.104e-03     6.987    0.004
        3   -0.061927552648 -1.950e-04   1.301e-01  3.864e-01   3.154e-04  1.131e-03     6.841    0.004
        4   -0.061986185658 -5.863e-05   1.301e-01  3.863e-01   1.113e-04  4.319e-04     6.999    0.005
        5   -0.062005478038 -1.929e-05   1.302e-01  3.863e-01   4.103e-05  1.699e-04     7.068    0.004 -> DIIS
        6   -0.062012036339 -6.558e-06   1.302e-01  3.863e-01   1.568e-05  6.822e-05     7.016    0.004 -> DIIS
        7   -0.062015662610 -3.626e-06   1.302e-01  3.863e-01   1.133e-07  7.894e-07     6.974    0.004 -> DIIS
        8   -0.062015636367  2.624e-08   1.302e-01  3.863e-01   2.036e-08  1.698e-07     6.972    0.004 -> DIIS
        9   -0.062015631784  4.584e-09   1.302e-01  3.863e-01   9.926e-09  2.919e-08     6.969    0.004
    ---------------------------------------------------------------------------------------------------

  ==> MR-LDSRG(2) Energy Summary <==

    E0 (reference)                 =     -15.483411479480155
    MR-LDSRG(2) correlation energy =      -0.062015631783682
    MR-LDSRG(2) total energy       =     -15.545427111263837

  ==> Final Excitation Amplitudes Summary <==

    Active Indices:    1    8 
    Largest T1 amplitudes for spin case A:
       i       a                  i       a                  i       a               
    --------------------------------------------------------------------------------
    [  8      10    ]-0.026187 [  8       9    ]-0.020881 [  0       3    ]-0.015501 
    [  1       4    ]-0.013109 [  0       1    ] 0.012346 [  1       2    ]-0.010483 
    [  0       4    ] 0.006443 [  1       3    ] 0.005489 [  0       2    ]-0.001343 
    [  8      11    ] 0.000652 [  0       5    ]-0.000621 [  1       5    ]-0.000532 
    [  8       3    ]-0.000012 [  8       4    ]-0.000005 [  1      10    ] 0.000005 
    --------------------------------------------------------------------------------
    Norm of T1A vector: (nonzero elements: 23)                    0.043252370339559.
    --------------------------------------------------------------------------------
    Largest T1 amplitudes for spin case B:
       _       _                  _       _                  _       _               
       i       a                  i       a                  i       a               
    --------------------------------------------------------------------------------
    [  8      10    ]-0.026187 [  8       9    ]-0.020881 [  0       3    ]-0.015501 
    [  1       4    ]-0.013109 [  0       1    ] 0.012346 [  1       2    ]-0.010483 
    [  0       4    ] 0.006443 [  1       3    ] 0.005489 [  0       2    ]-0.001343 
    [  8      11    ] 0.000652 [  0       5    ]-0.000621 [  1       5    ]-0.000532 
    [  8       3    ]-0.000012 [  8       4    ]-0.000005 [  1      10    ] 0.000005 
    --------------------------------------------------------------------------------
    Norm of T1B vector: (nonzero elements: 23)                    0.043252370339559.
    --------------------------------------------------------------------------------
    Largest T2 amplitudes for spin case AA:
       i   j   a   b              i   j   a   b              i   j   a   b           
    --------------------------------------------------------------------------------
    [  0   1   1   3]-0.030589 [  0   8   3   9]-0.016190 [  0   1   8   9] 0.013581 
    [  1   8   3   9] 0.013216 [  0   8   3   8] 0.013106 [  1   8   1   9] 0.012888 
    [  0   8   2   8]-0.012826 [  1   8   4   8]-0.012644 [  1   8   1  10]-0.010702 
    [  1   8   2   9] 0.010481 [  0   8   4   8] 0.010232 [  0   1   2   3]-0.008943 
    [  0   8   1   9] 0.008917 [  1   8   2   8]-0.008497 [  1   8   3   8] 0.007394 
    --------------------------------------------------------------------------------
    Norm of T2AA vector: (nonzero elements: 440)                  0.110313301777377.
    --------------------------------------------------------------------------------
    Largest T2 amplitudes for spin case AB:
           _       _                  _       _                  _       _           
       i   j   a   b              i   j   a   b              i   j   a   b           
    --------------------------------------------------------------------------------
    [  0   0   8   8]-0.058854 [  8   8   9   9]-0.050449 [  0   0   3   3]-0.047161 
    [  8   8   8  10]-0.043166 [  0   8   3   9]-0.039988 [  0   8   4   8] 0.038691 
    [  0   0   8  10]-0.034068 [  1   1   9   9]-0.029302 [  0   0   8   9]-0.029152 
    [  8   8  10  10]-0.025311 [  0   0   9   9]-0.024247 [  0   1   8   9] 0.024034 
    [  1   1   1   2]-0.023621 [  0   0  10  10]-0.023341 [  0   8   1   9] 0.022930 
    --------------------------------------------------------------------------------
    Norm of T2AB vector: (nonzero elements: 749)                  0.230128531604946.
    --------------------------------------------------------------------------------
    Largest T2 amplitudes for spin case BB:
       _   _   _   _              _   _   _   _              _   _   _   _           
       i   j   a   b              i   j   a   b              i   j   a   b           
    --------------------------------------------------------------------------------
    [  0   1   1   3]-0.030589 [  0   8   3   9]-0.016190 [  0   1   8   9] 0.013581 
    [  1   8   3   9] 0.013216 [  0   8   3   8] 0.013106 [  1   8   1   9] 0.012888 
    [  0   8   2   8]-0.012826 [  1   8   4   8]-0.012644 [  1   8   1  10]-0.010702 
    [  1   8   2   9] 0.010481 [  0   8   4   8] 0.010232 [  0   1   2   3]-0.008943 
    [  0   8   1   9] 0.008917 [  1   8   2   8]-0.008497 [  1   8   3   8] 0.007394 
    --------------------------------------------------------------------------------
    Norm of T2BB vector: (nonzero elements: 440)                  0.110313301777377.
    --------------------------------------------------------------------------------

  ==> Possible Intruders <==

    T1 amplitudes larger than 0.1000 for spin case A: NULL
    T1 amplitudes larger than 0.1000 for spin case B: NULL
    T2 amplitudes larger than 0.1000 for spin case AA: NULL
    T2 amplitudes larger than 0.1000 for spin case AB: NULL
    T2 amplitudes larger than 0.1000 for spin case BB: NULL

  ==> De-Normal-Order DSRG Transformed Hamiltonian <==

    Computing the scalar term                ... Done. Timing    0.002 s
    Computing the 1-body term                ... Done. Timing    0.001 s

  ==> Rotate DSRG Transformed Hamiltonian back to Original Basis <==

    Rotating 1-body term to original basis   ... Done. Timing    0.000 s
    Rotating 2-body term to original basis   ... Done. Timing    0.003 s

                -----------------------------------------------
                  String-based Full Configuration Interaction
                          by Francesco A. Evangelista
                -----------------------------------------------

  Number of electrons: 6
  Charge: 0
  Multiplicity: 1
  Davidson subspace max dim: 8
  Davidson subspace min dim: 2
  M_s: 0

  ==> String Lists <==

  Number of alpha electrons     = 1
  Number of beta electrons      = 1
  Number of alpha strings       = 2
  Number of beta strings        = 2
  Timing for strings        =      0.000 s
  Timing for NN strings     =      0.000 s
  Timing for VO strings     =      0.000 s
  Timing for OO strings     =      0.000 s
  Timing for VVOO strings   =      0.000 s
  Timing for VOVO strings   =      0.000 s
  Timing for 1-hole strings =      0.000 s
  Timing for 2-hole strings =      0.000 s
  Timing for 3-hole strings =      0.000 s
  Total timing              =      0.000 s

  ==> FCI Solver <==

    Number of determinants                           2
    Symmetry                                         0
    Multiplicity                                     1
    Number of roots                                  1
    Target root                                      0
    Trial vectors per root                          10

  Allocating memory for the Hamiltonian algorithm. Size: 2 x 1 x 1.   Memory: 0.000000 GB

  ==> FCI Initial Guess <==

  ---------------------------------------------
    Root            Energy     <S^2>   Spin
  ---------------------------------------------
      0      -15.545445272160  0.000  singlet
      1      -15.499155888492  0.000  singlet
  ---------------------------------------------
  Timing for initial guess  =      0.000 s

  ==> Diagonalizing Hamiltonian <==

  ----------------------------------------
    Iter.      Avg. Energy       Delta_E
  ----------------------------------------
      1      -15.545445272160  -1.555e+01
      2      -15.545445272160  -3.553e-15
  ----------------------------------------
  The Davidson-Liu algorithm converged in 3 iterations.

  ==> Root No. 0 <==

    0 2     -0.90178936
    2 0      0.43217583

    Total Energy:       -15.545445272159517

  ==> Computing RDMs for Root No. 0 <==

    Timing for 1-RDM: 0.000 s
    Timing for 2-RDM: 0.000 s
    Timing for 3-RDM: 0.000 s

  ==> NATURAL ORBITALS <==

        1B2     1.626448      1A1     0.373552  

  The following reference rotation will make the new reference and integrals in the same basis.

  ==> Reference Transformation to Semicanonical Basis <==

    Transformed 1 cumulants.
    Transformed 2 cumulants and RDMs.
    Transformed 3 cumulants.

  ==> Semicanonicalize Orbitals <==

  Took 0.000549 s to build Fock matrix

  ==> Checking Fock Matrix Diagonal Blocks <==

    Off-Diag. Elements       Max           2-Norm
    ------------------------------------------------
    Fa actv              0.0000000000   0.0000000000
    Fb actv              0.0000000000   0.0000000000
    ------------------------------------------------
    Fa core              0.0000000000   0.0000000000
    Fb core              0.0000000000   0.0000000000
    ------------------------------------------------
    Fa virt              0.0007223690   0.0018160436
    Fb virt              0.0007223690   0.0018160436
    ------------------------------------------------

  ==> Integral Transformation to Semicanonical Basis <==
    Molecular point group: c2v
    Full point group: C2v

    Geometry (in Bohr), charge = 0, multiplicity = 3:

       Center              X                  Y                   Z               Mass       
    ------------   -----------------  -----------------  -----------------  -----------------
         BE           0.000000000000     0.000000000000    -0.502640731480     9.012182201000
         H           -0.000000000000     1.275000000000     2.247359268520     1.007825032070
         H            0.000000000000    -1.275000000000     2.247359268520     1.007825032070

  -AO BASIS SET INFORMATION:
    Name                   = ANONYMOUS684CA5D5
    Blend                  = ANONYMOUS684CA5D5
    Total number of shells = 9
    Number of primitives   = 21
    Number of AO           = 13
    Number of SO           = 13
    Maximum AM             = 1
    Spherical Harmonics    = FALSE

  -Contraction Scheme:
    Atom   Type   All Primitives // Shells:
   ------ ------ --------------------------
       1    BE     10s 3p // 3s 2p 
       2     H     4s // 2s 
       3     H     4s // 2s 

  ==> AO Basis Functions <==

    [ ANONYMOUS684CA5D5 ]
    cartesian
    ****
   BE   1
    S   6 1.00
                      1267.07000000           0.00194000
                       190.35600000           0.01478600
                        43.29590000           0.07179500
                        12.14420000           0.23634800
                         3.80923000           0.47176300
                         1.26847000           0.35518300
    S   3 1.00
                         5.69388000          -0.02887600
                         1.55563000          -0.17756500
                         0.17185500           1.07163000
    S   1 1.00
                         0.05718100           1.00000000
    P   1 1.00
                         5.69388000           1.00000000
    P   2 1.00
                         1.55563000           0.14404500
                         0.17185500           0.94969200
    ****
    H   2
    S   3 1.00
                        19.24060000           0.03282800
                         2.89920000           0.23120800
                         0.65340000           0.81723800
    S   1 1.00
                         0.17760000           1.00000000
    ****


 Integrals are about to be computed.
 Computing the Cholesky Vectors 

    Computing CD Integrals               ......Done. Timing        0.026973 s
 Need 0.000069 GB to store cd integrals in core

 Number of cholesky vectors 55 to satisfy       0.000100000000 tolerance

 Integrals are about to be updated.  Using in-core PK algorithm.
   Calculation information:
      Number of atoms:                   3
      Number of AO shells:               9
      Number of primitives:             21
      Number of atomic orbitals:        13
      Number of basis functions:        13

      Integral cutoff                 1.00e-12
      Number of threads:                 1

  Performing in-core PK
  Using 8372 doubles for integral storage.
  We computed 1035 shell quartets total.
  Whereas there are 1035 unique shell quartets.


  Frozen-core energy            -14.929378863416 a.u.

  FrozenOneBody Operator takes  0.05164600 s
  Resorting integrals after freezing core.
  Frozen Orbitals takes     0.052 s.

  ==> Reference Transformation to Semicanonical Basis <==

    Transformed 1 cumulants.
    Transformed 2 cumulants and RDMs.
    Transformed 3 cumulants.
  SemiCanonicalize takes 0.306302 s.

  ==> Density Cumulant Summary <==

    2-body             AA           AB           BB
    -----------------------------------------------
    max          0.151891     0.389732     0.151891
    norm         0.303781     0.629337     0.303781
    -----------------------------------------------
    3-body            AAA          AAB          ABB          BBB
    ------------------------------------------------------------
    max          0.000000     0.095152     0.095152     0.000000
    norm         0.000000     0.269129     0.269129     0.000000
    ------------------------------------------------------------

  ==> MR-DSRG Reference Relaxation Iter. 1 <==


  ==> Build Initial Amplitude from DSRG-MRPT2 <==

    Computing T2 amplitudes ...          Done. Timing      0.005 s
    Computing T1 amplitudes ...          Done. Timing      0.001 s

  ==> First-Order Excitation Amplitudes Summary <==

    Active Indices:    1    8 
    Largest T1 amplitudes for spin case A:
       i       a                  i       a                  i       a               
    --------------------------------------------------------------------------------
    [  8      10    ]-0.030369 [  8       9    ] 0.020056 [  0       3    ] 0.015134 
    [  1       4    ]-0.014880 [  0       4    ] 0.012008 [  0       1    ] 0.011471 
    [  1       2    ]-0.010230 [  1       3    ]-0.005771 [  0       2    ]-0.002377 
    [  1       5    ]-0.000601 [  8      11    ] 0.000494 [  0       5    ]-0.000421 
    [  8       3    ] 0.000009 [  1      10    ] 0.000004 [  8       4    ]-0.000003 
    --------------------------------------------------------------------------------
    Norm of T1A vector: (nonzero elements: 23)                    0.046851951841573.
    --------------------------------------------------------------------------------
    Largest T1 amplitudes for spin case B:
       _       _                  _       _                  _       _               
       i       a                  i       a                  i       a               
    --------------------------------------------------------------------------------
    [  8      10    ]-0.030369 [  8       9    ] 0.020056 [  0       3    ] 0.015134 
    [  1       4    ]-0.014880 [  0       4    ] 0.012008 [  0       1    ] 0.011471 
    [  1       2    ]-0.010230 [  1       3    ]-0.005771 [  0       2    ]-0.002377 
    [  1       5    ]-0.000601 [  8      11    ] 0.000494 [  0       5    ]-0.000421 
    [  8       3    ] 0.000009 [  1      10    ] 0.000004 [  8       4    ]-0.000003 
    --------------------------------------------------------------------------------
    Norm of T1B vector: (nonzero elements: 23)                    0.046851951841573.
    --------------------------------------------------------------------------------
    Largest T2 amplitudes for spin case AA:
       i   j   a   b              i   j   a   b              i   j   a   b           
    --------------------------------------------------------------------------------
    [  0   1   1   3] 0.031129 [  1   8   1   9]-0.015393 [  0   8   3   9]-0.014308 
    [  1   8   3   9] 0.012581 [  0   1   8   9]-0.012318 [  0   8   2   8]-0.012311 
    [  1   8   4   8]-0.012227 [  1   8   2   9]-0.011196 [  0   8   3   8]-0.009903 
    [  0   1   2   3] 0.009781 [  0   8   1   9]-0.008914 [  0   8   4   8] 0.008828 
    [  1   8   2   8]-0.008373 [  1   8   3   8]-0.008059 [  0   8   1   8] 0.007607 
    --------------------------------------------------------------------------------
    Norm of T2AA vector: (nonzero elements: 432)                  0.107008202945318.
    --------------------------------------------------------------------------------
    Largest T2 amplitudes for spin case AB:
           _       _                  _       _                  _       _           
       i   j   a   b              i   j   a   b              i   j   a   b           
    --------------------------------------------------------------------------------
    [  0   0   8   8]-0.061318 [  8   8   8  10]-0.042503 [  8   8   9   9]-0.041116 
    [  0   8   4   8] 0.033148 [  0   0   3   3]-0.032576 [  1   1   9   9]-0.029588 
    [  0   8   3   9]-0.029296 [  0   0   8  10]-0.026055 [  8   8  10  10]-0.025754 
    [  1   1   1   2]-0.025245 [  0   0   8   9] 0.023671 [  1   8   1   9]-0.023311 
    [  1   1   2   2]-0.022579 [  1   1   6   6]-0.021272 [  0   1   8   9]-0.021079 
    --------------------------------------------------------------------------------
    Norm of T2AB vector: (nonzero elements: 733)                  0.200405978087161.
    --------------------------------------------------------------------------------
    Largest T2 amplitudes for spin case BB:
       _   _   _   _              _   _   _   _              _   _   _   _           
       i   j   a   b              i   j   a   b              i   j   a   b           
    --------------------------------------------------------------------------------
    [  0   1   1   3] 0.031129 [  1   8   1   9]-0.015393 [  0   8   3   9]-0.014308 
    [  1   8   3   9] 0.012581 [  0   1   8   9]-0.012318 [  0   8   2   8]-0.012311 
    [  1   8   4   8]-0.012227 [  1   8   2   9]-0.011196 [  0   8   3   8]-0.009903 
    [  0   1   2   3] 0.009781 [  0   8   1   9]-0.008914 [  0   8   4   8] 0.008828 
    [  1   8   2   8]-0.008373 [  1   8   3   8]-0.008059 [  0   8   1   8] 0.007607 
    --------------------------------------------------------------------------------
    Norm of T2BB vector: (nonzero elements: 432)                  0.107008202945318.
    --------------------------------------------------------------------------------

  ==> Possible Intruders <==

    T1 amplitudes larger than 0.1000 for spin case A: NULL
    T1 amplitudes larger than 0.1000 for spin case B: NULL
    T2 amplitudes larger than 0.1000 for spin case AA: NULL
    T2 amplitudes larger than 0.1000 for spin case AB: NULL
    T2 amplitudes larger than 0.1000 for spin case BB: NULL

  ==> Computing MR-LDSRG(2) Energy <==

    Reference:
      J. Chem. Phys. 2016, 144, 164114.

                  Energy (a.u.)           Non-Diagonal Norm        Amplitude RMS         Timings (s)   
           ---------------------------  ---------------------  ---------------------  -----------------
    Iter.        Corr.         Delta       Hbar1      Hbar2        T1         T2        Hbar     Amp.  
    ---------------------------------------------------------------------------------------------------
        0   -0.057886161965 -5.789e-02   1.248e-01  4.003e-01   8.104e-03  3.629e-02     6.401    0.004
        1   -0.060987093512 -3.101e-03   1.263e-01  3.881e-01   2.643e-03  9.544e-03     6.402    0.004
        2   -0.061740956469 -7.539e-04   1.265e-01  3.861e-01   9.344e-04  3.071e-03     6.976    0.004
        3   -0.061933070950 -1.921e-04   1.267e-01  3.857e-01   3.088e-04  1.109e-03     6.937    0.004
        4   -0.061990398771 -5.733e-05   1.267e-01  3.857e-01   1.072e-04  4.182e-04     6.889    0.004
        5   -0.062009085643 -1.869e-05   1.267e-01  3.857e-01   3.890e-05  1.626e-04     6.956    0.004 -> DIIS
        6   -0.062015365440 -6.280e-06   1.267e-01  3.857e-01   1.467e-05  6.448e-05     7.053    0.004 -> DIIS
        7   -0.062018768819 -3.403e-06   1.267e-01  3.857e-01   1.127e-07  7.448e-07     6.890    0.004 -> DIIS
        8   -0.062018743393  2.543e-08   1.267e-01  3.857e-01   1.802e-08  1.589e-07     6.971    0.004 -> DIIS
        9   -0.062018739079  4.314e-09   1.267e-01  3.857e-01   9.285e-09  2.775e-08     6.984    0.004
    ---------------------------------------------------------------------------------------------------

  ==> MR-LDSRG(2) Energy Summary <==

    E0 (reference)                 =     -15.483394533087488
    MR-LDSRG(2) correlation energy =      -0.062018739079017
    MR-LDSRG(2) total energy       =     -15.545413272166504

  ==> Final Excitation Amplitudes Summary <==

    Active Indices:    1    8 
    Largest T1 amplitudes for spin case A:
       i       a                  i       a                  i       a               
    --------------------------------------------------------------------------------
    [  8      10    ]-0.025816 [  8       9    ] 0.020105 [  0       3    ] 0.014773 
    [  1       4    ]-0.012541 [  0       1    ] 0.011993 [  1       2    ]-0.010692 
    [  0       4    ] 0.005695 [  1       3    ]-0.004853 [  0       2    ]-0.001166 
    [  8      11    ] 0.000635 [  0       5    ]-0.000602 [  1       5    ]-0.000490 
    [  8       3    ] 0.000012 [  8       4    ]-0.000005 [  1      10    ] 0.000005 
    --------------------------------------------------------------------------------
    Norm of T1A vector: (nonzero elements: 23)                    0.041984115786422.
    --------------------------------------------------------------------------------
    Largest T1 amplitudes for spin case B:
       _       _                  _       _                  _       _               
       i       a                  i       a                  i       a               
    --------------------------------------------------------------------------------
    [  8      10    ]-0.025816 [  8       9    ] 0.020105 [  0       3    ] 0.014773 
    [  1       4    ]-0.012541 [  0       1    ] 0.011993 [  1       2    ]-0.010692 
    [  0       4    ] 0.005695 [  1       3    ]-0.004853 [  0       2    ]-0.001166 
    [  8      11    ] 0.000635 [  0       5    ]-0.000602 [  1       5    ]-0.000490 
    [  8       3    ] 0.000012 [  8       4    ]-0.000005 [  1      10    ] 0.000005 
    --------------------------------------------------------------------------------
    Norm of T1B vector: (nonzero elements: 23)                    0.041984115786422.
    --------------------------------------------------------------------------------
    Largest T2 amplitudes for spin case AA:
       i   j   a   b              i   j   a   b              i   j   a   b           
    --------------------------------------------------------------------------------
    [  0   1   1   3] 0.030632 [  0   8   3   9]-0.016152 [  0   1   8   9]-0.013674 
    [  1   8   3   9] 0.013263 [  0   8   3   8]-0.012952 [  0   8   2   8]-0.012949 
    [  1   8   1   9]-0.012836 [  1   8   4   8]-0.012711 [  1   8   1  10]-0.010677 
    [  1   8   2   9]-0.010449 [  0   8   4   8] 0.010341 [  0   8   1   9]-0.008961 
    [  0   1   2   3] 0.008947 [  1   8   2   8]-0.008583 [  1   8   3   8]-0.007399 
    --------------------------------------------------------------------------------
    Norm of T2AA vector: (nonzero elements: 440)                  0.110516135688275.
    --------------------------------------------------------------------------------
    Largest T2 amplitudes for spin case AB:
           _       _                  _       _                  _       _           
       i   j   a   b              i   j   a   b              i   j   a   b           
    --------------------------------------------------------------------------------
    [  0   0   8   8]-0.059851 [  8   8   9   9]-0.050057 [  0   0   3   3]-0.046936 
    [  8   8   8  10]-0.043044 [  0   8   3   9]-0.039844 [  0   8   4   8] 0.038810 
    [  0   0   8  10]-0.034236 [  1   1   9   9]-0.029533 [  0   0   8   9] 0.029399 
    [  8   8  10  10]-0.025292 [  0   0   9   9]-0.024324 [  0   1   8   9]-0.024263 
    [  1   1   1   2]-0.023780 [  0   0  10  10]-0.023382 [  1   8   4   8]-0.022962 
    --------------------------------------------------------------------------------
    Norm of T2AB vector: (nonzero elements: 749)                  0.230525059855338.
    --------------------------------------------------------------------------------
    Largest T2 amplitudes for spin case BB:
       _   _   _   _              _   _   _   _              _   _   _   _           
       i   j   a   b              i   j   a   b              i   j   a   b           
    --------------------------------------------------------------------------------
    [  0   1   1   3] 0.030632 [  0   8   3   9]-0.016152 [  0   1   8   9]-0.013674 
    [  1   8   3   9] 0.013263 [  0   8   3   8]-0.012952 [  0   8   2   8]-0.012949 
    [  1   8   1   9]-0.012836 [  1   8   4   8]-0.012711 [  1   8   1  10]-0.010677 
    [  1   8   2   9]-0.010449 [  0   8   4   8] 0.010341 [  0   8   1   9]-0.008961 
    [  0   1   2   3] 0.008947 [  1   8   2   8]-0.008583 [  1   8   3   8]-0.007399 
    --------------------------------------------------------------------------------
    Norm of T2BB vector: (nonzero elements: 440)                  0.110516135688275.
    --------------------------------------------------------------------------------

  ==> Possible Intruders <==

    T1 amplitudes larger than 0.1000 for spin case A: NULL
    T1 amplitudes larger than 0.1000 for spin case B: NULL
    T2 amplitudes larger than 0.1000 for spin case AA: NULL
    T2 amplitudes larger than 0.1000 for spin case AB: NULL
    T2 amplitudes larger than 0.1000 for spin case BB: NULL

  ==> De-Normal-Order DSRG Transformed Hamiltonian <==

    Computing the scalar term                ... Done. Timing    0.002 s
    Computing the 1-body term                ... Done. Timing    0.001 s

  ==> Rotate DSRG Transformed Hamiltonian back to Original Basis <==

    Rotating 1-body term to original basis   ... Done. Timing    0.000 s
    Rotating 2-body term to original basis   ... Done. Timing    0.004 s

                -----------------------------------------------
                  String-based Full Configuration Interaction
                          by Francesco A. Evangelista
                -----------------------------------------------

  Number of electrons: 6
  Charge: 0
  Multiplicity: 1
  Davidson subspace max dim: 8
  Davidson subspace min dim: 2
  M_s: 0

  ==> String Lists <==

  Number of alpha electrons     = 1
  Number of beta electrons      = 1
  Number of alpha strings       = 2
  Number of beta strings        = 2
  Timing for strings        =      0.000 s
  Timing for NN strings     =      0.000 s
  Timing for VO strings     =      0.000 s
  Timing for OO strings     =      0.000 s
  Timing for VVOO strings   =      0.000 s
  Timing for VOVO strings   =      0.000 s
  Timing for 1-hole strings =      0.000 s
  Timing for 2-hole strings =      0.000 s
  Timing for 3-hole strings =      0.000 s
  Total timing              =      0.000 s

  ==> FCI Solver <==

    Number of determinants                           2
    Symmetry                                         0
    Multiplicity                                     1
    Number of roots                                  1
    Target root                                      0
    Trial vectors per root                          10

  Allocating memory for the Hamiltonian algorithm. Size: 2 x 1 x 1.   Memory: 0.000000 GB

  ==> FCI Initial Guess <==

  ---------------------------------------------
    Root            Energy     <S^2>   Spin
  ---------------------------------------------
      0      -15.545413291665  0.000  singlet
      1      -15.499000747620  0.000  singlet
  ---------------------------------------------
  Timing for initial guess  =      0.000 s

  ==> Diagonalizing Hamiltonian <==

  ----------------------------------------
    Iter.      Avg. Energy       Delta_E
  ----------------------------------------
      1      -15.545413291665  -1.555e+01
      2      -15.545413291665  +0.000e+00
  ----------------------------------------
  The Davidson-Liu algorithm converged in 3 iterations.

  ==> Root No. 0 <==

    0 2     -0.90206929
    2 0      0.43159123

    Total Energy:       -15.545413291665268

  ==> Computing RDMs for Root No. 0 <==

    Timing for 1-RDM: 0.000 s
    Timing for 2-RDM: 0.000 s
    Timing for 3-RDM: 0.000 s

  ==> NATURAL ORBITALS <==

        1B2     1.627458      1A1     0.372542  

  The following reference rotation will make the new reference and integrals in the same basis.

  ==> Reference Transformation to Semicanonical Basis <==

    Transformed 1 cumulants.
    Transformed 2 cumulants and RDMs.
    Transformed 3 cumulants.

  ==> Semicanonicalize Orbitals <==

  Took 0.000651 s to build Fock matrix

  ==> Checking Fock Matrix Diagonal Blocks <==

    Off-Diag. Elements       Max           2-Norm
    ------------------------------------------------
    Fa actv              0.0000000000   0.0000000000
    Fb actv              0.0000000000   0.0000000000
    ------------------------------------------------
    Fa core              0.0000000000   0.0000000000
    Fb core              0.0000000000   0.0000000000
    ------------------------------------------------
    Fa virt              0.0000241644   0.0000606598
    Fb virt              0.0000241644   0.0000606598
    ------------------------------------------------

  ==> Integral Transformation to Semicanonical Basis <==
    Molecular point group: c2v
    Full point group: C2v

    Geometry (in Bohr), charge = 0, multiplicity = 3:

       Center              X                  Y                   Z               Mass       
    ------------   -----------------  -----------------  -----------------  -----------------
         BE           0.000000000000     0.000000000000    -0.502640731480     9.012182201000
         H           -0.000000000000     1.275000000000     2.247359268520     1.007825032070
         H            0.000000000000    -1.275000000000     2.247359268520     1.007825032070

  -AO BASIS SET INFORMATION:
    Name                   = ANONYMOUS684CA5D5
    Blend                  = ANONYMOUS684CA5D5
    Total number of shells = 9
    Number of primitives   = 21
    Number of AO           = 13
    Number of SO           = 13
    Maximum AM             = 1
    Spherical Harmonics    = FALSE

  -Contraction Scheme:
    Atom   Type   All Primitives // Shells:
   ------ ------ --------------------------
       1    BE     10s 3p // 3s 2p 
       2     H     4s // 2s 
       3     H     4s // 2s 

  ==> AO Basis Functions <==

    [ ANONYMOUS684CA5D5 ]
    cartesian
    ****
   BE   1
    S   6 1.00
                      1267.07000000           0.00194000
                       190.35600000           0.01478600
                        43.29590000           0.07179500
                        12.14420000           0.23634800
                         3.80923000           0.47176300
                         1.26847000           0.35518300
    S   3 1.00
                         5.69388000          -0.02887600
                         1.55563000          -0.17756500
                         0.17185500           1.07163000
    S   1 1.00
                         0.05718100           1.00000000
    P   1 1.00
                         5.69388000           1.00000000
    P   2 1.00
                         1.55563000           0.14404500
                         0.17185500           0.94969200
    ****
    H   2
    S   3 1.00
                        19.24060000           0.03282800
                         2.89920000           0.23120800
                         0.65340000           0.81723800
    S   1 1.00
                         0.17760000           1.00000000
    ****


 Integrals are about to be computed.
 Computing the Cholesky Vectors 

    Computing CD Integrals               ......Done. Timing        0.026298 s
 Need 0.000069 GB to store cd integrals in core

 Number of cholesky vectors 55 to satisfy       0.000100000000 tolerance

 Integrals are about to be updated.  Using in-core PK algorithm.
   Calculation information:
      Number of atoms:                   3
      Number of AO shells:               9
      Number of primitives:             21
      Number of atomic orbitals:        13
      Number of basis functions:        13

      Integral cutoff                 1.00e-12
      Number of threads:                 1

  Performing in-core PK
  Using 8372 doubles for integral storage.
  We computed 1035 shell quartets total.
  Whereas there are 1035 unique shell quartets.


  Frozen-core energy            -14.929378863416 a.u.

  FrozenOneBody Operator takes  0.04982800 s
  Resorting integrals after freezing core.
  Frozen Orbitals takes     0.050 s.

  ==> Reference Transformation to Semicanonical Basis <==

    Transformed 1 cumulants.
    Transformed 2 cumulants and RDMs.
    Transformed 3 cumulants.
  SemiCanonicalize takes 0.294256 s.

  ==> Density Cumulant Summary <==

    2-body             AA           AB           BB
    -----------------------------------------------
    max          0.151574     0.389325     0.151574
    norm         0.303148     0.628528     0.303148
    -----------------------------------------------
    3-body            AAA          AAB          ABB          BBB
    ------------------------------------------------------------
    max          0.000000     0.095106     0.095106     0.000000
    norm         0.000000     0.269001     0.269001     0.000000
    ------------------------------------------------------------

  ==> MRDSRG Reference Relaxation Summary <==

                  Fixed Ref. (a.u.)               Relaxed Ref. (a.u.)      
           -------------------------------  -------------------------------
    Iter.      Total Energy        Delta        Total Energy        Delta  
    -----------------------------------------------------------------------
        0      -15.545427111264 -1.555e+01      -15.545445272160 -1.555e+01
        1      -15.545413272167  1.384e-05      -15.545413291665  3.198e-05
    -----------------------------------------------------------------------
    MRDSRG Total Energy            =     -15.545413272166504
    MRDSRG Total Energy (relaxed)  =     -15.545413291665268


  ==> Total Timings (s) for Computing Commutators <==

             [H1, T1]    [H1, T2]    [H2, T1]    [H2, T2]
    -----------------------------------------------------
    -> C0       0.094       0.200       0.390       6.224
    -> C1       0.240       1.459       2.568      35.376
    -> C2                   5.562      14.148      82.603
    -----------------------------------------------------
	MRDSRG unrelaxed energy...........................................PASSED
	MRDSRG partially relaxed energy...................................PASSED
	MRDSRG relaxed energy.............................................PASSED

    Psi4 stopped on: Thursday, 05 July 2018 09:42PM
    Psi4 wall time for execution: 0:02:33.21

*** Psi4 exiting successfully. Buy a developer a beer!
