
    -----------------------------------------------------------------------
          Psi4: An Open-Source Ab Initio Electronic Structure Package
                               Psi4 1.2a1.dev491 

                         Git: Rev {master} 09b4ef6 


    R. M. Parrish, L. A. Burns, D. G. A. Smith, A. C. Simmonett,
    A. E. DePrince III, E. G. Hohenstein, U. Bozkaya, A. Yu. Sokolov,
    R. Di Remigio, R. M. Richard, J. F. Gonthier, A. M. James,
    H. R. McAlexander, A. Kumar, M. Saitow, X. Wang, B. P. Pritchard,
    P. Verma, H. F. Schaefer III, K. Patkowski, R. A. King, E. F. Valeev,
    F. A. Evangelista, J. M. Turney, T. D. Crawford, and C. D. Sherrill,
    J. Chem. Theory Comput. 13(7) pp 3185--3197 (2017).
    (doi: 10.1021/acs.jctc.7b00174)

    -----------------------------------------------------------------------


    Psi4 started on: Tuesday, 19 September 2017 03:04AM

    Process ID:  26011
    PSIDATADIR: /Users/york/src/psi4new/psi4/share/psi4
    Memory:     500.0 MiB
    Threads:    1
    
  ==> Input File <==

--------------------------------------------------------------------------
#! Example of state-averaged CASSCF for the C2 molecule
#! see C. D. Sherrill and P. Piecuch, J. Chem. Phys. 122, 124104 (2005)

import forte 

molecule {
0 1
C
C 1 1.20
}

set globals{
  basis               6-31G*
  df_basis_scf        cc-pvdz-jkfit
  df_basis_mp2        cc-pvdz-ri
  reference           rhf
  docc                [2, 0, 0, 0, 0, 2, 1, 1]
  restricted_docc     [1, 0, 0, 0, 0, 1, 0, 0]
  active              [2, 0, 1, 1, 0, 2, 1, 1]
  e_convergence       1e-12
  d_convergence       1e-8
  r_convergence       1e-8
  mcscf_e_convergence 1e-12
  mcscf_r_convergence 1e-8
  scf_type            pk
  num_roots           3
  avg_states          [0, 1, 2]
}
casscf_energy = energy('casscf')

set scf_type direct
set forte {
  job_type               casscf
  casscf_reference       true
  casscf_iterations      25
  restricted_docc        [1, 0, 0, 0, 0, 1, 0, 0]
  active                 [2, 0, 1, 1, 0, 2, 1, 1]
  print                  1
  casscf_g_convergence   1e-6
  casscf_e_convergence   1e-10
  casscf_debug_printing  false
  avg_state              [[0, 1, 3]]
  int_type               conventional
}
Eforte = energy('forte')
compare_values(Eforte, casscf_energy, 6, 'CASSCF Energy')  #TEST

--------------------------------------------------------------------------

*** tstart() called on Yorks-Mac.local
*** at Tue Sep 19 03:04:18 2017

   => Loading Basis Set <=

    Name: 6-31G*
    Role: ORBITAL
    Keyword: BASIS
    atoms 1-2 entry C          line   103 file /Users/york/src/psi4new/psi4/share/psi4/basis/6-31gs.gbs 


         ---------------------------------------------------------
                                   SCF
            by Justin Turney, Rob Parrish, Andy Simmonett
                             and Daniel Smith
                              RHF Reference
                        1 Threads,    500 MiB Core
         ---------------------------------------------------------

  ==> Geometry <==

    Molecular point group: d2h
    Full point group: D_inf_h

    Geometry (in Angstrom), charge = 0, multiplicity = 1:

       Center              X                  Y                   Z               Mass       
    ------------   -----------------  -----------------  -----------------  -----------------
           C          0.000000000000     0.000000000000    -0.600000000000    12.000000000000
           C          0.000000000000     0.000000000000     0.600000000000    12.000000000000

  Running in d2h symmetry.

  Rotational constants: A = ************  B =      1.95111  C =      1.95111 [cm^-1]
  Rotational constants: A = ************  B =  58492.94039  C =  58492.94039 [MHz]
  Nuclear repulsion =   15.875316257700003

  Charge       = 0
  Multiplicity = 1
  Electrons    = 12
  Nalpha       = 6
  Nbeta        = 6

  ==> Algorithm <==

  SCF Algorithm Type is PK.
  DIIS enabled.
  MOM disabled.
  Fractional occupation disabled.
  Guess Type is SAD.
  Energy threshold   = 1.00e-12
  Density threshold  = 1.00e-08
  Integral threshold = 0.00e+00

  ==> Primary Basis <==

  Basis Set: 6-31G*
    Blend: 6-31G*
    Number of shells: 12
    Number of basis function: 30
    Number of Cartesian functions: 30
    Spherical Harmonics?: false
    Max angular momentum: 2

  ==> Pre-Iterations <==

   -------------------------------------------------------
    Irrep   Nso     Nmo     Nalpha   Nbeta   Ndocc  Nsocc
   -------------------------------------------------------
     Ag         8       8       2       2       2       0
     B1g        1       1       0       0       0       0
     B2g        3       3       0       0       0       0
     B3g        3       3       0       0       0       0
     Au         1       1       0       0       0       0
     B1u        8       8       2       2       2       0
     B2u        3       3       1       1       1       0
     B3u        3       3       1       1       1       0
   -------------------------------------------------------
    Total      30      30       6       6       6       0
   -------------------------------------------------------

  ==> Integral Setup <==

  Using in-core PK algorithm.
   Calculation information:
      Number of atoms:                   2
      Number of AO shells:              12
      Number of primitives:             30
      Number of atomic orbitals:        30
      Number of basis functions:        30

      Integral cutoff                 1.00e-12
      Number of threads:                 1

  Performing in-core PK
  Using 216690 doubles for integral storage.
  We computed 3081 shell quartets total.
  Whereas there are 3081 unique shell quartets.
  ==> DiskJK: Disk-Based J/K Matrices <==

    J tasked:                  Yes
    K tasked:                  Yes
    wK tasked:                  No
    Memory (MB):               375
    Schwarz Cutoff:          1E-12

    OpenMP threads:              1
  Minimum eigenvalue in the overlap matrix is 4.9495510579E-03.
  Using Symmetric Orthogonalization.

  SCF Guess: Superposition of Atomic Densities via on-the-fly atomic UHF.

  ==> Iterations <==

                        Total Energy        Delta E     RMS |[F,P]|

   @RHF iter   0:   -75.23299338388811   -7.52330e+01   1.26823e-01 
   @RHF iter   1:   -75.35917212352548   -1.26179e-01   9.39916e-03 
   @RHF iter   2:   -75.37335809220485   -1.41860e-02   3.43236e-03 DIIS
   @RHF iter   3:   -75.37555540466772   -2.19731e-03   7.25153e-04 DIIS
   @RHF iter   4:   -75.37565754817524   -1.02144e-04   1.58838e-04 DIIS
   @RHF iter   5:   -75.37566250337474   -4.95520e-06   1.68228e-05 DIIS
   @RHF iter   6:   -75.37566253490692   -3.15322e-08   1.03326e-06 DIIS
   @RHF iter   7:   -75.37566253510690   -1.99975e-10   1.69727e-07 DIIS
   @RHF iter   8:   -75.37566253511153   -4.63274e-12   2.22194e-08 DIIS
   @RHF iter   9:   -75.37566253511160   -7.10543e-14   1.58648e-09 DIIS

  ==> Post-Iterations <==

    Orbital Energies (a.u.)
    -----------------------

    Doubly Occupied:                                                      

       1Ag   -11.345479     1B1u  -11.342482     2Ag    -1.069183  
       2B1u   -0.499387     1B3u   -0.459767     1B2u   -0.459767  

    Virtual:                                                              

       3Ag    -0.096227     1B2g    0.192836     1B3g    0.192836  
       3B1u    0.482452     4Ag     0.651518     2B3u    0.703331  
       2B2u    0.703331     5Ag     0.761933     2B2g    0.863149  
       2B3g    0.863149     4B1u    0.976739     5B1u    1.391894  
       1B1g    1.764970     6Ag     1.764970     3B3u    1.777341  
       3B2u    1.777341     1Au     2.207447     6B1u    2.207447  
       7Ag     2.476083     3B3g    2.815873     3B2g    2.815873  
       7B1u    3.241595     8Ag     4.308505     8B1u    4.452386  

    Final Occupation by Irrep:
             Ag   B1g   B2g   B3g    Au   B1u   B2u   B3u 
    DOCC [     2,    0,    0,    0,    0,    2,    1,    1 ]

  Energy converged.

  @RHF Final Energy:   -75.37566253511160

   => Energetics <=

    Nuclear Repulsion Energy =             15.8753162577000033
    One-Electron Energy =                -132.1498269137627801
    Two-Electron Energy =                  40.8988481209511718
    PCM Polarization Energy =               0.0000000000000000
    Total Energy =                        -75.3756625351116014

    Alert: EFP and PCM quantities not currently incorporated into SCF psivars.

Properties will be evaluated at   0.000000,   0.000000,   0.000000 Bohr

Properties computed using the SCF density matrix

  Nuclear Dipole Moment: (a.u.)
     X:     0.0000      Y:     0.0000      Z:     0.0000

  Electronic Dipole Moment: (a.u.)
     X:     0.0000      Y:     0.0000      Z:     0.0000

  Dipole Moment: (a.u.)
     X:     0.0000      Y:     0.0000      Z:     0.0000     Total:     0.0000

  Dipole Moment: (Debye)
     X:     0.0000      Y:     0.0000      Z:     0.0000     Total:     0.0000


*** tstop() called on Yorks-Mac.local at Tue Sep 19 03:04:19 2017
Module time:
	user time   =       0.47 seconds =       0.01 minutes
	system time =       0.04 seconds =       0.00 minutes
	total time  =          1 seconds =       0.02 minutes
Total time:
	user time   =       0.47 seconds =       0.01 minutes
	system time =       0.04 seconds =       0.00 minutes
	total time  =          1 seconds =       0.02 minutes
 MINTS: Wrapper to libmints.
   by Justin Turney

   Calculation information:
      Number of threads:                 1
      Number of atoms:                   2
      Number of AO shells:              12
      Number of SO shells:               6
      Number of primitives:             30
      Number of atomic orbitals:        30
      Number of basis functions:        30

      Number of irreps:                  8
      Integral cutoff                 1.00e-12
      Number of functions per irrep: [   8    1    3    3    1    8    3    3 ]

 OEINTS: Overlap, kinetic, potential, dipole, and quadrupole integrals
         stored in file 35.

      Computing two-electron integrals...done
      Computed 15467 non-zero two-electron integrals.
        Stored in file 33.

 MINTS: Wrapper to libmints.
   by Justin Turney

   Calculation information:
      Number of threads:                 1
      Number of atoms:                   2
      Number of AO shells:              12
      Number of SO shells:               6
      Number of primitives:             30
      Number of atomic orbitals:        30
      Number of basis functions:        30

      Number of irreps:                  8
      Integral cutoff                 0.00e+00
      Number of functions per irrep: [   8    1    3    3    1    8    3    3 ]

 OEINTS: Overlap, kinetic, potential, dipole, and quadrupole integrals
         stored in file 35.

      Computing two-electron integrals...done
      Computed 15467 non-zero two-electron integrals.
        Stored in file 33.


         ---------------------------------------------------------
                Multi-Configurational Self-Consistent Field
                            (a 'D E T C I' module)

                 Daniel G. A. Smith, C. David Sherrill, and
                              Matt L. Leininger
         ---------------------------------------------------------


   ==> Parameters <==

    EX LEVEL       =        8      H0 BLOCKSIZE  =     1000
    VAL EX LEVEL   =        0      H0 GUESS SIZE =     1000
    H0COUPLINGSIZE =        0      H0 COUPLING   =       NO
    MAXITER        =       12      NUM PRINT     =       20
    NUM ROOTS      =        3      ICORE         =        1
    PRINT LVL      =        1      FCI           =      YES
    R CONV         = 1.00e-08      MIXED         =      YES
    E CONV         = 1.00e-12      MIXED4        =      YES
    R4S            =       NO      REPL OTF      =       NO
    DIAG METHOD    =      SEM      FOLLOW ROOT   =        0
    PRECONDITIONER = DAVIDSON      UPDATE        = DAVIDSON
    S              =   0.0000      Ms0           =      YES
    GUESS VECTOR   =  H0BLOCK      OPENTYPE      =     NONE
    COLLAPSE SIZE  =        1      HD AVG        = EVANGELISTI
    MAX NUM VECS   =       39      REF SYM       =     AUTO
    IOPEN        =       NO

    EX ALLOW       =  1  1  1  1  1  1  1  1 
    STATE AVERAGE  =  0(0.33)  1(0.33)  2(0.33) 

   ==> CI Orbital and Space information <==

   ------------------------------------------------------------------------------
               Space    Total    Ag   B1g   B2g   B3g    Au   B1u   B2u   B3u
   ------------------------------------------------------------------------------
                 Nso       30     8     1     3     3     1     8     3     3
                 Nmo       30     8     1     3     3     1     8     3     3
               Ndocc        6     2     0     0     0     0     2     1     1
               Nsocc        0     0     0     0     0     0     0     0     0
   ------------------------------------------------------------------------------
                                    MCSCF Spaces
   ------------------------------------------------------------------------------
         Frozen DOCC        0     0     0     0     0     0     0     0     0
     Restricted DOCC        2     1     0     0     0     0     1     0     0
              Active        8     2     0     1     1     0     2     1     1
     Restricted UOCC       20     5     1     2     2     1     5     2     2
         Frozen UOCC        0     0     0     0     0     0     0     0     0
   ------------------------------------------------------------------------------

   ==> Setting up CI strings <==

    There are 70 alpha and 70 beta strings
    The CI space requires 660 (6.60E+02) determinants and 8 blocks

   ==> Setting up MCSCF integrals <==

  Using in-core PK algorithm.
   Calculation information:
      Number of atoms:                   2
      Number of AO shells:              12
      Number of primitives:             30
      Number of atomic orbitals:        30
      Number of basis functions:        30

      Integral cutoff                 1.00e-12
      Number of threads:                 1

  Performing in-core PK
  Using 216690 doubles for integral storage.
  We computed 3081 shell quartets total.
  Whereas there are 3081 unique shell quartets.
  ==> DiskJK: Disk-Based J/K Matrices <==

    J tasked:                  Yes
    K tasked:                  Yes
    wK tasked:                  No
    Memory (MB):              3200
    Schwarz Cutoff:          1E-12

    OpenMP threads:              1

   ==> Starting MCSCF iterations <==

        Iter         Total Energy       Delta E   Orb RMS    CI RMS  NCI NORB
   @MCSCF  1:    -75.464227621020   -8.8565e-02  5.24e-02  1.62e-12    1    1  Initial CI
      Warning! Maxstep = 0.63, scaling to 0.50
   @MCSCF  2:    -75.506886373075   -4.2659e-02  1.85e-02  3.27e-05    9    1  TS
   @MCSCF  3:    -75.517627352616   -1.0741e-02  6.13e-03  1.02e-05    9    1  TS
   @MCSCF  4:    -75.519308357675   -1.6810e-03  2.37e-03  3.19e-06   10    1  TS, DIIS
   @MCSCF  5:    -75.519577546757   -2.6919e-04  1.01e-03  1.26e-06   10    1  TS, DIIS
   @MCSCF  6:    -75.519627939518   -5.0393e-05  2.29e-04  5.79e-07   10    1  TS, DIIS
   @MCSCF  7:    -75.519631368829   -3.4293e-06  3.45e-05  1.53e-07   10    1  TS, DIIS
   @MCSCF  8:    -75.519631374864   -6.0353e-09  1.44e-05  2.28e-08   10    1  TS, DIIS
   @MCSCF  9:    -75.519631384763   -9.8990e-09  5.69e-06  7.63e-09   10    1  TS, DIIS
   @MCSCF 10:    -75.519631386248   -1.4846e-09  9.86e-07  4.04e-09   10    1  TS, DIIS
   @MCSCF 11:    -75.519631386277   -2.8635e-11  1.66e-07  4.42e-10   10    1  TS, DIIS
   @MCSCF 12:    -75.519631386277   -5.6843e-13  3.52e-08  7.64e-11   10    1  TS, DIIS
   @MCSCF 13:    -75.519631386277   -4.2633e-14  1.21e-08  0.00e+00   12    1  TS, DIIS
   @MCSCF 14:    -75.519631386277   -1.4211e-14  5.20e-09  0.00e+00   12    1  TS, DIIS

          @MCSCF has converged!

   @MCSCF Final Energy:  -75.519631386277212

   Computing CI Semicanonical Orbitals

   ==> Energetics <==

    SCF energy =          -75.375662535111601
    Total MCSCF energy =  -75.519631386277212

   ==> MCSCF root 0 information <==

    MCSCF Root 0 energy =   -75.600540167000290

   Active Space Natural occupation numbers:

        Ag   1.986220       B2u   1.896653       B3u   1.896653
       B1u   1.579746        Ag   0.416666       B2g   0.106604
       B3g   0.106604       B1u   0.010854

   The 20 most important determinants:

    *   1    0.839686  (   12,   12)  2AgX 2B1uX 1B2uX 1B3uX 
    *   2   -0.385701  (   42,   42)  2AgX 3AgX 1B2uX 1B3uX 
    *   3   -0.111895  (   34,   34)  2AgX 1B2gX 2B1uX 1B2uX 
    *   4   -0.111895  (   38,   38)  2AgX 1B3gX 2B1uX 1B3uX 
    *   5   -0.094446  (   56,   60)  2AgX 3AgA 1B2gB 2B1uA 1B2uX 1B3uB 
    *   6   -0.094446  (   60,   56)  2AgX 3AgB 1B2gA 2B1uB 1B2uX 1B3uA 
    *   7    0.094446  (   68,   66)  2AgX 3AgB 1B3gA 2B1uB 1B2uA 1B3uX 
    *   8    0.094446  (   66,   68)  2AgX 3AgA 1B3gB 2B1uA 1B2uB 1B3uX 
    *   9   -0.089296  (   42,   34)  2AgX 3AgA 1B2gB 2B1uB 1B2uX 1B3uA 
    *  10   -0.089296  (   34,   42)  2AgX 3AgB 1B2gA 2B1uA 1B2uX 1B3uB 
    *  11    0.089296  (   38,   42)  2AgX 3AgB 1B3gA 2B1uA 1B2uB 1B3uX 
    *  12    0.089296  (   42,   38)  2AgX 3AgA 1B3gB 2B1uB 1B2uA 1B3uX 
    *  13    0.072478  (    8,    8)  2AgX 3AgX 1B2gX 1B2uX 
    *  14    0.072478  (   10,   10)  2AgX 3AgX 1B3gX 1B3uX 
    *  15    0.065080  (   34,   38)  2AgX 1B2gA 1B3gB 2B1uX 1B2uA 1B3uB 
    *  16    0.065080  (   38,   34)  2AgX 1B2gB 1B3gA 2B1uX 1B2uB 1B3uA 
    *  17   -0.046893  (   60,   60)  2AgX 1B2gX 1B2uX 1B3uX 
    *  18   -0.046893  (   68,   68)  2AgX 1B3gX 1B2uX 1B3uX 
    *  19   -0.041530  (    8,   10)  2AgX 3AgX 1B2gA 1B3gB 1B2uA 1B3uB 
    *  20   -0.041530  (   10,    8)  2AgX 3AgX 1B2gB 1B3gA 1B2uB 1B3uA 


   ==> MCSCF root 1 information <==

    MCSCF Root 1 energy =   -75.479219355528357

   Active Space Natural occupation numbers:

        Ag   1.976331        Ag   1.911409       B1u   1.720756
       B3u   1.130162       B2u   1.130162       B2g   0.059064
       B3g   0.059064       B1u   0.013052

   The 20 most important determinants:

    *   1   -0.627104  (   66,   66)  2AgX 3AgX 2B1uX 1B3uX 
    *   2   -0.627104  (   56,   56)  2AgX 3AgX 2B1uX 1B2uX 
    *   3    0.328575  (   42,   42)  2AgX 3AgX 1B2uX 1B3uX 
    *   4    0.111797  (   12,   12)  2AgX 2B1uX 1B2uX 1B3uX 
    *   5    0.094433  (   16,   16)  2AgX 3AgX 1B2gX 2B1uX 
    *   6    0.094433  (   24,   24)  2AgX 3AgX 1B3gX 2B1uX 
    *   7   -0.075822  (   12,   10)  2AgX 3AgB 1B3gB 2B1uA 1B2uA 1B3uX 
    *   8   -0.075822  (   10,   12)  2AgX 3AgA 1B3gA 2B1uB 1B2uB 1B3uX 
    *   9    0.075822  (   12,    8)  2AgX 3AgB 1B2gB 2B1uA 1B2uX 1B3uA 
    *  10    0.075822  (    8,   12)  2AgX 3AgA 1B2gA 2B1uB 1B2uX 1B3uB 
    *  11    0.070436  (   13,   13)  3AgX 2B1uX 1B2uX 1B3uX 
    *  12    0.057352  (   42,   38)  2AgX 3AgA 1B3gB 2B1uB 1B2uA 1B3uX 
    *  13    0.057352  (   38,   42)  2AgX 3AgB 1B3gA 2B1uA 1B2uB 1B3uX 
    *  14   -0.057352  (   34,   42)  2AgX 3AgB 1B2gA 2B1uA 1B2uX 1B3uB 
    *  15   -0.057352  (   42,   34)  2AgX 3AgA 1B2gB 2B1uB 1B2uX 1B3uA 
    *  16    0.040214  (   10,   13)  2AgA 3AgX 1B3gA 2B1uB 1B2uB 1B3uX 
    *  17    0.040214  (   13,   10)  2AgB 3AgX 1B3gB 2B1uA 1B2uA 1B3uX 
    *  18   -0.040214  (   13,    8)  2AgB 3AgX 1B2gB 2B1uA 1B2uX 1B3uA 
    *  19   -0.040214  (    8,   13)  2AgA 3AgX 1B2gA 2B1uB 1B2uX 1B3uB 
    *  20    0.034048  (    2,    2)  2AgX 3AgX 1B2gX 1B3uX 


   ==> MCSCF root 2 information <==

    MCSCF Root 2 energy =   -75.479134636272732

   Active Space Natural occupation numbers:

        Ag   1.987838        Ag   1.965651       B1u   1.955930
       B2u   0.990234       B3u   0.990234       B3g   0.048811
       B2g   0.048811       B1u   0.012491

   The 20 most important determinants:

    *   1    0.683604  (   56,   56)  2AgX 3AgX 2B1uX 1B2uX 
    *   2   -0.683604  (   66,   66)  2AgX 3AgX 2B1uX 1B3uX 
    *   3   -0.091267  (   24,   24)  2AgX 3AgX 1B3gX 2B1uX 
    *   4    0.091267  (   16,   16)  2AgX 3AgX 1B2gX 2B1uX 
    *   5   -0.059584  (    8,    8)  2AgX 3AgX 1B2gX 1B2uX 
    *   6    0.059584  (   10,   10)  2AgX 3AgX 1B3gX 1B3uX 
    *   7    0.043228  (   42,   34)  2AgX 3AgA 1B2gB 2B1uB 1B2uX 1B3uA 
    *   8    0.043228  (   34,   42)  2AgX 3AgB 1B2gA 2B1uA 1B2uX 1B3uB 
    *   9    0.043228  (   42,   38)  2AgX 3AgA 1B3gB 2B1uB 1B2uA 1B3uX 
    *  10    0.043228  (   38,   42)  2AgX 3AgB 1B3gA 2B1uA 1B2uB 1B3uX 
    *  11   -0.040627  (    0,    0)  2AgX 3AgX 1B3gX 1B2uX 
    *  12    0.040627  (    2,    2)  2AgX 3AgX 1B2gX 1B3uX 
    *  13   -0.040244  (    8,   12)  2AgX 3AgA 1B2gA 2B1uB 1B2uX 1B3uB 
    *  14   -0.040244  (   12,    8)  2AgX 3AgB 1B2gB 2B1uA 1B2uX 1B3uA 
    *  15   -0.040244  (   10,   12)  2AgX 3AgA 1B3gA 2B1uB 1B2uB 1B3uX 
    *  16   -0.040244  (   12,   10)  2AgX 3AgB 1B3gB 2B1uA 1B2uA 1B3uX 
    *  17   -0.039115  (   34,   34)  2AgX 1B2gX 2B1uX 1B2uX 
    *  18    0.039115  (   38,   38)  2AgX 1B3gX 2B1uX 1B3uX 
    *  19    0.035125  (   13,    8)  2AgB 3AgX 1B2gB 2B1uA 1B2uX 1B3uA 
    *  20    0.035125  (    8,   13)  2AgA 3AgX 1B2gA 2B1uB 1B2uX 1B3uB 



Properties will be evaluated at   0.000000,   0.000000,   0.000000 Bohr

Properties computed using the CASSCF density matrix

  Nuclear Dipole Moment: (a.u.)
     X:     0.0000      Y:     0.0000      Z:     0.0000

  Electronic Dipole Moment: (a.u.)
     X:     0.0000      Y:     0.0000      Z:     0.0000

  Dipole Moment: (a.u.)
     X:     0.0000      Y:     0.0000      Z:     0.0000     Total:     0.0000

  Dipole Moment: (Debye)
     X:     0.0000      Y:     0.0000      Z:     0.0000     Total:     0.0000


*** tstart() called on Yorks-Mac.local
*** at Tue Sep 19 03:04:25 2017

   => Loading Basis Set <=

    Name: 6-31G*
    Role: ORBITAL
    Keyword: BASIS
    atoms 1-2 entry C          line   103 file /Users/york/src/psi4new/psi4/share/psi4/basis/6-31gs.gbs 


         ---------------------------------------------------------
                                   SCF
            by Justin Turney, Rob Parrish, Andy Simmonett
                             and Daniel Smith
                              RHF Reference
                        1 Threads,    500 MiB Core
         ---------------------------------------------------------

  ==> Geometry <==

    Molecular point group: d2h
    Full point group: D_inf_h

    Geometry (in Angstrom), charge = 0, multiplicity = 1:

       Center              X                  Y                   Z               Mass       
    ------------   -----------------  -----------------  -----------------  -----------------
           C          0.000000000000     0.000000000000    -0.600000000000    12.000000000000
           C          0.000000000000     0.000000000000     0.600000000000    12.000000000000

  Running in d2h symmetry.

  Rotational constants: A = ************  B =      1.95111  C =      1.95111 [cm^-1]
  Rotational constants: A = ************  B =  58492.94039  C =  58492.94039 [MHz]
  Nuclear repulsion =   15.875316257700003

  Charge       = 0
  Multiplicity = 1
  Electrons    = 12
  Nalpha       = 6
  Nbeta        = 6

  ==> Algorithm <==

  SCF Algorithm Type is DIRECT.
  DIIS enabled.
  MOM disabled.
  Fractional occupation disabled.
  Guess Type is SAD.
  Energy threshold   = 1.00e-12
  Density threshold  = 1.00e-08
  Integral threshold = 0.00e+00

  ==> Primary Basis <==

  Basis Set: 6-31G*
    Blend: 6-31G*
    Number of shells: 12
    Number of basis function: 30
    Number of Cartesian functions: 30
    Spherical Harmonics?: false
    Max angular momentum: 2

   => Loading Basis Set <=

    Name: CC-PVDZ-JKFIT
    Role: JKFIT
    Keyword: DF_BASIS_SCF
    atoms 1-2 entry C          line   121 file /Users/york/src/psi4new/psi4/share/psi4/basis/cc-pvdz-jkfit.gbs 

  ==> Pre-Iterations <==

   -------------------------------------------------------
    Irrep   Nso     Nmo     Nalpha   Nbeta   Ndocc  Nsocc
   -------------------------------------------------------
     Ag         8       8       2       2       2       0
     B1g        1       1       0       0       0       0
     B2g        3       3       0       0       0       0
     B3g        3       3       0       0       0       0
     Au         1       1       0       0       0       0
     B1u        8       8       2       2       2       0
     B2u        3       3       1       1       1       0
     B3u        3       3       1       1       1       0
   -------------------------------------------------------
    Total      30      30       6       6       6       0
   -------------------------------------------------------

  Starting with a DF guess...

  ==> Integral Setup <==

  ==> DFJK: Density-Fitted J/K Matrices <==

    J tasked:                  Yes
    K tasked:                  Yes
    wK tasked:                  No
    OpenMP threads:              1
    Integrals threads:           1
    Memory (MB):               375
    Algorithm:                Core
    Integral Cache:           NONE
    Schwarz Cutoff:          1E-12
    Fitting Condition:       1E-12

   => Auxiliary Basis Set <=

  Basis Set: CC-PVDZ-JKFIT
    Blend: CC-PVDZ-JKFIT
    Number of shells: 48
    Number of basis function: 162
    Number of Cartesian functions: 162
    Spherical Harmonics?: false
    Max angular momentum: 3

  Minimum eigenvalue in the overlap matrix is 4.9495510579E-03.
  Using Symmetric Orthogonalization.

  SCF Guess: Superposition of Atomic Densities via on-the-fly atomic UHF.

  ==> Iterations <==

                           Total Energy        Delta E     RMS |[F,P]|

   @DF-RHF iter   0:   -75.23294165668946   -7.52329e+01   1.26822e-01 
   @DF-RHF iter   1:   -75.35904515493955   -1.26103e-01   9.39639e-03 
   @DF-RHF iter   2:   -75.37322573693666   -1.41806e-02   3.43155e-03 DIIS
   @DF-RHF iter   3:   -75.37542247988898   -2.19674e-03   7.25252e-04 DIIS
   @DF-RHF iter   4:   -75.37552455055777   -1.02071e-04   1.59065e-04 DIIS
   @DF-RHF iter   5:   -75.37552951580349   -4.96525e-06   1.68485e-05 DIIS
   @DF-RHF iter   6:   -75.37552954749017   -3.16867e-08   1.03844e-06 DIIS
   @DF-RHF iter   7:   -75.37552954769245   -2.02277e-10   1.69577e-07 DIIS
   @DF-RHF iter   8:   -75.37552954769708   -4.63274e-12   2.22136e-08 DIIS
   @DF-RHF iter   9:   -75.37552954769713   -4.26326e-14   1.59238e-09 DIIS

  DF guess converged.

  ==> Integral Setup <==

  ==> DirectJK: Integral-Direct J/K Matrices <==

    J tasked:                  Yes
    K tasked:                  Yes
    wK tasked:                  No
    Integrals threads:           1
    Schwarz Cutoff:          1E-12

   @RHF iter  10:   -75.37566246510499   -1.32917e-04   3.22458e-05 DIIS
   @RHF iter  11:   -75.37566253220862   -6.71036e-08   5.77429e-06 DIIS
   @RHF iter  12:   -75.37566253496088   -2.75226e-09   1.23062e-06 DIIS
   @RHF iter  13:   -75.37566253510585   -1.44965e-10   1.77351e-07 DIIS
   @RHF iter  14:   -75.37566253511143   -5.58487e-12   3.64012e-08 DIIS
   @RHF iter  15:   -75.37566253511156   -1.27898e-13   5.73512e-09 DIIS

  ==> Post-Iterations <==

    Orbital Energies (a.u.)
    -----------------------

    Doubly Occupied:                                                      

       1Ag   -11.345479     1B1u  -11.342482     2Ag    -1.069183  
       2B1u   -0.499387     1B2u   -0.459767     1B3u   -0.459767  

    Virtual:                                                              

       3Ag    -0.096227     1B3g    0.192836     1B2g    0.192836  
       3B1u    0.482452     4Ag     0.651518     2B2u    0.703331  
       2B3u    0.703331     5Ag     0.761933     2B3g    0.863149  
       2B2g    0.863149     4B1u    0.976739     5B1u    1.391894  
       1B1g    1.764970     6Ag     1.764970     3B3u    1.777341  
       3B2u    1.777341     1Au     2.207447     6B1u    2.207447  
       7Ag     2.476083     3B2g    2.815873     3B3g    2.815873  
       7B1u    3.241595     8Ag     4.308505     8B1u    4.452386  

    Final Occupation by Irrep:
             Ag   B1g   B2g   B3g    Au   B1u   B2u   B3u 
    DOCC [     2,    0,    0,    0,    0,    2,    1,    1 ]

  Energy converged.

  @RHF Final Energy:   -75.37566253511156

   => Energetics <=

    Nuclear Repulsion Energy =             15.8753162577000033
    One-Electron Energy =                -132.1498268963868554
    Two-Electron Energy =                  40.8988481035752898
    Total Energy =                        -75.3756625351115588



Properties will be evaluated at   0.000000,   0.000000,   0.000000 Bohr

Properties computed using the SCF density matrix

  Nuclear Dipole Moment: (a.u.)
     X:     0.0000      Y:     0.0000      Z:     0.0000

  Electronic Dipole Moment: (a.u.)
     X:     0.0000      Y:     0.0000      Z:     0.0000

  Dipole Moment: (a.u.)
     X:     0.0000      Y:     0.0000      Z:     0.0000     Total:     0.0000

  Dipole Moment: (Debye)
     X:     0.0000      Y:     0.0000      Z:     0.0000     Total:     0.0000


*** tstop() called on Yorks-Mac.local at Tue Sep 19 03:04:26 2017
Module time:
	user time   =       0.82 seconds =       0.01 minutes
	system time =       0.03 seconds =       0.00 minutes
	total time  =          1 seconds =       0.02 minutes
Total time:
	user time   =       6.72 seconds =       0.11 minutes
	system time =       0.70 seconds =       0.01 minutes
	total time  =          8 seconds =       0.13 minutes
   => Loading Basis Set <=

    Name: STO-3G
    Role: ORBITAL
    Keyword: MINAO_BASIS
    atoms 1-2 entry C          line    61 file /Users/york/src/psi4new/psi4/share/psi4/basis/sto-3g.gbs 


Reading options from the FORTE block
Calling plugin forte.so.



  Forte
  ----------------------------------------------------------------------------
  A suite of quantum chemistry methods for strongly correlated electrons

    git branch: master - git commit: 5a864b68

  Developed by:
    Francesco A. Evangelista, Chenyang Li, Kevin P. Hannon,
    Jeffrey B. Schriber, Tianyuan Zhang, Chenxi Cai
  ----------------------------------------------------------------------------


  ==> MO Space Information <==

  Read options for space RESTRICTED_DOCC
  Read options for space ACTIVE
  -------------------------------------------------------------------------
                       Ag   B1g   B2g   B3g    Au   B1u   B2u   B3u   Sum
  -------------------------------------------------------------------------
    FROZEN_DOCC         0     0     0     0     0     0     0     0     0
    RESTRICTED_DOCC     1     0     0     0     0     1     0     0     2
    ACTIVE              2     0     1     1     0     2     1     1     8
    RESTRICTED_UOCC     5     1     2     2     1     5     2     2    20
    FROZEN_UOCC         0     0     0     0     0     0     0     0     0
    Total               8     1     3     3     1     8     3     3    30
  -------------------------------------------------------------------------

  ==> Integral Transformation <==

  Number of molecular orbitals:               30
  Number of correlated molecular orbitals:    30
  Number of frozen occupied orbitals:          0
  Number of frozen unoccupied orbitals:        0

    Molecular point group: d2h
    Full point group: D_inf_h

    Geometry (in Angstrom), charge = 0, multiplicity = 1:

       Center              X                  Y                   Z               Mass       
    ------------   -----------------  -----------------  -----------------  -----------------
           C          0.000000000000     0.000000000000    -0.600000000000    12.000000000000
           C          0.000000000000     0.000000000000     0.600000000000    12.000000000000

  -AO BASIS SET INFORMATION:
    Name                   = 6-31G*
    Blend                  = 6-31G*
    Total number of shells = 12
    Number of primitives   = 30
    Number of AO           = 30
    Number of SO           = 30
    Maximum AM             = 2
    Spherical Harmonics    = FALSE

  -Contraction Scheme:
    Atom   Type   All Primitives // Shells:
   ------ ------ --------------------------
       1     C     10s 4p 1d // 3s 2p 1d 
       2     C     10s 4p 1d // 3s 2p 1d 

  ==> AO Basis Functions <==

    [ 6-31G* ]
    cartesian
    ****
    C   1
    S   6 1.00
                      3047.52490000           0.00183470
                       457.36951000           0.01403730
                       103.94869000           0.06884260
                        29.21015500           0.23218440
                         9.28666300           0.46794130
                         3.16392700           0.36231200
    S   3 1.00
                         7.86827240          -0.11933240
                         1.88128850          -0.16085420
                         0.54424930           1.14345640
    P   3 1.00
                         7.86827240           0.06899910
                         1.88128850           0.31642400
                         0.54424930           0.74430830
    S   1 1.00
                         0.16871440           1.00000000
    P   1 1.00
                         0.16871440           1.00000000
    D   1 1.00
                         0.80000000           1.00000000
    ****


  Overall Conventional Integrals timings

	Presorting SO-basis two-electron integrals.
	Sorting File: SO Ints (nn|nn) nbuckets = 1
	Transforming the one-electron integrals and constructing Fock matrices
	Starting first half-transformation.
	Sorting half-transformed integrals.
	First half integral transformation complete.
	Starting second half-transformation.
	Two-electron integral transformation complete.

  Integral transformation done. 0.02803500 s
  Reading the two-electron integrals from disk
  Size of two-electron integrals:   0.018105 GB
  Conventional integrals take 0.17211300 s

                -----------------------------------------------
                  Complete Active Space Self Consistent Field
                                 Kevin Hannon
                -----------------------------------------------

     JK takes 0.03460 s to initialize while using DIRECT

  ==> CASSCF Iteration <==

 iter    ||g||           Delta_E            E_CASSCF       CONV_TYPE
 CSO2SO takes   0.0000 s.

 Transform Integrals takes 0.30838500 s.

  Performing a CAS with FCI

  ==> State Averaging Summary <==

    Irrep.  Multi.  Nstates            Weights
    ------------------------------------------
      Ag       1        3    0.333 0.333 0.333
    ------------------------------------------
    Total number of states: 3
    ------------------------------------------

  ==> FCI Solver Summary <==

  Number of electrons: 12
  Charge: 0
  Multiplicity: 1
  Davidson subspace max dim: 8
  Davidson subspace min dim: 2
  M_s: 0

  ==> String Lists <==

  Number of alpha electrons     = 4
  Number of beta electrons      = 4
  Number of alpha strings       = 70
  Number of beta strings        = 70
  Number of alpha strings (N-3) = 8
  Number of beta strings (N-3)  = 8
  Timing for strings        =      0.001 s
  Timing for NN strings     =      0.000 s
  Timing for VO strings     =      0.007 s
  Timing for OO strings     =      0.002 s
  Timing for VVOO strings   =      0.007 s
  Timing for VOVO strings   =      0.000 s
  Timing for 1-hole strings =      0.001 s
  Timing for 2-hole strings =      0.002 s
  Timing for 3-hole strings =      0.004 s
  Total timing              =      0.016 s

  ==> FCI Solver <==

    Number of determinants                         660
    Symmetry                                         0
    Multiplicity                                     1
    Number of roots                                  1
    Target root                                      0
    Trial vectors per root                          10

  Allocating memory for the Hamiltonian algorithm. Size: 2 x 12 x 12.   Memory: 0.000002 GB
  Initial guess space is incomplete.
  Adding 12 determinant(s).

  ==> FCI Initial Guess <==

  ---------------------------------------------
    Root            Energy     <S^2>   Spin
  ---------------------------------------------
      0      -75.536967239236  0.000  singlet
      1      -75.416175658663  0.000  singlet
      2      -75.405839896605  0.000  singlet
      3      -75.301101649239  6.000  quintet
      4      -75.261609860044  6.000  quintet
      5      -75.231374333342  0.000  singlet
      6      -75.174247689660  2.000  triplet
      7      -75.166867891464  2.000  triplet
      8      -75.115223088648  2.000  triplet
      9      -75.084484692895  0.000  singlet
     10      -75.053084683371  0.000  singlet
     11      -75.051103580631  2.000  triplet
     12      -74.992730876954  6.000  quintet
     13      -74.984881548072  2.000  triplet
     14      -74.955786612735  0.000  singlet
     15      -74.926932678396  2.000  triplet
     16      -74.924298094828  0.000  singlet
     17      -74.901006104851  2.000  triplet
     18      -74.882304519001  0.000  singlet
     19      -74.828519365622  2.000  triplet
     20      -74.820079650406  0.000  singlet
     21      -74.811925861396  0.000  singlet
     22      -74.779807082635  0.000  singlet
     23      -74.734639867799  2.000  triplet
     24      -74.732992783761  2.000  triplet
     25      -74.713294415179  0.000  singlet
     26      -74.712225016342  2.000  triplet
     27      -74.692649496265  6.000  quintet
     28      -74.674060579981  0.000  singlet
     29      -74.661957168887  0.000  singlet
     30      -74.658820622334  2.000  triplet
     31      -74.626662113055  0.000  singlet
     32      -74.608697933234  2.000  triplet
     33      -74.602729581643  6.000  quintet
     34      -74.598438395033  0.000  singlet
     35      -74.589683792208  0.000  singlet
     36      -74.583023527718  2.000  triplet
     37      -74.572497115447  0.000  singlet
     38      -74.568842191437  0.000  singlet
     39      -74.557237660658  0.000  singlet
     40      -74.551566654958  6.000  quintet
     41      -74.525444841739  0.000  singlet
     42      -74.507854173969  2.000  triplet
     43      -74.497552153348  0.000  singlet
     44      -74.468195898988  2.000  triplet
     45      -74.461375289946  0.000  singlet
     46      -74.439214234239  6.000  quintet
     47      -74.431115637678  6.000  quintet
     48      -74.423390858483  2.000  triplet
     49      -74.403453275645  2.000  triplet
     50      -74.402207060840  0.000  singlet
     51      -74.374749307505  0.000  singlet
     52      -74.373042997512  2.000  triplet
     53      -74.364780255786  2.000  triplet
     54      -74.352683507741  0.000  singlet
     55      -74.344566995597  2.000  triplet
     56      -74.336058001812  2.000  triplet
     57      -74.328778197470  2.000  triplet
     58      -74.326238420876  0.000  singlet
     59      -74.317490736467  0.000  singlet
     60      -74.265799638335  0.000  singlet
     61      -74.256721812193  2.000  triplet
     62      -74.223533229538  0.000  singlet
     63      -74.212392158847  2.000  triplet
     64      -74.178859153325  2.000  triplet
     65      -74.171905273769  0.000  singlet
     66      -74.127972523456  2.000  triplet
     67      -74.117951559635  0.000  singlet
     68      -74.072225030981  2.000  triplet
     69      -74.069344993101  0.000  singlet
     70      -74.016999734976  0.000  singlet
     71      -73.597836016871  0.000  singlet
  ---------------------------------------------
  Timing for initial guess  =      0.347 s

  Projecting out root 3
  Projecting out root 4
  Projecting out root 6
  Projecting out root 7
  Projecting out root 8
  Projecting out root 11
  Projecting out root 12
  Projecting out root 13
  Projecting out root 15
  Projecting out root 17
  Projecting out root 19
  Projecting out root 23
  Projecting out root 24
  Projecting out root 26
  Projecting out root 27
  Projecting out root 30
  Projecting out root 32
  Projecting out root 33
  Projecting out root 36
  Projecting out root 40
  Projecting out root 42
  Projecting out root 44
  Projecting out root 46
  Projecting out root 47
  Projecting out root 48
  Projecting out root 49
  Projecting out root 52
  Projecting out root 53
  Projecting out root 55
  Projecting out root 56
  Projecting out root 57
  Projecting out root 61
  Projecting out root 63
  Projecting out root 64
  Projecting out root 66
  Projecting out root 68
  ==> Diagonalizing Hamiltonian <==

  ----------------------------------------
    Iter.      Avg. Energy       Delta_E
  ----------------------------------------
      1      -75.452994264835  -7.545e+01
      2      -75.463330758827  -1.034e-02
      3      -75.464058248021  -7.275e-04
      4      -75.464207676989  -1.494e-04
      5      -75.464226271892  -1.859e-05
      6      -75.464227527442  -1.256e-06
      7      -75.464227612804  -8.536e-08
      8      -75.464227619254  -6.450e-09
      9      -75.464227620176  -9.219e-10
     10      -75.464227620290  -1.143e-10
     11      -75.464227620335  -4.465e-11
     12      -75.464227620339  -4.547e-12
     13      -75.464227620340  -2.274e-13
  ----------------------------------------
  The Davidson-Liu algorithm converged in 14 iterations.

  ==> Root No. 0 <==

    20 0 0 20 2 2     -0.85704566
    22 0 0 00 2 2      0.36618815

    Total Energy:       -75.548477724062323

  ==> Root No. 1 <==

    22 0 0 20 0 2     -0.68806361
    22 0 0 20 2 0      0.68806361

    Total Energy:       -75.422541699304986

  ==> Root No. 2 <==

    22 0 0 20 2 0     -0.62598761
    22 0 0 20 0 2     -0.62598761
    22 0 0 00 2 2      0.34073804
    20 0 0 20 2 2      0.11007785

    Total Energy:       -75.421663437651745

  ==> Computing RDMs for Root No. 0 <==

    Timing for 1-RDM: 0.001 s
    Timing for 2-RDM: 0.006 s

  ==> NATURAL ORBITALS <==

        1Ag     1.993649      1B2u    1.915808      1B3u    1.915808  
        1B1u    1.625281      2Ag     0.370348      1B3g    0.087903  
        1B2g    0.087903      2B1u    0.003300  


  ==> Computing RDMs for Root No. 1 <==

    Timing for 1-RDM: 0.000 s
    Timing for 2-RDM: 0.007 s

  ==> NATURAL ORBITALS <==

        1Ag     1.997356      2Ag     1.967186      1B1u    1.958022  
        1B3u    0.996433      1B2u    0.996433      1B3g    0.040983  
        1B2g    0.040983      2B1u    0.002605  


  ==> Computing RDMs for Root No. 2 <==

    Timing for 1-RDM: 0.000 s
    Timing for 2-RDM: 0.006 s

  ==> NATURAL ORBITALS <==

        1Ag     1.982592      2Ag     1.908827      1B1u    1.701620  
        1B2u    1.147381      1B3u    1.147381      1B2g    0.054785  
        1B3g    0.054785      2B1u    0.002628  


 CAS took 0.850266 seconds.

 FormFockIntermediates took 0.06887800 s.

 FormOrbitalGradient took 0.00086500 s.

 FormDiagHessian took 0.00010000 s.

 Update function takes 0.06989100 s
    0   0.022991998863   -75.464227620340   -75.464227620340    1.231642 s      
 CSO2SO takes   0.0000 s.

 Transform Integrals takes 0.26336800 s.

  Performing a CAS with FCI

  ==> State Averaging Summary <==

    Irrep.  Multi.  Nstates            Weights
    ------------------------------------------
      Ag       1        3    0.333 0.333 0.333
    ------------------------------------------
    Total number of states: 3
    ------------------------------------------

  ==> FCI Solver Summary <==

  Number of electrons: 12
  Charge: 0
  Multiplicity: 1
  Davidson subspace max dim: 8
  Davidson subspace min dim: 2
  M_s: 0

  ==> String Lists <==

  Number of alpha electrons     = 4
  Number of beta electrons      = 4
  Number of alpha strings       = 70
  Number of beta strings        = 70
  Number of alpha strings (N-3) = 8
  Number of beta strings (N-3)  = 8
  Timing for strings        =      0.000 s
  Timing for NN strings     =      0.000 s
  Timing for VO strings     =      0.007 s
  Timing for OO strings     =      0.002 s
  Timing for VVOO strings   =      0.003 s
  Timing for VOVO strings   =      0.000 s
  Timing for 1-hole strings =      0.001 s
  Timing for 2-hole strings =      0.002 s
  Timing for 3-hole strings =      0.003 s
  Total timing              =      0.012 s

  ==> FCI Solver <==

    Number of determinants                         660
    Symmetry                                         0
    Multiplicity                                     1
    Number of roots                                  1
    Target root                                      0
    Trial vectors per root                          10

  Allocating memory for the Hamiltonian algorithm. Size: 2 x 12 x 12.   Memory: 0.000002 GB
  Initial guess space is incomplete.
  Adding 12 determinant(s).

  ==> FCI Initial Guess <==

  ---------------------------------------------
    Root            Energy     <S^2>   Spin
  ---------------------------------------------
      0      -75.565952537913  0.000  singlet
      1      -75.448438538378  0.000  singlet
      2      -75.437836386000  0.000  singlet
      3      -75.355149925788  6.000  quintet
      4      -75.299544475417  6.000  quintet
      5      -75.267570644447  0.000  singlet
      6      -75.217001543959  2.000  triplet
      7      -75.194564299247  2.000  triplet
      8      -75.137760869900  2.000  triplet
      9      -75.124246601620  0.000  singlet
     10      -75.091928823427  2.000  triplet
     11      -75.073893675456  0.000  singlet
     12      -75.039449359331  6.000  quintet
     13      -75.018905031685  2.000  triplet
     14      -74.988696170177  0.000  singlet
     15      -74.962770224732  2.000  triplet
     16      -74.958699519843  0.000  singlet
     17      -74.941062960729  2.000  triplet
     18      -74.917833979747  0.000  singlet
     19      -74.879291786187  2.000  triplet
     20      -74.841261735832  0.000  singlet
     21      -74.833034762625  0.000  singlet
     22      -74.803838493816  0.000  singlet
     23      -74.749408668805  6.000  quintet
     24      -74.748926773549  2.000  triplet
     25      -74.746195631134  2.000  triplet
     26      -74.736153467203  0.000  singlet
     27      -74.681294866189  0.000  singlet
     28      -74.661502865284  6.000  quintet
     29      -74.644473540225  0.000  singlet
     30      -74.641688364117  0.000  singlet
     31      -74.627387149778  0.000  singlet
     32      -74.622555114696  2.000  triplet
     33      -74.606093374359  6.000  quintet
     34      -74.603858452379  2.000  triplet
     35      -74.602066768001  0.000  singlet
     36      -74.588215514907  2.000  triplet
     37      -74.581639062126  0.000  singlet
     38      -74.559356766325  0.000  singlet
     39      -74.547968276664  2.000  triplet
     40      -74.541436857198  2.000  triplet
     41      -74.531682245408  6.000  quintet
     42      -74.526737694439  0.000  singlet
     43      -74.517492730623  6.000  quintet
     44      -74.480735238940  2.000  triplet
     45      -74.462439319741  2.000  triplet
     46      -74.460706314897  0.000  singlet
     47      -74.446700724653  2.000  triplet
     48      -74.438224549192  0.000  singlet
     49      -74.426171746067  2.000  triplet
     50      -74.416843142912  2.000  triplet
     51      -74.412468112820  0.000  singlet
     52      -74.401676202431  0.000  singlet
     53      -74.396193927646  2.000  triplet
     54      -74.379070065386  2.000  triplet
     55      -74.359863372337  0.000  singlet
     56      -74.354847985333  2.000  triplet
     57      -74.338590748550  2.000  triplet
     58      -74.332808787344  0.000  singlet
     59      -74.323604694068  0.000  singlet
     60      -74.311641197276  0.000  singlet
     61      -74.275653290531  0.000  singlet
     62      -74.246237085071  0.000  singlet
     63      -74.241358755868  0.000  singlet
     64      -74.185831114148  0.000  singlet
     65      -74.071820958283  2.000  triplet
     66      -73.904015583792  2.000  triplet
     67      -73.900501255792  2.000  triplet
     68      -73.891912006617  2.000  triplet
     69      -73.870211987406  0.000  singlet
     70      -73.838157715604  0.000  singlet
     71      -73.055012800842  0.000  singlet
  ---------------------------------------------
  Timing for initial guess  =      0.334 s

  Projecting out root 3
  Projecting out root 4
  Projecting out root 6
  Projecting out root 7
  Projecting out root 8
  Projecting out root 10
  Projecting out root 12
  Projecting out root 13
  Projecting out root 15
  Projecting out root 17
  Projecting out root 19
  Projecting out root 23
  Projecting out root 24
  Projecting out root 25
  Projecting out root 28
  Projecting out root 32
  Projecting out root 33
  Projecting out root 34
  Projecting out root 36
  Projecting out root 39
  Projecting out root 40
  Projecting out root 41
  Projecting out root 43
  Projecting out root 44
  Projecting out root 45
  Projecting out root 47
  Projecting out root 49
  Projecting out root 50
  Projecting out root 53
  Projecting out root 54
  Projecting out root 56
  Projecting out root 57
  Projecting out root 65
  Projecting out root 66
  Projecting out root 67
  Projecting out root 68
  ==> Diagonalizing Hamiltonian <==

  ----------------------------------------
    Iter.      Avg. Energy       Delta_E
  ----------------------------------------
      1      -75.484075820764  -7.548e+01
      2      -75.505554347538  -2.148e-02
      3      -75.506688694102  -1.134e-03
      4      -75.506875862385  -1.872e-04
      5      -75.506915696381  -3.983e-05
      6      -75.506921146765  -5.450e-06
      7      -75.506921564106  -4.173e-07
      8      -75.506921600413  -3.631e-08
      9      -75.506921606292  -5.880e-09
     10      -75.506921606936  -6.436e-10
     11      -75.506921607000  -6.402e-11
     12      -75.506921607006  -6.040e-12
     13      -75.506921607006  -5.400e-13
     14      -75.506921607006  -2.842e-14
  ----------------------------------------
  The Davidson-Liu algorithm converged in 15 iterations.

  ==> Root No. 0 <==

    20 0 0 20 2 2      0.83567911
    22 0 0 00 2 2     -0.37303024
    20 2 0 20 2 0     -0.11123088
    20 0 2 20 0 2     -0.11123088

    Total Energy:       -75.589310594263139

  ==> Root No. 1 <==

    22 0 0 20 0 2      0.68288025
    22 0 0 20 2 0     -0.68288025

    Total Energy:       -75.466063098825671

  ==> Root No. 2 <==

    22 0 0 20 2 0     -0.62446090
    22 0 0 20 0 2     -0.62446090
    22 0 0 00 2 2      0.33232426
    20 0 0 20 2 2      0.10966058

    Total Energy:       -75.465391127930602

  ==> Computing RDMs for Root No. 0 <==

    Timing for 1-RDM: 0.000 s
    Timing for 2-RDM: 0.007 s

  ==> NATURAL ORBITALS <==

        1Ag     1.987171      1B3u    1.893602      1B2u    1.893602  
        1B1u    1.594639      2Ag     0.401526      1B3g    0.109589  
        1B2g    0.109589      2B1u    0.010282  


  ==> Computing RDMs for Root No. 1 <==

    Timing for 1-RDM: 0.000 s
    Timing for 2-RDM: 0.007 s

  ==> NATURAL ORBITALS <==

        1Ag     1.992414      2Ag     1.962119      1B1u    1.951094  
        1B2u    0.991120      1B3u    0.991120      1B3g    0.051872  
        1B2g    0.051872      2B1u    0.008388  


  ==> Computing RDMs for Root No. 2 <==

    Timing for 1-RDM: 0.000 s
    Timing for 2-RDM: 0.006 s

  ==> NATURAL ORBITALS <==

        1Ag     1.978913      2Ag     1.906488      1B1u    1.710355  
        1B3u    1.134567      1B2u    1.134567      1B2g    0.063002  
        1B3g    0.063002      2B1u    0.009107  


 CAS took 0.886302 seconds.

 FormFockIntermediates took 0.06742800 s.

 FormOrbitalGradient took 0.00069400 s.

 FormDiagHessian took 0.00007300 s.

 Update function takes 0.06823200 s
    1   0.008116236821   -0.042693986667   -75.506921607006    1.220010 s      
 CSO2SO takes   0.0000 s.

 Transform Integrals takes 0.26975700 s.

  Performing a CAS with FCI

  ==> State Averaging Summary <==

    Irrep.  Multi.  Nstates            Weights
    ------------------------------------------
      Ag       1        3    0.333 0.333 0.333
    ------------------------------------------
    Total number of states: 3
    ------------------------------------------

  ==> FCI Solver Summary <==

  Number of electrons: 12
  Charge: 0
  Multiplicity: 1
  Davidson subspace max dim: 8
  Davidson subspace min dim: 2
  M_s: 0

  ==> String Lists <==

  Number of alpha electrons     = 4
  Number of beta electrons      = 4
  Number of alpha strings       = 70
  Number of beta strings        = 70
  Number of alpha strings (N-3) = 8
  Number of beta strings (N-3)  = 8
  Timing for strings        =      0.000 s
  Timing for NN strings     =      0.000 s
  Timing for VO strings     =      0.008 s
  Timing for OO strings     =      0.002 s
  Timing for VVOO strings   =      0.003 s
  Timing for VOVO strings   =      0.000 s
  Timing for 1-hole strings =      0.001 s
  Timing for 2-hole strings =      0.002 s
  Timing for 3-hole strings =      0.004 s
  Total timing              =      0.013 s

  ==> FCI Solver <==

    Number of determinants                         660
    Symmetry                                         0
    Multiplicity                                     1
    Number of roots                                  1
    Target root                                      0
    Trial vectors per root                          10

  Allocating memory for the Hamiltonian algorithm. Size: 2 x 12 x 12.   Memory: 0.000002 GB
  Initial guess space is incomplete.
  Adding 26 determinant(s).

  ==> FCI Initial Guess <==

  ---------------------------------------------
    Root            Energy     <S^2>   Spin
  ---------------------------------------------
      0      -75.571350022167  0.000  singlet
      1      -75.451497314520  0.000  singlet
      2      -75.441651102719  0.000  singlet
      3      -75.355558897404  6.000  quintet
      4      -75.293514656229  6.000  quintet
      5      -75.268471892968  0.000  singlet
      6      -75.217955599068  2.000  triplet
      7      -75.186151095558  2.000  triplet
      8      -75.128386515926  2.000  triplet
      9      -75.121875699018  0.000  singlet
     10      -75.094802050419  2.000  triplet
     11      -75.067061266863  0.000  singlet
     12      -75.039481258276  6.000  quintet
     13      -75.014140366924  2.000  triplet
     14      -74.976508372175  0.000  singlet
     15      -74.955122660839  2.000  triplet
     16      -74.947152745537  0.000  singlet
     17      -74.932926898018  2.000  triplet
     18      -74.899301683029  0.000  singlet
     19      -74.859744607027  2.000  triplet
     20      -74.818951147649  0.000  singlet
     21      -74.811544029701  0.000  singlet
     22      -74.782117853204  6.000  quintet
     23      -74.773034650964  0.000  singlet
     24      -74.721755599596  2.000  triplet
     25      -74.715363424646  2.000  triplet
     26      -74.705262540473  6.000  quintet
     27      -74.698878878340  0.000  singlet
     28      -74.671864728499  0.000  singlet
     29      -74.628974103929  12.000  septet
     30      -74.627324520862  2.000  triplet
     31      -74.614775973851  0.000  singlet
     32      -74.611736296476  0.000  singlet
     33      -74.604888412523  6.000  quintet
     34      -74.594200283471  0.000  singlet
     35      -74.590623591970  2.000  triplet
     36      -74.588685391129  2.000  triplet
     37      -74.554792971861  0.000  singlet
     38      -74.542491483249  6.000  quintet
     39      -74.541465034818  0.000  singlet
     40      -74.528380085476  0.000  singlet
     41      -74.528027057966  6.000  quintet
     42      -74.512537370950  2.000  triplet
     43      -74.499881619970  0.000  singlet
     44      -74.475440094652  2.000  triplet
     45      -74.437862134578  2.000  triplet
     46      -74.432884678052  6.000  quintet
     47      -74.421144904732  2.000  triplet
     48      -74.410734217483  2.000  triplet
     49      -74.409669227191  2.000  triplet
     50      -74.398562867140  6.000  quintet
     51      -74.386848064646  0.000  singlet
     52      -74.385166068873  0.000  singlet
     53      -74.364035344724  2.000  triplet
     54      -74.329960879486  0.000  singlet
     55      -74.324242713927  0.000  singlet
     56      -74.318955396195  2.000  triplet
     57      -74.315930910785  2.000  triplet
     58      -74.302722666268  2.000  triplet
     59      -74.295648886423  0.000  singlet
     60      -74.293954092795  0.000  singlet
     61      -74.275052001453  0.000  singlet
     62      -74.217470199998  6.000  quintet
     63      -74.216149249963  0.000  singlet
     64      -74.199374490174  2.000  triplet
     65      -74.181867757947  2.000  triplet
     66      -74.176286290460  0.000  singlet
     67      -74.157630672652  2.000  triplet
     68      -74.151571899490  6.000  quintet
     69      -74.135056986164  0.000  singlet
     70      -74.132536820358  6.000  quintet
     71      -74.128018334508  0.000  singlet
     72      -74.023402841505  2.000  triplet
     73      -74.011197791791  2.000  triplet
     74      -73.983692809448  2.000  triplet
     75      -73.937703814701  0.000  singlet
     76      -73.936959736265  2.000  triplet
     77      -73.910300316143  0.000  singlet
     78      -73.891184130299  0.000  singlet
     79      -73.867297662174  2.000  triplet
     80      -73.762517476773  0.000  singlet
     81      -73.732260039712  2.000  triplet
     82      -73.729827729551  2.000  triplet
     83      -73.584793474357  2.000  triplet
     84      -73.535898844658  0.000  singlet
     85      -72.887971199809  0.000  singlet
  ---------------------------------------------
  Timing for initial guess  =      0.584 s

  Projecting out root 3
  Projecting out root 4
  Projecting out root 6
  Projecting out root 7
  Projecting out root 8
  Projecting out root 10
  Projecting out root 12
  Projecting out root 13
  Projecting out root 15
  Projecting out root 17
  Projecting out root 19
  Projecting out root 22
  Projecting out root 24
  Projecting out root 25
  Projecting out root 26
  Projecting out root 29
  Projecting out root 30
  Projecting out root 33
  Projecting out root 35
  Projecting out root 36
  Projecting out root 38
  Projecting out root 41
  Projecting out root 42
  Projecting out root 44
  Projecting out root 45
  Projecting out root 46
  Projecting out root 47
  Projecting out root 48
  Projecting out root 49
  Projecting out root 50
  Projecting out root 53
  Projecting out root 56
  Projecting out root 57
  Projecting out root 58
  Projecting out root 62
  Projecting out root 64
  Projecting out root 65
  Projecting out root 67
  Projecting out root 68
  Projecting out root 70
  Projecting out root 72
  Projecting out root 73
  Projecting out root 74
  Projecting out root 76
  Projecting out root 79
  Projecting out root 81
  Projecting out root 82
  Projecting out root 83
  ==> Diagonalizing Hamiltonian <==

  ----------------------------------------
    Iter.      Avg. Energy       Delta_E
  ----------------------------------------
      1      -75.488166146469  -7.549e+01
      2      -75.516069143762  -2.790e-02
      3      -75.517449165455  -1.380e-03
      4      -75.517591910012  -1.427e-04
      5      -75.517617557368  -2.565e-05
      6      -75.517621047736  -3.490e-06
      7      -75.517621496656  -4.489e-07
      8      -75.517621531040  -3.438e-08
      9      -75.517621535685  -4.644e-09
     10      -75.517621536405  -7.199e-10
     11      -75.517621536495  -9.010e-11
     12      -75.517621536503  -8.470e-12
     13      -75.517621536504  -5.116e-13
     14      -75.517621536504  -8.527e-14
  ----------------------------------------
  The Davidson-Liu algorithm converged in 15 iterations.

  ==> Root No. 0 <==

    20 0 0 20 2 2     -0.83224093
    22 0 0 00 2 2      0.38107587
    20 2 0 20 2 0      0.11140619
    20 0 2 20 0 2      0.11140619

    Total Energy:       -75.600144502382264

  ==> Root No. 1 <==

    22 0 0 20 2 0      0.68294487
    22 0 0 20 0 2     -0.68294486

    Total Energy:       -75.476373665321802

  ==> Root No. 2 <==

    22 0 0 20 0 2     -0.62552771
    22 0 0 20 2 0     -0.62552771
    22 0 0 00 2 2      0.33036176
    20 0 0 20 2 2      0.11194025

    Total Energy:       -75.476346441807010

  ==> Computing RDMs for Root No. 0 <==

    Timing for 1-RDM: 0.000 s
    Timing for 2-RDM: 0.006 s

  ==> NATURAL ORBITALS <==

        1Ag     1.985621      1B2u    1.894080      1B3u    1.894080  
        1B1u    1.584256      2Ag     0.412187      1B2g    0.109045  
        1B3g    0.109045      2B1u    0.011684  


  ==> Computing RDMs for Root No. 1 <==

    Timing for 1-RDM: 0.000 s
    Timing for 2-RDM: 0.006 s

  ==> NATURAL ORBITALS <==

        1Ag     1.989032      2Ag     1.964058      1B1u    1.953848  
        1B3u    0.990085      1B2u    0.990085      1B2g    0.050678  
        1B3g    0.050678      2B1u    0.011535  


  ==> Computing RDMs for Root No. 2 <==

    Timing for 1-RDM: 0.000 s
    Timing for 2-RDM: 0.005 s

  ==> NATURAL ORBITALS <==

        1Ag     1.976797      2Ag     1.908880      1B1u    1.715937  
        1B2u    1.131813      1B3u    1.131813      1B3g    0.061214  
        1B2g    0.061214      2B1u    0.012332  


 CAS took 1.094247 seconds.

 FormFockIntermediates took 0.05570300 s.

 FormOrbitalGradient took 0.00051000 s.

 FormDiagHessian took 0.00006100 s.

 Update function takes 0.05631000 s
    2   0.002800304777   -0.010699929497   -75.517621536504    1.422234 s      
 CSO2SO takes   0.0000 s.

 Transform Integrals takes 0.25934200 s.

  Performing a CAS with FCI

  ==> State Averaging Summary <==

    Irrep.  Multi.  Nstates            Weights
    ------------------------------------------
      Ag       1        3    0.333 0.333 0.333
    ------------------------------------------
    Total number of states: 3
    ------------------------------------------

  ==> FCI Solver Summary <==

  Number of electrons: 12
  Charge: 0
  Multiplicity: 1
  Davidson subspace max dim: 8
  Davidson subspace min dim: 2
  M_s: 0

  ==> String Lists <==

  Number of alpha electrons     = 4
  Number of beta electrons      = 4
  Number of alpha strings       = 70
  Number of beta strings        = 70
  Number of alpha strings (N-3) = 8
  Number of beta strings (N-3)  = 8
  Timing for strings        =      0.000 s
  Timing for NN strings     =      0.000 s
  Timing for VO strings     =      0.009 s
  Timing for OO strings     =      0.002 s
  Timing for VVOO strings   =      0.003 s
  Timing for VOVO strings   =      0.000 s
  Timing for 1-hole strings =      0.001 s
  Timing for 2-hole strings =      0.002 s
  Timing for 3-hole strings =      0.004 s
  Total timing              =      0.014 s

  ==> FCI Solver <==

    Number of determinants                         660
    Symmetry                                         0
    Multiplicity                                     1
    Number of roots                                  1
    Target root                                      0
    Trial vectors per root                          10

  Allocating memory for the Hamiltonian algorithm. Size: 2 x 12 x 12.   Memory: 0.000002 GB
  Initial guess space is incomplete.
  Adding 26 determinant(s).

  ==> FCI Initial Guess <==

  ---------------------------------------------
    Root            Energy     <S^2>   Spin
  ---------------------------------------------
      0      -75.572207524688  0.000  singlet
      1      -75.451231962064  0.000  singlet
      2      -75.441669303224  0.000  singlet
      3      -75.350133404938  6.000  quintet
      4      -75.287816326063  6.000  quintet
      5      -75.267394955252  0.000  singlet
      6      -75.213532151421  2.000  triplet
      7      -75.179257979566  2.000  triplet
      8      -75.121777873717  2.000  triplet
      9      -75.116793386093  0.000  singlet
     10      -75.090487670722  2.000  triplet
     11      -75.061081678852  0.000  singlet
     12      -75.028608645257  6.000  quintet
     13      -75.006889739130  2.000  triplet
     14      -74.969080269535  0.000  singlet
     15      -74.944136503696  2.000  triplet
     16      -74.937009695290  0.000  singlet
     17      -74.929089683320  2.000  triplet
     18      -74.886635196822  0.000  singlet
     19      -74.847933692527  2.000  triplet
     20      -74.814524993604  0.000  singlet
     21      -74.798310195832  0.000  singlet
     22      -74.776849049803  6.000  quintet
     23      -74.760131174499  0.000  singlet
     24      -74.705664333356  2.000  triplet
     25      -74.701516832350  6.000  quintet
     26      -74.700140132782  2.000  triplet
     27      -74.683774943796  0.000  singlet
     28      -74.659679337723  0.000  singlet
     29      -74.623563003945  12.000  septet
     30      -74.616712851474  2.000  triplet
     31      -74.601024693141  0.000  singlet
     32      -74.599596866996  0.000  singlet
     33      -74.593768180450  6.000  quintet
     34      -74.581744355001  2.000  triplet
     35      -74.579897100458  2.000  triplet
     36      -74.579553271975  0.000  singlet
     37      -74.539829478868  0.000  singlet
     38      -74.525930478083  0.000  singlet
     39      -74.524220019653  6.000  quintet
     40      -74.517830028100  0.000  singlet
     41      -74.512930995648  6.000  quintet
     42      -74.507596732799  2.000  triplet
     43      -74.485067507425  0.000  singlet
     44      -74.468318129171  2.000  triplet
     45      -74.424323279797  2.000  triplet
     46      -74.419253303290  6.000  quintet
     47      -74.412307875093  2.000  triplet
     48      -74.395149669179  2.000  triplet
     49      -74.393761416222  2.000  triplet
     50      -74.391685168267  6.000  quintet
     51      -74.374079222913  0.000  singlet
     52      -74.370620871005  0.000  singlet
     53      -74.350320675789  2.000  triplet
     54      -74.313204877379  0.000  singlet
     55      -74.311418780876  0.000  singlet
     56      -74.306625387918  2.000  triplet
     57      -74.301386393376  2.000  triplet
     58      -74.286986052312  0.000  singlet
     59      -74.286687371544  2.000  triplet
     60      -74.274188054772  0.000  singlet
     61      -74.260039610276  0.000  singlet
     62      -74.205215759370  6.000  quintet
     63      -74.194604554609  0.000  singlet
     64      -74.186632118786  2.000  triplet
     65      -74.170648413796  2.000  triplet
     66      -74.161168545815  0.000  singlet
     67      -74.146670598042  2.000  triplet
     68      -74.139166605493  6.000  quintet
     69      -74.123187263859  6.000  quintet
     70      -74.122208399627  0.000  singlet
     71      -74.113643860205  0.000  singlet
     72      -74.008608712342  2.000  triplet
     73      -73.998429083417  2.000  triplet
     74      -73.970559481345  2.000  triplet
     75      -73.922412981394  2.000  triplet
     76      -73.918811742556  0.000  singlet
     77      -73.894191436087  0.000  singlet
     78      -73.877083899655  0.000  singlet
     79      -73.841984522997  2.000  triplet
     80      -73.740133771834  0.000  singlet
     81      -73.708866328758  2.000  triplet
     82      -73.707355301365  2.000  triplet
     83      -73.562385816172  2.000  triplet
     84      -73.517250859134  0.000  singlet
     85      -72.850189066676  0.000  singlet
  ---------------------------------------------
  Timing for initial guess  =      0.573 s

  Projecting out root 3
  Projecting out root 4
  Projecting out root 6
  Projecting out root 7
  Projecting out root 8
  Projecting out root 10
  Projecting out root 12
  Projecting out root 13
  Projecting out root 15
  Projecting out root 17
  Projecting out root 19
  Projecting out root 22
  Projecting out root 24
  Projecting out root 25
  Projecting out root 26
  Projecting out root 29
  Projecting out root 30
  Projecting out root 33
  Projecting out root 34
  Projecting out root 35
  Projecting out root 39
  Projecting out root 41
  Projecting out root 42
  Projecting out root 44
  Projecting out root 45
  Projecting out root 46
  Projecting out root 47
  Projecting out root 48
  Projecting out root 49
  Projecting out root 50
  Projecting out root 53
  Projecting out root 56
  Projecting out root 57
  Projecting out root 59
  Projecting out root 62
  Projecting out root 64
  Projecting out root 65
  Projecting out root 67
  Projecting out root 68
  Projecting out root 69
  Projecting out root 72
  Projecting out root 73
  Projecting out root 74
  Projecting out root 75
  Projecting out root 79
  Projecting out root 81
  Projecting out root 82
  Projecting out root 83
  ==> Diagonalizing Hamiltonian <==

  ----------------------------------------
    Iter.      Avg. Energy       Delta_E
  ----------------------------------------
      1      -75.488369596659  -7.549e+01
      2      -75.517698169016  -2.933e-02
      3      -75.519122198365  -1.424e-03
      4      -75.519269760698  -1.476e-04
      5      -75.519294643556  -2.488e-05
      6      -75.519298103337  -3.460e-06
      7      -75.519298561250  -4.579e-07
      8      -75.519298592877  -3.163e-08
      9      -75.519298597134  -4.257e-09
     10      -75.519298597696  -5.622e-10
     11      -75.519298597743  -4.664e-11
     12      -75.519298597748  -5.812e-12
     13      -75.519298597749  -4.690e-13
     14      -75.519298597749  -1.421e-14
  ----------------------------------------
  The Davidson-Liu algorithm converged in 15 iterations.

  ==> Root No. 0 <==

    20 0 0 20 2 2     -0.83197072
    22 0 0 00 2 2      0.38459782
    20 0 2 20 0 2      0.11070160
    20 2 0 20 2 0      0.11070160

    Total Energy:       -75.601145473795256

  ==> Root No. 1 <==

    22 0 0 20 0 2      0.62637405
    22 0 0 20 2 0      0.62637405
    22 0 0 00 2 2     -0.32932416
    20 0 0 20 2 2     -0.11267782

    Total Energy:       -75.478430161019631

  ==> Root No. 2 <==

    22 0 0 20 2 0     -0.68332450
    22 0 0 20 0 2      0.68332450

    Total Energy:       -75.478320158432012

  ==> Computing RDMs for Root No. 0 <==

    Timing for 1-RDM: 0.000 s
    Timing for 2-RDM: 0.007 s

  ==> NATURAL ORBITALS <==

        1Ag     1.985790      1B2u    1.895707      1B3u    1.895707  
        1B1u    1.580677      2Ag     0.415749      1B2g    0.107486  
        1B3g    0.107486      2B1u    0.011396  


  ==> Computing RDMs for Root No. 1 <==

    Timing for 1-RDM: 0.000 s
    Timing for 2-RDM: 0.006 s

  ==> NATURAL ORBITALS <==

        1Ag     1.976329      2Ag     1.910237      1B1u    1.718897  
        1B2u    1.130917      1B3u    1.130917      1B3g    0.059852  
        1B2g    0.059852      2B1u    0.012999  


  ==> Computing RDMs for Root No. 2 <==

    Timing for 1-RDM: 0.000 s
    Timing for 2-RDM: 0.006 s

  ==> NATURAL ORBITALS <==

        1Ag     1.988117      2Ag     1.965158      1B1u    1.955294  
        1B3u    0.990065      1B2u    0.990065      1B2g    0.049487  
        1B3g    0.049487      2B1u    0.012326  


 CAS took 1.084707 seconds.

 FormFockIntermediates took 0.07872300 s.

 FormOrbitalGradient took 0.00087200 s.

 FormDiagHessian took 0.00009700 s.

 Update function takes 0.07975000 s
    3   0.001199033427   -0.001677061245   -75.519298597749    1.425580 s      
 CSO2SO takes   0.0000 s.

 Transform Integrals takes 0.27955000 s.

  Performing a CAS with FCI

  ==> State Averaging Summary <==

    Irrep.  Multi.  Nstates            Weights
    ------------------------------------------
      Ag       1        3    0.333 0.333 0.333
    ------------------------------------------
    Total number of states: 3
    ------------------------------------------

  ==> FCI Solver Summary <==

  Number of electrons: 12
  Charge: 0
  Multiplicity: 1
  Davidson subspace max dim: 8
  Davidson subspace min dim: 2
  M_s: 0

  ==> String Lists <==

  Number of alpha electrons     = 4
  Number of beta electrons      = 4
  Number of alpha strings       = 70
  Number of beta strings        = 70
  Number of alpha strings (N-3) = 8
  Number of beta strings (N-3)  = 8
  Timing for strings        =      0.000 s
  Timing for NN strings     =      0.000 s
  Timing for VO strings     =      0.006 s
  Timing for OO strings     =      0.002 s
  Timing for VVOO strings   =      0.003 s
  Timing for VOVO strings   =      0.000 s
  Timing for 1-hole strings =      0.001 s
  Timing for 2-hole strings =      0.002 s
  Timing for 3-hole strings =      0.003 s
  Total timing              =      0.011 s

  ==> FCI Solver <==

    Number of determinants                         660
    Symmetry                                         0
    Multiplicity                                     1
    Number of roots                                  1
    Target root                                      0
    Trial vectors per root                          10

  Allocating memory for the Hamiltonian algorithm. Size: 2 x 12 x 12.   Memory: 0.000002 GB
  Initial guess space is incomplete.
  Adding 26 determinant(s).

  ==> FCI Initial Guess <==

  ---------------------------------------------
    Root            Energy     <S^2>   Spin
  ---------------------------------------------
      0      -75.572293578029  0.000  singlet
      1      -75.451120360742  0.000  singlet
      2      -75.441609802652  0.000  singlet
      3      -75.348156856481  6.000  quintet
      4      -75.285796275909  6.000  quintet
      5      -75.266890192754  0.000  singlet
      6      -75.211916966695  2.000  triplet
      7      -75.176877759632  2.000  triplet
      8      -75.119504829019  2.000  triplet
      9      -75.114942949990  0.000  singlet
     10      -75.088951084382  2.000  triplet
     11      -75.058975346519  0.000  singlet
     12      -75.024749409968  6.000  quintet
     13      -75.004354859138  2.000  triplet
     14      -74.966522758522  0.000  singlet
     15      -74.940263019952  2.000  triplet
     16      -74.933443528294  0.000  singlet
     17      -74.927851568101  2.000  triplet
     18      -74.882236341389  0.000  singlet
     19      -74.844186107056  2.000  triplet
     20      -74.813151469678  0.000  singlet
     21      -74.793740288034  0.000  singlet
     22      -74.775003556889  6.000  quintet
     23      -74.755652344034  0.000  singlet
     24      -74.700359554654  2.000  triplet
     25      -74.700263874409  6.000  quintet
     26      -74.695119924352  2.000  triplet
     27      -74.678762317070  0.000  singlet
     28      -74.655676680219  0.000  singlet
     29      -74.621461655722  12.000  septet
     30      -74.613035100645  2.000  triplet
     31      -74.596428667729  0.000  singlet
     32      -74.595557787536  0.000  singlet
     33      -74.589899492902  6.000  quintet
     34      -74.578825545764  2.000  triplet
     35      -74.577003918357  2.000  triplet
     36      -74.574681036966  0.000  singlet
     37      -74.534858661935  0.000  singlet
     38      -74.520790743184  0.000  singlet
     39      -74.518068749027  6.000  quintet
     40      -74.514354794476  0.000  singlet
     41      -74.508018404395  6.000  quintet
     42      -74.505992034330  2.000  triplet
     43      -74.479950555016  0.000  singlet
     44      -74.465997096535  2.000  triplet
     45      -74.419806936763  2.000  triplet
     46      -74.414338923749  6.000  quintet
     47      -74.409730313570  2.000  triplet
     48      -74.390344166454  2.000  triplet
     49      -74.389005011558  6.000  quintet
     50      -74.387868229387  2.000  triplet
     51      -74.370506256530  0.000  singlet
     52      -74.365090240511  0.000  singlet
     53      -74.345670167453  2.000  triplet
     54      -74.307631664305  0.000  singlet
     55      -74.307569196034  0.000  singlet
     56      -74.302305828038  2.000  triplet
     57      -74.297338761385  2.000  triplet
     58      -74.283697941486  0.000  singlet
     59      -74.280208151285  2.000  triplet
     60      -74.267605938253  0.000  singlet
     61      -74.255048122030  0.000  singlet
     62      -74.201128660026  6.000  quintet
     63      -74.187912971574  0.000  singlet
     64      -74.182674779733  2.000  triplet
     65      -74.166918962560  2.000  triplet
     66      -74.156391407227  0.000  singlet
     67      -74.142797085193  2.000  triplet
     68      -74.135142724808  6.000  quintet
     69      -74.120009627241  6.000  quintet
     70      -74.117663481798  0.000  singlet
     71      -74.108694172492  0.000  singlet
     72      -74.004026776424  2.000  triplet
     73      -73.994137661965  2.000  triplet
     74      -73.966082494044  2.000  triplet
     75      -73.917655466932  2.000  triplet
     76      -73.912967449634  0.000  singlet
     77      -73.889040161728  0.000  singlet
     78      -73.872684176362  0.000  singlet
     79      -73.833935415565  2.000  triplet
     80      -73.732698004255  0.000  singlet
     81      -73.701300460671  2.000  triplet
     82      -73.699988321877  2.000  triplet
     83      -73.555609408894  2.000  triplet
     84      -73.511461063442  0.000  singlet
     85      -72.838550640761  0.000  singlet
  ---------------------------------------------
  Timing for initial guess  =      0.572 s

  Projecting out root 3
  Projecting out root 4
  Projecting out root 6
  Projecting out root 7
  Projecting out root 8
  Projecting out root 10
  Projecting out root 12
  Projecting out root 13
  Projecting out root 15
  Projecting out root 17
  Projecting out root 19
  Projecting out root 22
  Projecting out root 24
  Projecting out root 25
  Projecting out root 26
  Projecting out root 29
  Projecting out root 30
  Projecting out root 33
  Projecting out root 34
  Projecting out root 35
  Projecting out root 39
  Projecting out root 41
  Projecting out root 42
  Projecting out root 44
  Projecting out root 45
  Projecting out root 46
  Projecting out root 47
  Projecting out root 48
  Projecting out root 49
  Projecting out root 50
  Projecting out root 53
  Projecting out root 56
  Projecting out root 57
  Projecting out root 59
  Projecting out root 62
  Projecting out root 64
  Projecting out root 65
  Projecting out root 67
  Projecting out root 68
  Projecting out root 69
  Projecting out root 72
  Projecting out root 73
  Projecting out root 74
  Projecting out root 75
  Projecting out root 79
  Projecting out root 81
  Projecting out root 82
  Projecting out root 83
  ==> Diagonalizing Hamiltonian <==

  ----------------------------------------
    Iter.      Avg. Energy       Delta_E
  ----------------------------------------
      1      -75.488341247141  -7.549e+01
      2      -75.517971641584  -2.963e-02
      3      -75.519396170357  -1.425e-03
      4      -75.519543406608  -1.472e-04
      5      -75.519567824732  -2.442e-05
      6      -75.519571231312  -3.407e-06
      7      -75.519571684389  -4.531e-07
      8      -75.519571714677  -3.029e-08
      9      -75.519571718735  -4.058e-09
     10      -75.519571719273  -5.379e-10
     11      -75.519571719317  -4.358e-11
     12      -75.519571719322  -5.414e-12
     13      -75.519571719322  -4.405e-13
  ----------------------------------------
  The Davidson-Liu algorithm converged in 14 iterations.

  ==> Root No. 0 <==

    20 0 0 20 2 2      0.83218449
    22 0 0 00 2 2     -0.38541859
    20 2 0 20 2 0     -0.11038555
    20 0 2 20 0 2     -0.11038555

    Total Energy:       -75.600939997254756

  ==> Root No. 1 <==

    22 0 0 20 2 0     -0.62684318
    22 0 0 20 0 2     -0.62684318
    22 0 0 00 2 2      0.32871476
    20 0 0 20 2 2      0.11226086

[...]

 FormDiagHessian took 0.00006000 s.

 Update function takes 0.05262800 s
   12   0.000004232918   -0.000000000000   -75.519631386218    1.389122 s  DIIS
 CSO2SO takes   0.0000 s.

 Transform Integrals takes 0.26484200 s.

  Performing a CAS with FCI

  ==> State Averaging Summary <==

    Irrep.  Multi.  Nstates            Weights
    ------------------------------------------
      Ag       1        3    0.333 0.333 0.333
    ------------------------------------------
    Total number of states: 3
    ------------------------------------------

  ==> FCI Solver Summary <==

  Number of electrons: 12
  Charge: 0
  Multiplicity: 1
  Davidson subspace max dim: 8
  Davidson subspace min dim: 2
  M_s: 0

  ==> String Lists <==

  Number of alpha electrons     = 4
  Number of beta electrons      = 4
  Number of alpha strings       = 70
  Number of beta strings        = 70
  Number of alpha strings (N-3) = 8
  Number of beta strings (N-3)  = 8
  Timing for strings        =      0.000 s
  Timing for NN strings     =      0.000 s
  Timing for VO strings     =      0.010 s
  Timing for OO strings     =      0.002 s
  Timing for VVOO strings   =      0.003 s
  Timing for VOVO strings   =      0.000 s
  Timing for 1-hole strings =      0.001 s
  Timing for 2-hole strings =      0.002 s
  Timing for 3-hole strings =      0.003 s
  Total timing              =      0.015 s

  ==> FCI Solver <==

    Number of determinants                         660
    Symmetry                                         0
    Multiplicity                                     1
    Number of roots                                  1
    Target root                                      0
    Trial vectors per root                          10

  Allocating memory for the Hamiltonian algorithm. Size: 2 x 12 x 12.   Memory: 0.000002 GB
  Initial guess space is incomplete.
  Adding 26 determinant(s).

  ==> FCI Initial Guess <==

  ---------------------------------------------
    Root            Energy     <S^2>   Spin
  ---------------------------------------------
      0      -75.572282522935  0.000  singlet
      1      -75.451066987911  0.000  singlet
      2      -75.441606623518  0.000  singlet
      3      -75.347361363029  6.000  quintet
      4      -75.284984159543  6.000  quintet
      5      -75.266625509349  0.000  singlet
      6      -75.211134282608  2.000  triplet
      7      -75.175912678138  2.000  triplet
      8      -75.118553963420  2.000  triplet
      9      -75.114035435714  0.000  singlet
     10      -75.088189525461  2.000  triplet
     11      -75.058004894715  0.000  singlet
     12      -75.022944217459  6.000  quintet
     13      -75.003218290456  2.000  triplet
     14      -74.965433854125  0.000  singlet
     15      -74.938449946598  2.000  triplet
     16      -74.931716028805  0.000  singlet
     17      -74.927248847233  2.000  triplet
     18      -74.880236147619  0.000  singlet
     19      -74.842819048636  2.000  triplet
     20      -74.812400410408  0.000  singlet
     21      -74.791676581932  0.000  singlet
     22      -74.774064285366  6.000  quintet
     23      -74.753633420295  0.000  singlet
     24      -74.699687377670  6.000  quintet
     25      -74.698127616610  2.000  triplet
     26      -74.692970581678  2.000  triplet
     27      -74.676630304659  0.000  singlet
     28      -74.654087898404  0.000  singlet
     29      -74.620230437956  12.000  septet
     30      -74.611257563775  2.000  triplet
     31      -74.594541247823  0.000  singlet
     32      -74.593753299767  0.000  singlet
     33      -74.588109481130  6.000  quintet
     34      -74.577552577933  2.000  triplet
     35      -74.575733131795  2.000  triplet
     36      -74.572858054848  0.000  singlet
     37      -74.532827471995  0.000  singlet
     38      -74.518822118981  0.000  singlet
     39      -74.515397296645  6.000  quintet
     40      -74.512811918542  0.000  singlet
     41      -74.505824339347  6.000  quintet
     42      -74.505290141579  2.000  triplet
     43      -74.477613503999  0.000  singlet
     44      -74.464954001763  2.000  triplet
     45      -74.417953880547  2.000  triplet
     46      -74.412126614299  6.000  quintet
     47      -74.408670148268  2.000  triplet
     48      -74.388168784969  2.000  triplet
     49      -74.387376900237  6.000  quintet
     50      -74.385400842668  2.000  triplet
     51      -74.368980538760  0.000  singlet
     52      -74.362638106513  0.000  singlet
     53      -74.343684608453  2.000  triplet
     54      -74.306029659713  0.000  singlet
     55      -74.305114470115  0.000  singlet
     56      -74.300254367375  2.000  triplet
     57      -74.295418810276  2.000  triplet
     58      -74.282133153318  0.000  singlet
     59      -74.277273848093  2.000  triplet
     60      -74.264697367920  0.000  singlet
     61      -74.252999286034  0.000  singlet
     62      -74.199259136782  6.000  quintet
     63      -74.185202085788  0.000  singlet
     64      -74.181140021994  2.000  triplet
     65      -74.165183327662  2.000  triplet
     66      -74.154449008836  0.000  singlet
     67      -74.140876569129  2.000  triplet
     68      -74.133348515219  6.000  quintet
     69      -74.118491386315  6.000  quintet
     70      -74.115498569946  0.000  singlet
     71      -74.106433578186  0.000  singlet
     72      -74.002008120892  2.000  triplet
     73      -73.991953626968  2.000  triplet
     74      -73.963849292681  2.000  triplet
     75      -73.915488899874  2.000  triplet
     76      -73.910801247827  0.000  singlet
     77      -73.886739062979  0.000  singlet
     78      -73.870856503996  0.000  singlet
     79      -73.830630628876  2.000  triplet
     80      -73.729314994672  0.000  singlet
     81      -73.698030398725  2.000  triplet
     82      -73.696718678619  2.000  triplet
     83      -73.553039379074  2.000  triplet
     84      -73.508864848172  0.000  singlet
     85      -72.833675886832  0.000  singlet
  ---------------------------------------------
  Timing for initial guess  =      0.553 s

  Projecting out root 3
  Projecting out root 4
  Projecting out root 6
  Projecting out root 7
  Projecting out root 8
  Projecting out root 10
  Projecting out root 12
  Projecting out root 13
  Projecting out root 15
  Projecting out root 17
  Projecting out root 19
  Projecting out root 22
  Projecting out root 24
  Projecting out root 25
  Projecting out root 26
  Projecting out root 29
  Projecting out root 30
  Projecting out root 33
  Projecting out root 34
  Projecting out root 35
  Projecting out root 39
  Projecting out root 41
  Projecting out root 42
  Projecting out root 44
  Projecting out root 45
  Projecting out root 46
  Projecting out root 47
  Projecting out root 48
  Projecting out root 49
  Projecting out root 50
  Projecting out root 53
  Projecting out root 56
  Projecting out root 57
  Projecting out root 59
  Projecting out root 62
  Projecting out root 64
  Projecting out root 65
  Projecting out root 67
  Projecting out root 68
  Projecting out root 69
  Projecting out root 72
  Projecting out root 73
  Projecting out root 74
  Projecting out root 75
  Projecting out root 79
  Projecting out root 81
  Projecting out root 82
  Projecting out root 83
  ==> Diagonalizing Hamiltonian <==

  ----------------------------------------
    Iter.      Avg. Energy       Delta_E
  ----------------------------------------
      1      -75.488318711455  -7.549e+01
      2      -75.518044118493  -2.973e-02
      3      -75.519457740833  -1.414e-03
      4      -75.519603465783  -1.457e-04
      5      -75.519627601640  -2.414e-05
      6      -75.519630922228  -3.321e-06
      7      -75.519631354002  -4.318e-07
      8      -75.519631381912  -2.791e-08
      9      -75.519631385690  -3.778e-09
     10      -75.519631386209  -5.192e-10
     11      -75.519631386250  -4.101e-11
     12      -75.519631386255  -5.343e-12
     13      -75.519631386256  -4.263e-13
  ----------------------------------------
  The Davidson-Liu algorithm converged in 14 iterations.

  ==> Root No. 0 <==

    20 0 0 20 2 2     -0.83232728
    22 0 0 00 2 2      0.38570057
    20 0 2 20 0 2      0.11018193
    20 2 0 20 2 0      0.11018193

    Total Energy:       -75.600540232060041

  ==> Root No. 1 <==

    22 0 0 20 2 0     -0.62704479
    22 0 0 20 0 2     -0.62704479
    22 0 0 00 2 2      0.32857601
    20 0 0 20 2 2      0.11174175

    Total Energy:       -75.479219318050070

  ==> Root No. 2 <==

    22 0 0 20 0 2     -0.68356220
    22 0 0 20 2 0      0.68356220

    Total Energy:       -75.479134608656565

  ==> Computing RDMs for Root No. 0 <==

    Timing for 1-RDM: 0.000 s
    Timing for 2-RDM: 0.005 s

  ==> NATURAL ORBITALS <==

        1Ag     1.986217      1B2u    1.896696      1B3u    1.896696  
        1B1u    1.579746      2Ag     0.416670      1B2g    0.106560  
        1B3g    0.106560      2B1u    0.010857  


  ==> Computing RDMs for Root No. 1 <==

    Timing for 1-RDM: 0.000 s
    Timing for 2-RDM: 0.006 s

  ==> NATURAL ORBITALS <==

        1Ag     1.976324      2Ag     1.911446      1B1u    1.720739  
        1B2u    1.130181      1B3u    1.130181      1B3g    0.059038  
        1B2g    0.059038      2B1u    0.013052  


  ==> Computing RDMs for Root No. 2 <==

    Timing for 1-RDM: 0.000 s
    Timing for 2-RDM: 0.005 s

  ==> NATURAL ORBITALS <==

        1Ag     1.987838      2Ag     1.965652      1B1u    1.955920  
        1B3u    0.990237      1B2u    0.990237      1B2g    0.048813  
        1B3g    0.048813      2B1u    0.012491  


 CAS took 0.999482 seconds.

 FormFockIntermediates took 0.05920300 s.

 FormOrbitalGradient took 0.00049600 s.

 FormDiagHessian took 0.00005900 s.

 Update function takes 0.05979200 s
   13   0.000002922404   -0.000000000037   -75.519631386256    1.325966 s  DIIS
 CSO2SO takes   0.0000 s.

 Transform Integrals takes 0.24761000 s.

  Performing a CAS with FCI

  ==> State Averaging Summary <==

    Irrep.  Multi.  Nstates            Weights
    ------------------------------------------
      Ag       1        3    0.333 0.333 0.333
    ------------------------------------------
    Total number of states: 3
    ------------------------------------------

  ==> FCI Solver Summary <==

  Number of electrons: 12
  Charge: 0
  Multiplicity: 1
  Davidson subspace max dim: 8
  Davidson subspace min dim: 2
  M_s: 0

  ==> String Lists <==

  Number of alpha electrons     = 4
  Number of beta electrons      = 4
  Number of alpha strings       = 70
  Number of beta strings        = 70
  Number of alpha strings (N-3) = 8
  Number of beta strings (N-3)  = 8
  Timing for strings        =      0.000 s
  Timing for NN strings     =      0.000 s
  Timing for VO strings     =      0.009 s
  Timing for OO strings     =      0.002 s
  Timing for VVOO strings   =      0.003 s
  Timing for VOVO strings   =      0.000 s
  Timing for 1-hole strings =      0.001 s
  Timing for 2-hole strings =      0.001 s
  Timing for 3-hole strings =      0.003 s
  Total timing              =      0.014 s

  ==> FCI Solver <==

    Number of determinants                         660
    Symmetry                                         0
    Multiplicity                                     1
    Number of roots                                  1
    Target root                                      0
    Trial vectors per root                          10

  Allocating memory for the Hamiltonian algorithm. Size: 2 x 12 x 12.   Memory: 0.000002 GB
  Initial guess space is incomplete.
  Adding 26 determinant(s).

  ==> FCI Initial Guess <==

  ---------------------------------------------
    Root            Energy     <S^2>   Spin
  ---------------------------------------------
      0      -75.572282502742  0.000  singlet
      1      -75.451066988047  0.000  singlet
      2      -75.441606617470  0.000  singlet
      3      -75.347361242334  6.000  quintet
      4      -75.284984047034  6.000  quintet
      5      -75.266625481032  0.000  singlet
      6      -75.211134177335  2.000  triplet
      7      -75.175912565301  2.000  triplet
      8      -75.118553831448  2.000  triplet
      9      -75.114035316684  0.000  singlet
     10      -75.088189383623  2.000  triplet
     11      -75.058004775713  0.000  singlet
     12      -75.022943927932  6.000  quintet
     13      -75.003218087082  2.000  triplet
     14      -74.965433664180  0.000  singlet
     15      -74.938449663514  2.000  triplet
     16      -74.931715764287  0.000  singlet
     17      -74.927248760402  2.000  triplet
     18      -74.880235832523  0.000  singlet
     19      -74.842818900983  2.000  triplet
     20      -74.812400339838  0.000  singlet
     21      -74.791676255171  0.000  singlet
     22      -74.774064154717  6.000  quintet
     23      -74.753633105424  0.000  singlet
     24      -74.699687327679  6.000  quintet
     25      -74.698127300954  2.000  triplet
     26      -74.692970281262  2.000  triplet
     27      -74.676630003436  0.000  singlet
     28      -74.654087664372  0.000  singlet
     29      -74.620230201853  12.000  septet
     30      -74.611257282102  2.000  triplet
     31      -74.594540920343  0.000  singlet
     32      -74.593753033046  0.000  singlet
     33      -74.588109206455  6.000  quintet
     34      -74.577552406410  2.000  triplet
     35      -74.575732961431  2.000  triplet
     36      -74.572857754670  0.000  singlet
     37      -74.532827134756  0.000  singlet
     38      -74.518821794511  0.000  singlet
     39      -74.515396871530  6.000  quintet
     40      -74.512811698038  0.000  singlet
     41      -74.505823976428  6.000  quintet
     42      -74.505290069751  2.000  triplet
     43      -74.477613132024  0.000  singlet
     44      -74.464953875801  2.000  triplet
     45      -74.417953635529  2.000  triplet
     46      -74.412126257777  6.000  quintet
     47      -74.408670018206  2.000  triplet
     48      -74.388168437318  2.000  triplet
     49      -74.387376636945  6.000  quintet
     50      -74.385400491093  2.000  triplet
     51      -74.368980344719  0.000  singlet
     52      -74.362637725297  0.000  singlet
     53      -74.343684322890  2.000  triplet
     54      -74.306029427007  0.000  singlet
     55      -74.305114099276  0.000  singlet
     56      -74.300254041296  2.000  triplet
     57      -74.295418509796  2.000  triplet
     58      -74.282132916013  0.000  singlet
     59      -74.277273401965  2.000  triplet
     60      -74.264696944345  0.000  singlet
     61      -74.252999008998  0.000  singlet
     62      -74.199258846010  6.000  quintet
     63      -74.185201710970  0.000  singlet
     64      -74.181139849025  2.000  triplet
     65      -74.165183059051  2.000  triplet
     66      -74.154448765336  0.000  singlet
     67      -74.140876264928  2.000  triplet
     68      -74.133348245334  6.000  quintet
     69      -74.118491135009  6.000  quintet
     70      -74.115498262110  0.000  singlet
     71      -74.106433231088  0.000  singlet
     72      -74.002007824305  2.000  triplet
     73      -73.991953294748  2.000  triplet
     74      -73.963848933293  2.000  triplet
     75      -73.915488539821  2.000  triplet
     76      -73.910801025327  0.000  singlet
     77      -73.886738699209  0.000  singlet
     78      -73.870856268097  0.000  singlet
     79      -73.830630160201  2.000  triplet
     80      -73.729314431301  0.000  singlet
     81      -73.698029903736  2.000  triplet
     82      -73.696718163795  2.000  triplet
     83      -73.553039079634  2.000  triplet
     84      -73.508864496695  0.000  singlet
     85      -72.833675173176  0.000  singlet
  ---------------------------------------------
  Timing for initial guess  =      0.553 s

  Projecting out root 3
  Projecting out root 4
  Projecting out root 6
  Projecting out root 7
  Projecting out root 8
  Projecting out root 10
  Projecting out root 12
  Projecting out root 13
  Projecting out root 15
  Projecting out root 17
  Projecting out root 19
  Projecting out root 22
  Projecting out root 24
  Projecting out root 25
  Projecting out root 26
  Projecting out root 29
  Projecting out root 30
  Projecting out root 33
  Projecting out root 34
  Projecting out root 35
  Projecting out root 39
  Projecting out root 41
  Projecting out root 42
  Projecting out root 44
  Projecting out root 45
  Projecting out root 46
  Projecting out root 47
  Projecting out root 48
  Projecting out root 49
  Projecting out root 50
  Projecting out root 53
  Projecting out root 56
  Projecting out root 57
  Projecting out root 59
  Projecting out root 62
  Projecting out root 64
  Projecting out root 65
  Projecting out root 67
  Projecting out root 68
  Projecting out root 69
  Projecting out root 72
  Projecting out root 73
  Projecting out root 74
  Projecting out root 75
  Projecting out root 79
  Projecting out root 81
  Projecting out root 82
  Projecting out root 83
  ==> Diagonalizing Hamiltonian <==

  ----------------------------------------
    Iter.      Avg. Energy       Delta_E
  ----------------------------------------
      1      -75.488318702753  -7.549e+01
      2      -75.518044118383  -2.973e-02
      3      -75.519457740989  -1.414e-03
      4      -75.519603465882  -1.457e-04
      5      -75.519627601696  -2.414e-05
      6      -75.519630922259  -3.321e-06
      7      -75.519631354023  -4.318e-07
      8      -75.519631381932  -2.791e-08
      9      -75.519631385710  -3.778e-09
     10      -75.519631386229  -5.192e-10
     11      -75.519631386270  -4.098e-11
     12      -75.519631386275  -5.315e-12
     13      -75.519631386276  -4.121e-13
     14      -75.519631386276  -1.421e-14
  ----------------------------------------
  The Davidson-Liu algorithm converged in 15 iterations.

  ==> Root No. 0 <==

    20 0 0 20 2 2     -0.83232729
    22 0 0 00 2 2      0.38570064
    20 0 2 20 0 2      0.11018190
    20 2 0 20 2 0      0.11018190

    Total Energy:       -75.600540183355747

  ==> Root No. 1 <==

    22 0 0 20 0 2     -0.62704477
    22 0 0 20 2 0     -0.62704477
    22 0 0 00 2 2      0.32857597
    20 0 0 20 2 2      0.11174182

    Total Energy:       -75.479219342457711

  ==> Root No. 2 <==

    22 0 0 20 2 0     -0.68356220
    22 0 0 20 0 2      0.68356220

    Total Energy:       -75.479134633013885

  ==> Computing RDMs for Root No. 0 <==

    Timing for 1-RDM: 0.000 s
    Timing for 2-RDM: 0.005 s

  ==> NATURAL ORBITALS <==

        1Ag     1.986220      1B2u    1.896653      1B3u    1.896653  
        1B1u    1.579746      2Ag     0.416666      1B2g    0.106604  
        1B3g    0.106604      2B1u    0.010854  


  ==> Computing RDMs for Root No. 1 <==

    Timing for 1-RDM: 0.000 s
    Timing for 2-RDM: 0.007 s

  ==> NATURAL ORBITALS <==

        1Ag     1.976331      2Ag     1.911409      1B1u    1.720755  
        1B3u    1.130163      1B2u    1.130163      1B2g    0.059063  
        1B3g    0.059063      2B1u    0.013052  


  ==> Computing RDMs for Root No. 2 <==

    Timing for 1-RDM: 0.000 s
    Timing for 2-RDM: 0.006 s

  ==> NATURAL ORBITALS <==

        1Ag     1.987838      2Ag     1.965651      1B1u    1.955930  
        1B2u    0.990234      1B3u    0.990234      1B3g    0.048811  
        1B2g    0.048811      2B1u    0.012491  


 CAS took 1.064203 seconds.

 FormFockIntermediates took 0.05422100 s.

 FormOrbitalGradient took 0.00049600 s.

 FormDiagHessian took 0.00005900 s.

 Update function takes 0.05481000 s
   14   0.000000539677   -0.000000000020   -75.519631386276    1.368342 s

 A miracle has come to pass. The CASSCF iterations have converged.
 @E(CASSCF) =   -75.519631386276 

 Overall retranformation of integrals takes 0.0000 s.
	CASSCF Energy.....................................................PASSED

*** Psi4 exiting successfully. Buy a developer a beer!
