
    -----------------------------------------------------------------------
          Psi4: An Open-Source Ab Initio Electronic Structure Package
                               Psi4 1.2a1.dev491 

                         Git: Rev {master} 09b4ef6 


    R. M. Parrish, L. A. Burns, D. G. A. Smith, A. C. Simmonett,
    A. E. DePrince III, E. G. Hohenstein, U. Bozkaya, A. Yu. Sokolov,
    R. Di Remigio, R. M. Richard, J. F. Gonthier, A. M. James,
    H. R. McAlexander, A. Kumar, M. Saitow, X. Wang, B. P. Pritchard,
    P. Verma, H. F. Schaefer III, K. Patkowski, R. A. King, E. F. Valeev,
    F. A. Evangelista, J. M. Turney, T. D. Crawford, and C. D. Sherrill,
    J. Chem. Theory Comput. 13(7) pp 3185--3197 (2017).
    (doi: 10.1021/acs.jctc.7b00174)

    -----------------------------------------------------------------------


    Psi4 started on: Monday, 18 September 2017 07:14PM

    Process ID:  24781
    PSIDATADIR: /Users/york/src/psi4new/psi4/share/psi4
    Memory:     500.0 MiB
    Threads:    1
    
  ==> Input File <==

--------------------------------------------------------------------------
#! Example of state-averaged CASSCF for the C2 molecule
#! see C. D. Sherrill and P. Piecuch, J. Chem. Phys. 122, 124104 (2005)

import forte 

molecule {
0 1
C
C 1 1.20
}

set globals{
  basis               6-31G*
  df_basis_scf        cc-pvdz-jkfit
  df_basis_mp2        cc-pvdz-ri
  reference           rhf
  docc                [2, 0, 0, 0, 0, 2, 1, 1]
  restricted_docc     [1, 0, 0, 0, 0, 1, 0, 0]
  active              [2, 0, 1, 1, 0, 2, 1, 1]
  e_convergence       1e-12
  d_convergence       1e-8
  r_convergence       1e-8
  mcscf_e_convergence 1e-12
  mcscf_r_convergence 1e-8
  scf_type            pk
  num_roots           3
  avg_states          [0, 1, 2]
}
casscf_energy = energy('casscf')

set scf_type direct
set forte {
  job_type               casscf
  casscf_reference       true
  casscf_iterations      25
  restricted_docc        [1, 0, 0, 0, 0, 1, 0, 0]
  active                 [2, 0, 1, 1, 0, 2, 1, 1]
  print                  1
  casscf_g_convergence   1e-6
  casscf_e_convergence   1e-10
  casscf_debug_printing  false
  avg_state              [[0, 1, 3]]
  int_type               conventional
}
Eforte = energy('forte')
compare_values(Eforte, casscf_energy, 6, 'CASSCF Energy')  #TEST

--------------------------------------------------------------------------

*** tstart() called on Yorks-Mac.local
*** at Mon Sep 18 19:14:49 2017

   => Loading Basis Set <=

    Name: 6-31G*
    Role: ORBITAL
    Keyword: BASIS
    atoms 1-2 entry C          line   103 file /Users/york/src/psi4new/psi4/share/psi4/basis/6-31gs.gbs 


         ---------------------------------------------------------
                                   SCF
            by Justin Turney, Rob Parrish, Andy Simmonett
                             and Daniel Smith
                              RHF Reference
                        1 Threads,    500 MiB Core
         ---------------------------------------------------------

  ==> Geometry <==

    Molecular point group: d2h
    Full point group: D_inf_h

    Geometry (in Angstrom), charge = 0, multiplicity = 1:

       Center              X                  Y                   Z               Mass       
    ------------   -----------------  -----------------  -----------------  -----------------
           C          0.000000000000     0.000000000000    -0.600000000000    12.000000000000
           C          0.000000000000     0.000000000000     0.600000000000    12.000000000000

  Running in d2h symmetry.

  Rotational constants: A = ************  B =      1.95111  C =      1.95111 [cm^-1]
  Rotational constants: A = ************  B =  58492.94039  C =  58492.94039 [MHz]
  Nuclear repulsion =   15.875316257700003

  Charge       = 0
  Multiplicity = 1
  Electrons    = 12
  Nalpha       = 6
  Nbeta        = 6

  ==> Algorithm <==

  SCF Algorithm Type is PK.
  DIIS enabled.
  MOM disabled.
  Fractional occupation disabled.
  Guess Type is SAD.
  Energy threshold   = 1.00e-12
  Density threshold  = 1.00e-08
  Integral threshold = 0.00e+00

  ==> Primary Basis <==

  Basis Set: 6-31G*
    Blend: 6-31G*
    Number of shells: 12
    Number of basis function: 30
    Number of Cartesian functions: 30
    Spherical Harmonics?: false
    Max angular momentum: 2

  ==> Pre-Iterations <==

   -------------------------------------------------------
    Irrep   Nso     Nmo     Nalpha   Nbeta   Ndocc  Nsocc
   -------------------------------------------------------
     Ag         8       8       2       2       2       0
     B1g        1       1       0       0       0       0
     B2g        3       3       0       0       0       0
     B3g        3       3       0       0       0       0
     Au         1       1       0       0       0       0
     B1u        8       8       2       2       2       0
     B2u        3       3       1       1       1       0
     B3u        3       3       1       1       1       0
   -------------------------------------------------------
    Total      30      30       6       6       6       0
   -------------------------------------------------------

  ==> Integral Setup <==

  Using in-core PK algorithm.
   Calculation information:
      Number of atoms:                   2
      Number of AO shells:              12
      Number of primitives:             30
      Number of atomic orbitals:        30
      Number of basis functions:        30

      Integral cutoff                 1.00e-12
      Number of threads:                 1

  Performing in-core PK
  Using 216690 doubles for integral storage.
  We computed 3081 shell quartets total.
  Whereas there are 3081 unique shell quartets.
  ==> DiskJK: Disk-Based J/K Matrices <==

    J tasked:                  Yes
    K tasked:                  Yes
    wK tasked:                  No
    Memory (MB):               375
    Schwarz Cutoff:          1E-12

    OpenMP threads:              1
  Minimum eigenvalue in the overlap matrix is 4.9495510579E-03.
  Using Symmetric Orthogonalization.

  SCF Guess: Superposition of Atomic Densities via on-the-fly atomic UHF.

  ==> Iterations <==

                        Total Energy        Delta E     RMS |[F,P]|

   @RHF iter   0:   -75.23299338388814   -7.52330e+01   1.26823e-01 
   @RHF iter   1:   -75.35917212352543   -1.26179e-01   9.39916e-03 
   @RHF iter   2:   -75.37335809220485   -1.41860e-02   3.43236e-03 DIIS
   @RHF iter   3:   -75.37555540466776   -2.19731e-03   7.25153e-04 DIIS
   @RHF iter   4:   -75.37565754817518   -1.02144e-04   1.58838e-04 DIIS
   @RHF iter   5:   -75.37566250337471   -4.95520e-06   1.68228e-05 DIIS
   @RHF iter   6:   -75.37566253490691   -3.15322e-08   1.03326e-06 DIIS
   @RHF iter   7:   -75.37566253510693   -2.00018e-10   1.69727e-07 DIIS
   @RHF iter   8:   -75.37566253511154   -4.61853e-12   2.22194e-08 DIIS
   @RHF iter   9:   -75.37566253511159   -4.26326e-14   1.58648e-09 DIIS

  ==> Post-Iterations <==

    Orbital Energies (a.u.)
    -----------------------

    Doubly Occupied:                                                      

       1Ag   -11.345479     1B1u  -11.342482     2Ag    -1.069183  
       2B1u   -0.499387     1B3u   -0.459767     1B2u   -0.459767  

    Virtual:                                                              

       3Ag    -0.096227     1B2g    0.192836     1B3g    0.192836  
       3B1u    0.482452     4Ag     0.651518     2B3u    0.703331  
       2B2u    0.703331     5Ag     0.761933     2B2g    0.863149  
       2B3g    0.863149     4B1u    0.976739     5B1u    1.391894  
       1B1g    1.764970     6Ag     1.764970     3B3u    1.777341  
       3B2u    1.777341     1Au     2.207447     6B1u    2.207447  
       7Ag     2.476083     3B3g    2.815873     3B2g    2.815873  
       7B1u    3.241595     8Ag     4.308505     8B1u    4.452386  

    Final Occupation by Irrep:
             Ag   B1g   B2g   B3g    Au   B1u   B2u   B3u 
    DOCC [     2,    0,    0,    0,    0,    2,    1,    1 ]

  Energy converged.

  @RHF Final Energy:   -75.37566253511159

   => Energetics <=

    Nuclear Repulsion Energy =             15.8753162577000033
    One-Electron Energy =                -132.1498269137627517
    Two-Electron Energy =                  40.8988481209511576
    Total Energy =                        -75.3756625351115872



Properties will be evaluated at   0.000000,   0.000000,   0.000000 Bohr

Properties computed using the SCF density matrix

  Nuclear Dipole Moment: (a.u.)
     X:     0.0000      Y:     0.0000      Z:     0.0000

  Electronic Dipole Moment: (a.u.)
     X:     0.0000      Y:     0.0000      Z:     0.0000

  Dipole Moment: (a.u.)
     X:     0.0000      Y:     0.0000      Z:     0.0000     Total:     0.0000

  Dipole Moment: (Debye)
     X:     0.0000      Y:     0.0000      Z:     0.0000     Total:     0.0000


*** tstop() called on Yorks-Mac.local at Mon Sep 18 19:14:50 2017
Module time:
	user time   =       0.46 seconds =       0.01 minutes
	system time =       0.03 seconds =       0.00 minutes
	total time  =          1 seconds =       0.02 minutes
Total time:
	user time   =       0.46 seconds =       0.01 minutes
	system time =       0.03 seconds =       0.00 minutes
	total time  =          1 seconds =       0.02 minutes
 MINTS: Wrapper to libmints.
   by Justin Turney

   Calculation information:
      Number of threads:                 1
      Number of atoms:                   2
      Number of AO shells:              12
      Number of SO shells:               6
      Number of primitives:             30
      Number of atomic orbitals:        30
      Number of basis functions:        30

      Number of irreps:                  8
      Integral cutoff                 1.00e-12
      Number of functions per irrep: [   8    1    3    3    1    8    3    3 ]

 OEINTS: Overlap, kinetic, potential, dipole, and quadrupole integrals
         stored in file 35.

      Computing two-electron integrals...done
      Computed 15467 non-zero two-electron integrals.
        Stored in file 33.

 MINTS: Wrapper to libmints.
   by Justin Turney

   Calculation information:
      Number of threads:                 1
      Number of atoms:                   2
      Number of AO shells:              12
      Number of SO shells:               6
      Number of primitives:             30
      Number of atomic orbitals:        30
      Number of basis functions:        30

      Number of irreps:                  8
      Integral cutoff                 0.00e+00
      Number of functions per irrep: [   8    1    3    3    1    8    3    3 ]

 OEINTS: Overlap, kinetic, potential, dipole, and quadrupole integrals
         stored in file 35.

      Computing two-electron integrals...done
      Computed 15467 non-zero two-electron integrals.
        Stored in file 33.


         ---------------------------------------------------------
                Multi-Configurational Self-Consistent Field
                            (a 'D E T C I' module)

                 Daniel G. A. Smith, C. David Sherrill, and
                              Matt L. Leininger
         ---------------------------------------------------------


   ==> Parameters <==

    EX LEVEL       =        8      H0 BLOCKSIZE  =     1000
    VAL EX LEVEL   =        0      H0 GUESS SIZE =     1000
    H0COUPLINGSIZE =        0      H0 COUPLING   =       NO
    MAXITER        =       12      NUM PRINT     =       20
    NUM ROOTS      =        3      ICORE         =        1
    PRINT LVL      =        1      FCI           =      YES
    R CONV         = 1.00e-08      MIXED         =      YES
    E CONV         = 1.00e-12      MIXED4        =      YES
    R4S            =       NO      REPL OTF      =       NO
    DIAG METHOD    =      SEM      FOLLOW ROOT   =        0
    PRECONDITIONER = DAVIDSON      UPDATE        = DAVIDSON
    S              =   0.0000      Ms0           =      YES
    GUESS VECTOR   =  H0BLOCK      OPENTYPE      =     NONE
    COLLAPSE SIZE  =        1      HD AVG        = EVANGELISTI
    MAX NUM VECS   =       39      REF SYM       =     AUTO
    IOPEN        =       NO

    EX ALLOW       =  1  1  1  1  1  1  1  1 
    STATE AVERAGE  =  0(0.33)  1(0.33)  2(0.33) 

   ==> CI Orbital and Space information <==

   ------------------------------------------------------------------------------
               Space    Total    Ag   B1g   B2g   B3g    Au   B1u   B2u   B3u
   ------------------------------------------------------------------------------
                 Nso       30     8     1     3     3     1     8     3     3
                 Nmo       30     8     1     3     3     1     8     3     3
               Ndocc        6     2     0     0     0     0     2     1     1
               Nsocc        0     0     0     0     0     0     0     0     0
   ------------------------------------------------------------------------------
                                    MCSCF Spaces
   ------------------------------------------------------------------------------
         Frozen DOCC        0     0     0     0     0     0     0     0     0
     Restricted DOCC        2     1     0     0     0     0     1     0     0
              Active        8     2     0     1     1     0     2     1     1
     Restricted UOCC       20     5     1     2     2     1     5     2     2
         Frozen UOCC        0     0     0     0     0     0     0     0     0
   ------------------------------------------------------------------------------

   ==> Setting up CI strings <==

    There are 70 alpha and 70 beta strings
    The CI space requires 660 (6.60E+02) determinants and 8 blocks

   ==> Setting up MCSCF integrals <==

  Using in-core PK algorithm.
   Calculation information:
      Number of atoms:                   2
      Number of AO shells:              12
      Number of primitives:             30
      Number of atomic orbitals:        30
      Number of basis functions:        30

      Integral cutoff                 1.00e-12
      Number of threads:                 1

  Performing in-core PK
  Using 216690 doubles for integral storage.
  We computed 3081 shell quartets total.
  Whereas there are 3081 unique shell quartets.
  ==> DiskJK: Disk-Based J/K Matrices <==

    J tasked:                  Yes
    K tasked:                  Yes
    wK tasked:                  No
    Memory (MB):              3200
    Schwarz Cutoff:          1E-12

    OpenMP threads:              1

   ==> Starting MCSCF iterations <==

        Iter         Total Energy       Delta E   Orb RMS    CI RMS  NCI NORB
   @MCSCF  1:    -75.464227621020   -8.8565e-02  5.24e-02  1.67e-12    1    1  Initial CI
      Warning! Maxstep = 0.63, scaling to 0.50
   @MCSCF  2:    -75.506886373075   -4.2659e-02  1.85e-02  3.27e-05    9    1  TS
   @MCSCF  3:    -75.517627352616   -1.0741e-02  6.13e-03  1.02e-05    9    1  TS
   @MCSCF  4:    -75.519308357675   -1.6810e-03  2.37e-03  3.19e-06   10    1  TS, DIIS
   @MCSCF  5:    -75.519577546757   -2.6919e-04  1.01e-03  1.26e-06   10    1  TS, DIIS
   @MCSCF  6:    -75.519627939518   -5.0393e-05  2.29e-04  5.79e-07   10    1  TS, DIIS
   @MCSCF  7:    -75.519631368829   -3.4293e-06  3.45e-05  1.53e-07   10    1  TS, DIIS
   @MCSCF  8:    -75.519631374864   -6.0353e-09  1.44e-05  2.28e-08   10    1  TS, DIIS
   @MCSCF  9:    -75.519631384763   -9.8991e-09  5.69e-06  7.63e-09   10    1  TS, DIIS
   @MCSCF 10:    -75.519631386248   -1.4845e-09  9.86e-07  4.04e-09   10    1  TS, DIIS
   @MCSCF 11:    -75.519631386277   -2.8564e-11  1.66e-07  4.43e-10   10    1  TS, DIIS
   @MCSCF 12:    -75.519631386277   -5.4001e-13  3.52e-08  7.65e-11   10    1  TS, DIIS
   @MCSCF 13:    -75.519631386277   -1.4211e-14  1.21e-08  0.00e+00   12    1  TS, DIIS
   @MCSCF 14:    -75.519631386277    5.6843e-14  5.20e-09  0.00e+00   12    1  TS, DIIS

          @MCSCF has converged!

   @MCSCF Final Energy:  -75.519631386277055

   Computing CI Semicanonical Orbitals

   ==> Energetics <==

    SCF energy =          -75.375662535111587
    Total MCSCF energy =  -75.519631386277055

   ==> MCSCF root 0 information <==

    MCSCF Root 0 energy =   -75.600540166999949

   Active Space Natural occupation numbers:

        Ag   1.986220       B2u   1.896653       B3u   1.896653
       B1u   1.579746        Ag   0.416666       B2g   0.106604
       B3g   0.106604       B1u   0.010854

   The 20 most important determinants:

    *   1    0.839686  (   12,   12)  2AgX 2B1uX 1B2uX 1B3uX 
    *   2   -0.385701  (   42,   42)  2AgX 3AgX 1B2uX 1B3uX 
    *   3   -0.111895  (   34,   34)  2AgX 1B2gX 2B1uX 1B2uX 
    *   4   -0.111895  (   38,   38)  2AgX 1B3gX 2B1uX 1B3uX 
    *   5   -0.094446  (   60,   56)  2AgX 3AgB 1B2gA 2B1uB 1B2uX 1B3uA 
    *   6   -0.094446  (   56,   60)  2AgX 3AgA 1B2gB 2B1uA 1B2uX 1B3uB 
    *   7    0.094446  (   66,   68)  2AgX 3AgA 1B3gB 2B1uA 1B2uB 1B3uX 
    *   8    0.094446  (   68,   66)  2AgX 3AgB 1B3gA 2B1uB 1B2uA 1B3uX 
    *   9   -0.089296  (   42,   34)  2AgX 3AgA 1B2gB 2B1uB 1B2uX 1B3uA 
    *  10   -0.089296  (   34,   42)  2AgX 3AgB 1B2gA 2B1uA 1B2uX 1B3uB 
    *  11    0.089296  (   42,   38)  2AgX 3AgA 1B3gB 2B1uB 1B2uA 1B3uX 
    *  12    0.089296  (   38,   42)  2AgX 3AgB 1B3gA 2B1uA 1B2uB 1B3uX 
    *  13    0.072478  (    8,    8)  2AgX 3AgX 1B2gX 1B2uX 
    *  14    0.072478  (   10,   10)  2AgX 3AgX 1B3gX 1B3uX 
    *  15    0.065080  (   34,   38)  2AgX 1B2gA 1B3gB 2B1uX 1B2uA 1B3uB 
    *  16    0.065080  (   38,   34)  2AgX 1B2gB 1B3gA 2B1uX 1B2uB 1B3uA 
    *  17   -0.046893  (   60,   60)  2AgX 1B2gX 1B2uX 1B3uX 
    *  18   -0.046893  (   68,   68)  2AgX 1B3gX 1B2uX 1B3uX 
    *  19   -0.041530  (   10,    8)  2AgX 3AgX 1B2gB 1B3gA 1B2uB 1B3uA 
    *  20   -0.041530  (    8,   10)  2AgX 3AgX 1B2gA 1B3gB 1B2uA 1B3uB 


   ==> MCSCF root 1 information <==

    MCSCF Root 1 energy =   -75.479219355528173

   Active Space Natural occupation numbers:

        Ag   1.976331        Ag   1.911409       B1u   1.720756
       B2u   1.130162       B3u   1.130162       B3g   0.059064
       B2g   0.059064       B1u   0.013052

   The 20 most important determinants:

    *   1   -0.627104  (   56,   56)  2AgX 3AgX 2B1uX 1B2uX 
    *   2   -0.627104  (   66,   66)  2AgX 3AgX 2B1uX 1B3uX 
    *   3    0.328575  (   42,   42)  2AgX 3AgX 1B2uX 1B3uX 
    *   4    0.111797  (   12,   12)  2AgX 2B1uX 1B2uX 1B3uX 
    *   5    0.094433  (   24,   24)  2AgX 3AgX 1B3gX 2B1uX 
    *   6    0.094433  (   16,   16)  2AgX 3AgX 1B2gX 2B1uX 
    *   7    0.075822  (    8,   12)  2AgX 3AgA 1B2gA 2B1uB 1B2uX 1B3uB 
    *   8    0.075822  (   12,    8)  2AgX 3AgB 1B2gB 2B1uA 1B2uX 1B3uA 
    *   9   -0.075822  (   12,   10)  2AgX 3AgB 1B3gB 2B1uA 1B2uA 1B3uX 
    *  10   -0.075822  (   10,   12)  2AgX 3AgA 1B3gA 2B1uB 1B2uB 1B3uX 
    *  11    0.070436  (   13,   13)  3AgX 2B1uX 1B2uX 1B3uX 
    *  12   -0.057352  (   34,   42)  2AgX 3AgB 1B2gA 2B1uA 1B2uX 1B3uB 
    *  13   -0.057352  (   42,   34)  2AgX 3AgA 1B2gB 2B1uB 1B2uX 1B3uA 
    *  14    0.057352  (   38,   42)  2AgX 3AgB 1B3gA 2B1uA 1B2uB 1B3uX 
    *  15    0.057352  (   42,   38)  2AgX 3AgA 1B3gB 2B1uB 1B2uA 1B3uX 
    *  16   -0.040214  (    8,   13)  2AgA 3AgX 1B2gA 2B1uB 1B2uX 1B3uB 
    *  17   -0.040214  (   13,    8)  2AgB 3AgX 1B2gB 2B1uA 1B2uX 1B3uA 
    *  18    0.040214  (   13,   10)  2AgB 3AgX 1B3gB 2B1uA 1B2uA 1B3uX 
    *  19    0.040214  (   10,   13)  2AgA 3AgX 1B3gA 2B1uB 1B2uB 1B3uX 
    *  20    0.034048  (    0,    0)  2AgX 3AgX 1B3gX 1B2uX 


   ==> MCSCF root 2 information <==

    MCSCF Root 2 energy =   -75.479134636272860

   Active Space Natural occupation numbers:

        Ag   1.987838        Ag   1.965651       B1u   1.955930
       B3u   0.990234       B2u   0.990234       B2g   0.048811
       B3g   0.048811       B1u   0.012491

   The 20 most important determinants:

    *   1    0.683604  (   66,   66)  2AgX 3AgX 2B1uX 1B3uX 
    *   2   -0.683604  (   56,   56)  2AgX 3AgX 2B1uX 1B2uX 
    *   3   -0.091267  (   16,   16)  2AgX 3AgX 1B2gX 2B1uX 
    *   4    0.091267  (   24,   24)  2AgX 3AgX 1B3gX 2B1uX 
    *   5   -0.059584  (   10,   10)  2AgX 3AgX 1B3gX 1B3uX 
    *   6    0.059584  (    8,    8)  2AgX 3AgX 1B2gX 1B2uX 
    *   7   -0.043228  (   38,   42)  2AgX 3AgB 1B3gA 2B1uA 1B2uB 1B3uX 
    *   8   -0.043228  (   42,   38)  2AgX 3AgA 1B3gB 2B1uB 1B2uA 1B3uX 
    *   9   -0.043228  (   42,   34)  2AgX 3AgA 1B2gB 2B1uB 1B2uX 1B3uA 
    *  10   -0.043228  (   34,   42)  2AgX 3AgB 1B2gA 2B1uA 1B2uX 1B3uB 
    *  11   -0.040627  (    2,    2)  2AgX 3AgX 1B2gX 1B3uX 
    *  12    0.040627  (    0,    0)  2AgX 3AgX 1B3gX 1B2uX 
    *  13    0.040244  (   10,   12)  2AgX 3AgA 1B3gA 2B1uB 1B2uB 1B3uX 
    *  14    0.040244  (   12,   10)  2AgX 3AgB 1B3gB 2B1uA 1B2uA 1B3uX 
    *  15    0.040244  (    8,   12)  2AgX 3AgA 1B2gA 2B1uB 1B2uX 1B3uB 
    *  16    0.040244  (   12,    8)  2AgX 3AgB 1B2gB 2B1uA 1B2uX 1B3uA 
    *  17   -0.039115  (   38,   38)  2AgX 1B3gX 2B1uX 1B3uX 
    *  18    0.039115  (   34,   34)  2AgX 1B2gX 2B1uX 1B2uX 
    *  19   -0.035125  (   13,   10)  2AgB 3AgX 1B3gB 2B1uA 1B2uA 1B3uX 
    *  20   -0.035125  (   10,   13)  2AgA 3AgX 1B3gA 2B1uB 1B2uB 1B3uX 



Properties will be evaluated at   0.000000,   0.000000,   0.000000 Bohr

Properties computed using the CASSCF density matrix

  Nuclear Dipole Moment: (a.u.)
     X:     0.0000      Y:     0.0000      Z:     0.0000

  Electronic Dipole Moment: (a.u.)
     X:     0.0000      Y:     0.0000      Z:     0.0000

  Dipole Moment: (a.u.)
     X:     0.0000      Y:     0.0000      Z:     0.0000     Total:     0.0000

  Dipole Moment: (Debye)
     X:     0.0000      Y:     0.0000      Z:     0.0000     Total:     0.0000


*** tstart() called on Yorks-Mac.local
*** at Mon Sep 18 19:14:58 2017

   => Loading Basis Set <=

    Name: 6-31G*
    Role: ORBITAL
    Keyword: BASIS
    atoms 1-2 entry C          line   103 file /Users/york/src/psi4new/psi4/share/psi4/basis/6-31gs.gbs 


         ---------------------------------------------------------
                                   SCF
            by Justin Turney, Rob Parrish, Andy Simmonett
                             and Daniel Smith
                              RHF Reference
                        1 Threads,    500 MiB Core
         ---------------------------------------------------------

  ==> Geometry <==

    Molecular point group: d2h
    Full point group: D_inf_h

    Geometry (in Angstrom), charge = 0, multiplicity = 1:

       Center              X                  Y                   Z               Mass       
    ------------   -----------------  -----------------  -----------------  -----------------
           C          0.000000000000     0.000000000000    -0.600000000000    12.000000000000
           C          0.000000000000     0.000000000000     0.600000000000    12.000000000000

  Running in d2h symmetry.

  Rotational constants: A = ************  B =      1.95111  C =      1.95111 [cm^-1]
  Rotational constants: A = ************  B =  58492.94039  C =  58492.94039 [MHz]
  Nuclear repulsion =   15.875316257700003

  Charge       = 0
  Multiplicity = 1
  Electrons    = 12
  Nalpha       = 6
  Nbeta        = 6

  ==> Algorithm <==

  SCF Algorithm Type is DIRECT.
  DIIS enabled.
  MOM disabled.
  Fractional occupation disabled.
  Guess Type is SAD.
  Energy threshold   = 1.00e-12
  Density threshold  = 1.00e-08
  Integral threshold = 0.00e+00

  ==> Primary Basis <==

  Basis Set: 6-31G*
    Blend: 6-31G*
    Number of shells: 12
    Number of basis function: 30
    Number of Cartesian functions: 30
    Spherical Harmonics?: false
    Max angular momentum: 2

   => Loading Basis Set <=

    Name: CC-PVDZ-JKFIT
    Role: JKFIT
    Keyword: DF_BASIS_SCF
    atoms 1-2 entry C          line   121 file /Users/york/src/psi4new/psi4/share/psi4/basis/cc-pvdz-jkfit.gbs 

  ==> Pre-Iterations <==

   -------------------------------------------------------
    Irrep   Nso     Nmo     Nalpha   Nbeta   Ndocc  Nsocc
   -------------------------------------------------------
     Ag         8       8       2       2       2       0
     B1g        1       1       0       0       0       0
     B2g        3       3       0       0       0       0
     B3g        3       3       0       0       0       0
     Au         1       1       0       0       0       0
     B1u        8       8       2       2       2       0
     B2u        3       3       1       1       1       0
     B3u        3       3       1       1       1       0
   -------------------------------------------------------
    Total      30      30       6       6       6       0
   -------------------------------------------------------

  Starting with a DF guess...

  ==> Integral Setup <==

  ==> DFJK: Density-Fitted J/K Matrices <==

    J tasked:                  Yes
    K tasked:                  Yes
    wK tasked:                  No
    OpenMP threads:              1
    Integrals threads:           1
    Memory (MB):               375
    Algorithm:                Core
    Integral Cache:           NONE
    Schwarz Cutoff:          1E-12
    Fitting Condition:       1E-12

   => Auxiliary Basis Set <=

  Basis Set: CC-PVDZ-JKFIT
    Blend: CC-PVDZ-JKFIT
    Number of shells: 48
    Number of basis function: 162
    Number of Cartesian functions: 162
    Spherical Harmonics?: false
    Max angular momentum: 3

  Minimum eigenvalue in the overlap matrix is 4.9495510579E-03.
  Using Symmetric Orthogonalization.

  SCF Guess: Superposition of Atomic Densities via on-the-fly atomic UHF.

  ==> Iterations <==

                           Total Energy        Delta E     RMS |[F,P]|

   @DF-RHF iter   0:   -76.11977259501842   -7.61198e+01   1.57959e-01 
   @DF-RHF iter   1:   -75.35786731435098    7.61905e-01   1.17034e-02 
   @DF-RHF iter   2:   -75.37422100861924   -1.63537e-02   3.12647e-03 DIIS
   @DF-RHF iter   3:   -75.37538267705055   -1.16167e-03   8.80948e-04 DIIS
   @DF-RHF iter   4:   -75.37552215086409   -1.39474e-04   1.79684e-04 DIIS
   @DF-RHF iter   5:   -75.37552938365810   -7.23279e-06   2.97479e-05 DIIS
   @DF-RHF iter   6:   -75.37552954370094   -1.60043e-07   4.20888e-06 DIIS
   @DF-RHF iter   7:   -75.37552954763849   -3.93756e-09   5.47166e-07 DIIS
   @DF-RHF iter   8:   -75.37552954769666   -5.81650e-11   5.04586e-08 DIIS
   @DF-RHF iter   9:   -75.37552954769718   -5.25802e-13   5.24661e-09 DIIS

  DF guess converged.

  ==> Integral Setup <==

  ==> DirectJK: Integral-Direct J/K Matrices <==

    J tasked:                  Yes
    K tasked:                  Yes
    wK tasked:                  No
    Integrals threads:           1
    Schwarz Cutoff:          1E-12

   @RHF iter  10:   -75.37566246510461   -1.32917e-04   3.22458e-05 DIIS
   @RHF iter  11:   -75.37566253220861   -6.71040e-08   5.77426e-06 DIIS
   @RHF iter  12:   -75.37566253496088   -2.75227e-09   1.23065e-06 DIIS
   @RHF iter  13:   -75.37566253510586   -1.44979e-10   1.77365e-07 DIIS
   @RHF iter  14:   -75.37566253511146   -5.59908e-12   3.64041e-08 DIIS
   @RHF iter  15:   -75.37566253511159   -1.27898e-13   5.73588e-09 DIIS

  ==> Post-Iterations <==

    Orbital Energies (a.u.)
    -----------------------

    Doubly Occupied:                                                      

       1Ag   -11.345479     1B1u  -11.342482     2Ag    -1.069183  
       2B1u   -0.499387     1B2u   -0.459767     1B3u   -0.459767  

    Virtual:                                                              

       3Ag    -0.096227     1B3g    0.192836     1B2g    0.192836  
       3B1u    0.482452     4Ag     0.651518     2B2u    0.703331  
       2B3u    0.703331     5Ag     0.761933     2B3g    0.863149  
       2B2g    0.863149     4B1u    0.976739     5B1u    1.391894  
       1B1g    1.764970     6Ag     1.764970     3B2u    1.777341  
       3B3u    1.777341     6B1u    2.207447     1Au     2.207447  
       7Ag     2.476083     3B2g    2.815873     3B3g    2.815873  
       7B1u    3.241595     8Ag     4.308505     8B1u    4.452386  

    Final Occupation by Irrep:
             Ag   B1g   B2g   B3g    Au   B1u   B2u   B3u 
    DOCC [     2,    0,    0,    0,    0,    2,    1,    1 ]

  Energy converged.

  @RHF Final Energy:   -75.37566253511159

   => Energetics <=

    Nuclear Repulsion Energy =             15.8753162577000033
    One-Electron Energy =                -132.1498268963854343
    Two-Electron Energy =                  40.8988481035738403
    Total Energy =                        -75.3756625351115872



Properties will be evaluated at   0.000000,   0.000000,   0.000000 Bohr

Properties computed using the SCF density matrix

  Nuclear Dipole Moment: (a.u.)
     X:     0.0000      Y:     0.0000      Z:     0.0000

  Electronic Dipole Moment: (a.u.)
     X:     0.0000      Y:     0.0000      Z:     0.0000

  Dipole Moment: (a.u.)
     X:     0.0000      Y:     0.0000      Z:     0.0000     Total:     0.0000

  Dipole Moment: (Debye)
     X:     0.0000      Y:     0.0000      Z:     0.0000     Total:     0.0000


*** tstop() called on Yorks-Mac.local at Mon Sep 18 19:14:58 2017
Module time:
	user time   =       0.78 seconds =       0.01 minutes
	system time =       0.02 seconds =       0.00 minutes
	total time  =          0 seconds =       0.00 minutes
Total time:
	user time   =       6.44 seconds =       0.11 minutes
	system time =       2.37 seconds =       0.04 minutes
	total time  =          9 seconds =       0.15 minutes
   => Loading Basis Set <=

    Name: STO-3G
    Role: ORBITAL
    Keyword: MINAO_BASIS
    atoms 1-2 entry C          line    61 file /Users/york/src/psi4new/psi4/share/psi4/basis/sto-3g.gbs 


Reading options from the FORTE block
Calling plugin forte.so.



  Forte
  ----------------------------------------------------------------------------
  A suite of quantum chemistry methods for strongly correlated electrons

    git branch: master - git commit: 5a864b68

  Developed by:
    Francesco A. Evangelista, Chenyang Li, Kevin P. Hannon,
    Jeffrey B. Schriber, Tianyuan Zhang, Chenxi Cai
  ----------------------------------------------------------------------------


  ==> MO Space Information <==

  Read options for space RESTRICTED_DOCC
  Read options for space ACTIVE
  -------------------------------------------------------------------------
                       Ag   B1g   B2g   B3g    Au   B1u   B2u   B3u   Sum
  -------------------------------------------------------------------------
    FROZEN_DOCC         0     0     0     0     0     0     0     0     0
    RESTRICTED_DOCC     1     0     0     0     0     1     0     0     2
    ACTIVE              2     0     1     1     0     2     1     1     8
    RESTRICTED_UOCC     5     1     2     2     1     5     2     2    20
    FROZEN_UOCC         0     0     0     0     0     0     0     0     0
    Total               8     1     3     3     1     8     3     3    30
  -------------------------------------------------------------------------

  ==> Integral Transformation <==

  Number of molecular orbitals:               30
  Number of correlated molecular orbitals:    30
  Number of frozen occupied orbitals:          0
  Number of frozen unoccupied orbitals:        0

    Molecular point group: d2h
    Full point group: D_inf_h

    Geometry (in Angstrom), charge = 0, multiplicity = 1:

       Center              X                  Y                   Z               Mass       
    ------------   -----------------  -----------------  -----------------  -----------------
           C          0.000000000000     0.000000000000    -0.600000000000    12.000000000000
           C          0.000000000000     0.000000000000     0.600000000000    12.000000000000

  -AO BASIS SET INFORMATION:
    Name                   = 6-31G*
    Blend                  = 6-31G*
    Total number of shells = 12
    Number of primitives   = 30
    Number of AO           = 30
    Number of SO           = 30
    Maximum AM             = 2
    Spherical Harmonics    = FALSE

  -Contraction Scheme:
    Atom   Type   All Primitives // Shells:
   ------ ------ --------------------------
       1     C     10s 4p 1d // 3s 2p 1d 
       2     C     10s 4p 1d // 3s 2p 1d 

  ==> AO Basis Functions <==

    [ 6-31G* ]
    cartesian
    ****
    C   1
    S   6 1.00
                      3047.52490000           0.00183470
                       457.36951000           0.01403730
                       103.94869000           0.06884260
                        29.21015500           0.23218440
                         9.28666300           0.46794130
                         3.16392700           0.36231200
    S   3 1.00
                         7.86827240          -0.11933240
                         1.88128850          -0.16085420
                         0.54424930           1.14345640
    P   3 1.00
                         7.86827240           0.06899910
                         1.88128850           0.31642400
                         0.54424930           0.74430830
    S   1 1.00
                         0.16871440           1.00000000
    P   1 1.00
                         0.16871440           1.00000000
    D   1 1.00
                         0.80000000           1.00000000
    ****


  Overall Conventional Integrals timings

	Presorting SO-basis two-electron integrals.
	Sorting File: SO Ints (nn|nn) nbuckets = 1
	Transforming the one-electron integrals and constructing Fock matrices
	Starting first half-transformation.
	Sorting half-transformed integrals.
	First half integral transformation complete.
	Starting second half-transformation.
	Two-electron integral transformation complete.

  Integral transformation done. 0.02356400 s
  Reading the two-electron integrals from disk
  Size of two-electron integrals:   0.018105 GB
  Conventional integrals take 0.15002000 s

                -----------------------------------------------
                  Complete Active Space Self Consistent Field
                                 Kevin Hannon
                -----------------------------------------------

     JK takes 0.02556 s to initialize while using DIRECT

  ==> CASSCF Iteration <==

 iter    ||g||           Delta_E            E_CASSCF       CONV_TYPE
 CSO2SO takes   0.0000 s.

 Transform Integrals takes 0.24538100 s.

  Performing a CAS with FCI

  ==> State Averaging Summary <==

    Irrep.  Multi.  Nstates            Weights
    ------------------------------------------
      Ag       1        3    0.333 0.333 0.333
    ------------------------------------------
    Total number of states: 3
    ------------------------------------------

  ==> FCI Solver Summary <==

  Number of electrons: 12
  Charge: 0
  Multiplicity: 1
  Davidson subspace max dim: 8
  Davidson subspace min dim: 2
  M_s: 0

  ==> String Lists <==

  Number of alpha electrons     = 4
  Number of beta electrons      = 4
  Number of alpha strings       = 70
  Number of beta strings        = 70
  Number of alpha strings (N-3) = 8
  Number of beta strings (N-3)  = 8
  Timing for strings        =      0.000 s
  Timing for NN strings     =      0.000 s
  Timing for VO strings     =      0.006 s
  Timing for OO strings     =      0.002 s
  Timing for VVOO strings   =      0.004 s
  Timing for VOVO strings   =      0.000 s
  Timing for 1-hole strings =      0.001 s
  Timing for 2-hole strings =      0.002 s
  Timing for 3-hole strings =      0.004 s
  Total timing              =      0.012 s

  ==> FCI Solver <==

    Number of determinants                         660
    Symmetry                                         0
    Multiplicity                                     1
    Number of roots                                  1
    Target root                                      0
    Trial vectors per root                          10

  Allocating memory for the Hamiltonian algorithm. Size: 2 x 12 x 12.   Memory: 0.000002 GB
  Initial guess space is incomplete.
  Adding 12 determinant(s).

  ==> FCI Initial Guess <==

  ---------------------------------------------
    Root            Energy     <S^2>   Spin
  ---------------------------------------------
      0      -75.536967239236  0.000  singlet
      1      -75.416175658662  0.000  singlet
      2      -75.405839896605  0.000  singlet
      3      -75.301101649239  6.000  quintet
      4      -75.261609860044  6.000  quintet
      5      -75.231374333342  0.000  singlet
      6      -75.174247689660  2.000  triplet
      7      -75.166867891464  2.000  triplet
      8      -75.115223088647  2.000  triplet
      9      -75.084484692895  0.000  singlet
     10      -75.053084683371  0.000  singlet
     11      -75.051103580631  2.000  triplet
     12      -74.992730876954  6.000  quintet
     13      -74.984881548072  2.000  triplet
     14      -74.955786612735  0.000  singlet
     15      -74.926932678396  2.000  triplet
     16      -74.924298094828  0.000  singlet
     17      -74.901006104850  2.000  triplet
     18      -74.882304519001  0.000  singlet
     19      -74.828519365622  2.000  triplet
     20      -74.820079650406  0.000  singlet
     21      -74.811925861396  0.000  singlet
     22      -74.779807082635  0.000  singlet
     23      -74.734639867799  2.000  triplet
     24      -74.732992783761  2.000  triplet
     25      -74.713294415179  0.000  singlet
     26      -74.712225016342  2.000  triplet
     27      -74.692649496264  6.000  quintet
     28      -74.674060579981  0.000  singlet
     29      -74.661957168887  0.000  singlet
     30      -74.658820622334  2.000  triplet
     31      -74.626662113055  0.000  singlet
     32      -74.608697933233  2.000  triplet
     33      -74.602729581642  6.000  quintet
     34      -74.598438395033  0.000  singlet
     35      -74.589683792208  0.000  singlet
     36      -74.583023527717  2.000  triplet
     37      -74.572497115446  0.000  singlet
     38      -74.568842191437  0.000  singlet
     39      -74.557237660658  0.000  singlet
     40      -74.551566654958  6.000  quintet
     41      -74.525444841739  0.000  singlet
     42      -74.507854173968  2.000  triplet
     43      -74.497552153348  0.000  singlet
     44      -74.468195898987  2.000  triplet
     45      -74.461375289946  0.000  singlet
     46      -74.439214234238  6.000  quintet
     47      -74.431115637677  6.000  quintet
     48      -74.423390858483  2.000  triplet
     49      -74.403453275645  2.000  triplet
     50      -74.402207060839  0.000  singlet
     51      -74.374749307505  0.000  singlet
     52      -74.373042997512  2.000  triplet
     53      -74.364780255786  2.000  triplet
     54      -74.352683507741  0.000  singlet
     55      -74.344566995596  2.000  triplet
     56      -74.336058001812  2.000  triplet
     57      -74.328778197470  2.000  triplet
     58      -74.326238420875  0.000  singlet
     59      -74.317490736466  0.000  singlet
     60      -74.265799638335  0.000  singlet
     61      -74.256721812192  2.000  triplet
     62      -74.223533229538  0.000  singlet
     63      -74.212392158847  2.000  triplet
     64      -74.178859153325  2.000  triplet
     65      -74.171905273768  0.000  singlet
     66      -74.127972523455  2.000  triplet
     67      -74.117951559635  0.000  singlet
     68      -74.072225030981  2.000  triplet
     69      -74.069344993100  0.000  singlet
     70      -74.016999734976  0.000  singlet
     71      -73.597836016871  0.000  singlet
  ---------------------------------------------
  Timing for initial guess  =      0.312 s

  Projecting out root 3
  Projecting out root 4
  Projecting out root 6
  Projecting out root 7
  Projecting out root 8
  Projecting out root 11
  Projecting out root 12
  Projecting out root 13
  Projecting out root 15
  Projecting out root 17
  Projecting out root 19
  Projecting out root 23
  Projecting out root 24
  Projecting out root 26
  Projecting out root 27
  Projecting out root 30
  Projecting out root 32
  Projecting out root 33
  Projecting out root 36
  Projecting out root 40
  Projecting out root 42
  Projecting out root 44
  Projecting out root 46
  Projecting out root 47
  Projecting out root 48
  Projecting out root 49
  Projecting out root 52
  Projecting out root 53
  Projecting out root 55
  Projecting out root 56
  Projecting out root 57
  Projecting out root 61
  Projecting out root 63
  Projecting out root 64
  Projecting out root 66
  Projecting out root 68
  ==> Diagonalizing Hamiltonian <==

  ----------------------------------------
    Iter.      Avg. Energy       Delta_E
  ----------------------------------------
      1      -75.452994264834  -7.545e+01
      2      -75.463330758826  -1.034e-02
      3      -75.464058248021  -7.275e-04
      4      -75.464207676989  -1.494e-04
      5      -75.464226271892  -1.859e-05
      6      -75.464227527442  -1.256e-06
      7      -75.464227612804  -8.536e-08
      8      -75.464227619254  -6.450e-09
      9      -75.464227620176  -9.219e-10
     10      -75.464227620290  -1.144e-10
     11      -75.464227620335  -4.466e-11
     12      -75.464227620339  -4.519e-12
     13      -75.464227620340  -2.416e-13
  ----------------------------------------
  The Davidson-Liu algorithm converged in 14 iterations.

  ==> Root No. 0 <==

    20 0 0 20 2 2     -0.85704566
    22 0 0 00 2 2      0.36618815

    Total Energy:       -75.548477724062295

  ==> Root No. 1 <==

    22 0 0 20 2 0      0.68806361
    22 0 0 20 0 2     -0.68806361

    Total Energy:       -75.422541699304887

  ==> Root No. 2 <==

    22 0 0 20 0 2     -0.62598761
    22 0 0 20 2 0     -0.62598761
    22 0 0 00 2 2      0.34073804
    20 0 0 20 2 2      0.11007785

    Total Energy:       -75.421663437651475

  ==> Computing RDMs for Root No. 0 <==

    Timing for 1-RDM: 0.000 s
    Timing for 2-RDM: 0.006 s

  ==> NATURAL ORBITALS <==

        1Ag     1.993649      1B2u    1.915808      1B3u    1.915808  
        1B1u    1.625281      2Ag     0.370348      1B3g    0.087903  
        1B2g    0.087903      2B1u    0.003300  


  ==> Computing RDMs for Root No. 1 <==

    Timing for 1-RDM: 0.000 s
    Timing for 2-RDM: 0.006 s

  ==> NATURAL ORBITALS <==

        1Ag     1.997356      2Ag     1.967186      1B1u    1.958022  
        1B2u    0.996433      1B3u    0.996433      1B2g    0.040983  
        1B3g    0.040983      2B1u    0.002605  


  ==> Computing RDMs for Root No. 2 <==

    Timing for 1-RDM: 0.000 s
    Timing for 2-RDM: 0.005 s

  ==> NATURAL ORBITALS <==

        1Ag     1.982592      2Ag     1.908827      1B1u    1.701620  
        1B3u    1.147381      1B2u    1.147381      1B3g    0.054785  
        1B2g    0.054785      2B1u    0.002628  


 CAS took 0.730616 seconds.

 FormFockIntermediates took 0.05827000 s.

 FormOrbitalGradient took 0.00063900 s.

 FormDiagHessian took 0.00006400 s.

 Update function takes 0.05900400 s
    0   0.022991998863   75.464227620340   -75.464227620340    1.037163 s      
 CSO2SO takes   0.0000 s.

 Transform Integrals takes 0.25798700 s.

  Performing a CAS with FCI

  ==> State Averaging Summary <==

    Irrep.  Multi.  Nstates            Weights
    ------------------------------------------
      Ag       1        3    0.333 0.333 0.333
    ------------------------------------------
    Total number of states: 3
    ------------------------------------------

  ==> FCI Solver Summary <==

  Number of electrons: 12
  Charge: 0
  Multiplicity: 1
  Davidson subspace max dim: 8
  Davidson subspace min dim: 2
  M_s: 0

  ==> String Lists <==

  Number of alpha electrons     = 4
  Number of beta electrons      = 4
  Number of alpha strings       = 70
  Number of beta strings        = 70
  Number of alpha strings (N-3) = 8
  Number of beta strings (N-3)  = 8
  Timing for strings        =      0.000 s
  Timing for NN strings     =      0.000 s
  Timing for VO strings     =      0.006 s
  Timing for OO strings     =      0.002 s
  Timing for VVOO strings   =      0.003 s
  Timing for VOVO strings   =      0.000 s
  Timing for 1-hole strings =      0.001 s
  Timing for 2-hole strings =      0.002 s
  Timing for 3-hole strings =      0.003 s
  Total timing              =      0.011 s

  ==> FCI Solver <==

    Number of determinants                         660
    Symmetry                                         0
    Multiplicity                                     1
    Number of roots                                  1
    Target root                                      0
    Trial vectors per root                          10

  Allocating memory for the Hamiltonian algorithm. Size: 2 x 12 x 12.   Memory: 0.000002 GB
  Initial guess space is incomplete.
  Adding 12 determinant(s).

  ==> FCI Initial Guess <==

  ---------------------------------------------
    Root            Energy     <S^2>   Spin
  ---------------------------------------------
      0      -75.565952537913  0.000  singlet
      1      -75.448438538378  0.000  singlet
      2      -75.437836386000  0.000  singlet
      3      -75.355149925788  6.000  quintet
      4      -75.299544475417  6.000  quintet
      5      -75.267570644447  0.000  singlet
      6      -75.217001543959  2.000  triplet
      7      -75.194564299247  2.000  triplet
      8      -75.137760869900  2.000  triplet
      9      -75.124246601620  0.000  singlet
     10      -75.091928823427  2.000  triplet
     11      -75.073893675456  0.000  singlet
     12      -75.039449359331  6.000  quintet
     13      -75.018905031685  2.000  triplet
     14      -74.988696170177  0.000  singlet
     15      -74.962770224732  2.000  triplet
     16      -74.958699519843  0.000  singlet
     17      -74.941062960729  2.000  triplet
     18      -74.917833979747  0.000  singlet
     19      -74.879291786187  2.000  triplet
     20      -74.841261735832  0.000  singlet
     21      -74.833034762625  0.000  singlet
     22      -74.803838493816  0.000  singlet
     23      -74.749408668805  6.000  quintet
     24      -74.748926773549  2.000  triplet
     25      -74.746195631134  2.000  triplet
     26      -74.736153467202  0.000  singlet
     27      -74.681294866189  0.000  singlet
     28      -74.661502865284  6.000  quintet
     29      -74.644473540225  0.000  singlet
     30      -74.641688364117  0.000  singlet
     31      -74.627387149778  0.000  singlet
     32      -74.622555114696  2.000  triplet
     33      -74.606093374359  6.000  quintet
     34      -74.603858452379  2.000  triplet
     35      -74.602066768001  0.000  singlet
     36      -74.588215514907  2.000  triplet
     37      -74.581639062125  0.000  singlet
     38      -74.559356766325  0.000  singlet
     39      -74.547968276664  2.000  triplet
     40      -74.541436857198  2.000  triplet
     41      -74.531682245407  6.000  quintet
     42      -74.526737694439  0.000  singlet
     43      -74.517492730623  6.000  quintet
     44      -74.480735238940  2.000  triplet
     45      -74.462439319741  2.000  triplet
     46      -74.460706314897  0.000  singlet
     47      -74.446700724653  2.000  triplet
     48      -74.438224549191  0.000  singlet
     49      -74.426171746067  2.000  triplet
     50      -74.416843142912  2.000  triplet
     51      -74.412468112819  0.000  singlet
     52      -74.401676202431  0.000  singlet
     53      -74.396193927645  2.000  triplet
     54      -74.379070065385  2.000  triplet
     55      -74.359863372337  0.000  singlet
     56      -74.354847985333  2.000  triplet
     57      -74.338590748550  2.000  triplet
     58      -74.332808787344  0.000  singlet
     59      -74.323604694067  0.000  singlet
     60      -74.311641197276  0.000  singlet
     61      -74.275653290531  0.000  singlet
     62      -74.246237085071  0.000  singlet
     63      -74.241358755868  0.000  singlet
     64      -74.185831114148  0.000  singlet
     65      -74.071820958283  2.000  triplet
     66      -73.904015583792  2.000  triplet
     67      -73.900501255791  2.000  triplet
     68      -73.891912006616  2.000  triplet
     69      -73.870211987405  0.000  singlet
     70      -73.838157715604  0.000  singlet
     71      -73.055012800841  0.000  singlet
  ---------------------------------------------
  Timing for initial guess  =      0.315 s

  Projecting out root 3
  Projecting out root 4
  Projecting out root 6
  Projecting out root 7
  Projecting out root 8
  Projecting out root 10
  Projecting out root 12
  Projecting out root 13
  Projecting out root 15
  Projecting out root 17
  Projecting out root 19
  Projecting out root 23
  Projecting out root 24
  Projecting out root 25
  Projecting out root 28
  Projecting out root 32
  Projecting out root 33
  Projecting out root 34
  Projecting out root 36
  Projecting out root 39
  Projecting out root 40
  Projecting out root 41
  Projecting out root 43
  Projecting out root 44
  Projecting out root 45
  Projecting out root 47
  Projecting out root 49
  Projecting out root 50
  Projecting out root 53
  Projecting out root 54
  Projecting out root 56
  Projecting out root 57
  Projecting out root 65
  Projecting out root 66
  Projecting out root 67
  Projecting out root 68
  ==> Diagonalizing Hamiltonian <==

  ----------------------------------------
    Iter.      Avg. Energy       Delta_E
  ----------------------------------------
      1      -75.484075820764  -7.548e+01
      2      -75.505554347538  -2.148e-02
      3      -75.506688694102  -1.134e-03
      4      -75.506875862385  -1.872e-04
      5      -75.506915696381  -3.983e-05
      6      -75.506921146765  -5.450e-06
      7      -75.506921564106  -4.173e-07
      8      -75.506921600413  -3.631e-08
      9      -75.506921606292  -5.880e-09
     10      -75.506921606936  -6.436e-10
     11      -75.506921607000  -6.403e-11
     12      -75.506921607006  -6.082e-12
     13      -75.506921607007  -5.684e-13
     14      -75.506921607007  -1.421e-14
  ----------------------------------------
  The Davidson-Liu algorithm converged in 15 iterations.

  ==> Root No. 0 <==

    20 0 0 20 2 2      0.83567911
    22 0 0 00 2 2     -0.37303024
    20 0 2 20 0 2     -0.11123088
    20 2 0 20 2 0     -0.11123088

    Total Energy:       -75.589310594263225

  ==> Root No. 1 <==

    22 0 0 20 2 0     -0.68288025
    22 0 0 20 0 2      0.68288025

    Total Energy:       -75.466063098825742

  ==> Root No. 2 <==

    22 0 0 20 0 2     -0.62446090
    22 0 0 20 2 0     -0.62446090
    22 0 0 00 2 2      0.33232426
    20 0 0 20 2 2      0.10966058

    Total Energy:       -75.465391127930758

  ==> Computing RDMs for Root No. 0 <==

    Timing for 1-RDM: 0.000 s
    Timing for 2-RDM: 0.006 s

  ==> NATURAL ORBITALS <==

        1Ag     1.987171      1B3u    1.893602      1B2u    1.893602  
        1B1u    1.594639      2Ag     0.401526      1B3g    0.109589  
        1B2g    0.109589      2B1u    0.010282  


  ==> Computing RDMs for Root No. 1 <==

    Timing for 1-RDM: 0.000 s
    Timing for 2-RDM: 0.005 s

  ==> NATURAL ORBITALS <==

        1Ag     1.992414      2Ag     1.962119      1B1u    1.951094  
        1B2u    0.991120      1B3u    0.991120      1B3g    0.051872  
        1B2g    0.051872      2B1u    0.008388  


  ==> Computing RDMs for Root No. 2 <==

    Timing for 1-RDM: 0.000 s
    Timing for 2-RDM: 0.005 s

  ==> NATURAL ORBITALS <==

        1Ag     1.978913      2Ag     1.906488      1B1u    1.710355  
        1B3u    1.134567      1B2u    1.134567      1B2g    0.063002  
        1B3g    0.063002      2B1u    0.009107  


 CAS took 0.793036 seconds.

 FormFockIntermediates took 0.05418500 s.

 FormOrbitalGradient took 0.00050400 s.

 FormDiagHessian took 0.00006100 s.

 Update function takes 0.05478000 s
    1   0.008116236821   0.042693986667   -75.506921607007    1.107509 s      
 CSO2SO takes   0.0000 s.

 Transform Integrals takes 0.24471000 s.

  Performing a CAS with FCI

  ==> State Averaging Summary <==

    Irrep.  Multi.  Nstates            Weights
    ------------------------------------------
      Ag       1        3    0.333 0.333 0.333
    ------------------------------------------
    Total number of states: 3
    ------------------------------------------

  ==> FCI Solver Summary <==

  Number of electrons: 12
  Charge: 0
  Multiplicity: 1
  Davidson subspace max dim: 8
  Davidson subspace min dim: 2
  M_s: 0

  ==> String Lists <==

  Number of alpha electrons     = 4
  Number of beta electrons      = 4
  Number of alpha strings       = 70
  Number of beta strings        = 70
  Number of alpha strings (N-3) = 8
  Number of beta strings (N-3)  = 8
  Timing for strings        =      0.000 s
  Timing for NN strings     =      0.000 s
  Timing for VO strings     =      0.006 s
  Timing for OO strings     =      0.002 s
  Timing for VVOO strings   =      0.003 s
  Timing for VOVO strings   =      0.000 s
  Timing for 1-hole strings =      0.001 s
  Timing for 2-hole strings =      0.002 s
  Timing for 3-hole strings =      0.004 s
  Total timing              =      0.011 s

  ==> FCI Solver <==

    Number of determinants                         660
    Symmetry                                         0
    Multiplicity                                     1
    Number of roots                                  1
    Target root                                      0
    Trial vectors per root                          10

  Allocating memory for the Hamiltonian algorithm. Size: 2 x 12 x 12.   Memory: 0.000002 GB
  Initial guess space is incomplete.
  Adding 26 determinant(s).

  ==> FCI Initial Guess <==

  ---------------------------------------------
    Root            Energy     <S^2>   Spin
  ---------------------------------------------
      0      -75.571350022167  0.000  singlet
      1      -75.451497314520  0.000  singlet
      2      -75.441651102719  0.000  singlet
      3      -75.355558897404  6.000  quintet
      4      -75.293514656229  6.000  quintet
      5      -75.268471892968  0.000  singlet
      6      -75.217955599068  2.000  triplet
      7      -75.186151095558  2.000  triplet
      8      -75.128386515926  2.000  triplet
      9      -75.121875699018  0.000  singlet
     10      -75.094802050419  2.000  triplet
     11      -75.067061266863  0.000  singlet
     12      -75.039481258276  6.000  quintet
     13      -75.014140366924  2.000  triplet
     14      -74.976508372175  0.000  singlet
     15      -74.955122660839  2.000  triplet
     16      -74.947152745537  0.000  singlet
     17      -74.932926898018  2.000  triplet
     18      -74.899301683029  0.000  singlet
     19      -74.859744607027  2.000  triplet
     20      -74.818951147649  0.000  singlet
     21      -74.811544029701  0.000  singlet
     22      -74.782117853204  6.000  quintet
     23      -74.773034650964  0.000  singlet
     24      -74.721755599596  2.000  triplet
     25      -74.715363424646  2.000  triplet
     26      -74.705262540473  6.000  quintet
     27      -74.698878878340  0.000  singlet
     28      -74.671864728499  0.000  singlet
     29      -74.628974103929  12.000  septet
     30      -74.627324520862  2.000  triplet
     31      -74.614775973851  0.000  singlet
     32      -74.611736296476  0.000  singlet
     33      -74.604888412523  6.000  quintet
     34      -74.594200283471  0.000  singlet
     35      -74.590623591970  2.000  triplet
     36      -74.588685391129  2.000  triplet
     37      -74.554792971861  0.000  singlet
     38      -74.542491483249  6.000  quintet
     39      -74.541465034818  0.000  singlet
     40      -74.528380085476  0.000  singlet
     41      -74.528027057966  6.000  quintet
     42      -74.512537370950  2.000  triplet
     43      -74.499881619969  0.000  singlet
     44      -74.475440094652  2.000  triplet
     45      -74.437862134577  2.000  triplet
     46      -74.432884678052  6.000  quintet
     47      -74.421144904731  2.000  triplet
     48      -74.410734217482  2.000  triplet
     49      -74.409669227191  2.000  triplet
     50      -74.398562867140  6.000  quintet
     51      -74.386848064646  0.000  singlet
     52      -74.385166068873  0.000  singlet
     53      -74.364035344724  2.000  triplet
     54      -74.329960879485  0.000  singlet
     55      -74.324242713926  0.000  singlet
     56      -74.318955396195  2.000  triplet
     57      -74.315930910785  2.000  triplet
     58      -74.302722666268  2.000  triplet
     59      -74.295648886423  0.000  singlet
     60      -74.293954092795  0.000  singlet
     61      -74.275052001453  0.000  singlet
     62      -74.217470199998  6.000  quintet
     63      -74.216149249963  0.000  singlet
     64      -74.199374490174  2.000  triplet
     65      -74.181867757947  2.000  triplet
     66      -74.176286290460  0.000  singlet
     67      -74.157630672652  2.000  triplet
     68      -74.151571899490  6.000  quintet
     69      -74.135056986164  0.000  singlet
     70      -74.132536820358  6.000  quintet
     71      -74.128018334508  0.000  singlet
     72      -74.023402841505  2.000  triplet
     73      -74.011197791791  2.000  triplet
     74      -73.983692809448  2.000  triplet
     75      -73.937703814701  0.000  singlet
     76      -73.936959736265  2.000  triplet
     77      -73.910300316142  0.000  singlet
     78      -73.891184130298  0.000  singlet
     79      -73.867297662174  2.000  triplet
     80      -73.762517476773  0.000  singlet
     81      -73.732260039712  2.000  triplet
     82      -73.729827729551  2.000  triplet
     83      -73.584793474357  2.000  triplet
     84      -73.535898844658  0.000  singlet
     85      -72.887971199809  0.000  singlet
  ---------------------------------------------
  Timing for initial guess  =      0.526 s

  Projecting out root 3
  Projecting out root 4
  Projecting out root 6
  Projecting out root 7
  Projecting out root 8
  Projecting out root 10
  Projecting out root 12
  Projecting out root 13
  Projecting out root 15
  Projecting out root 17
  Projecting out root 19
  Projecting out root 22
  Projecting out root 24
  Projecting out root 25
  Projecting out root 26
  Projecting out root 29
  Projecting out root 30
  Projecting out root 33
  Projecting out root 35
  Projecting out root 36
  Projecting out root 38
  Projecting out root 41
  Projecting out root 42
  Projecting out root 44
  Projecting out root 45
  Projecting out root 46
  Projecting out root 47
  Projecting out root 48
  Projecting out root 49
  Projecting out root 50
  Projecting out root 53
  Projecting out root 56
  Projecting out root 57
  Projecting out root 58
  Projecting out root 62
  Projecting out root 64
  Projecting out root 65
  Projecting out root 67
  Projecting out root 68
  Projecting out root 70
  Projecting out root 72
  Projecting out root 73
  Projecting out root 74
  Projecting out root 76
  Projecting out root 79
  Projecting out root 81
  Projecting out root 82
  Projecting out root 83
  ==> Diagonalizing Hamiltonian <==

  ----------------------------------------
    Iter.      Avg. Energy       Delta_E
  ----------------------------------------
      1      -75.488166146468  -7.549e+01
      2      -75.516069143762  -2.790e-02
      3      -75.517449165455  -1.380e-03
      4      -75.517591910012  -1.427e-04
      5      -75.517617557367  -2.565e-05
      6      -75.517621047736  -3.490e-06
      7      -75.517621496656  -4.489e-07
      8      -75.517621531040  -3.438e-08
      9      -75.517621535685  -4.644e-09
     10      -75.517621536404  -7.198e-10
     11      -75.517621536495  -9.015e-11
     12      -75.517621536503  -8.384e-12
     13      -75.517621536504  -5.684e-13
     14      -75.517621536504  -7.105e-14
  ----------------------------------------
  The Davidson-Liu algorithm converged in 15 iterations.

  ==> Root No. 0 <==

    20 0 0 20 2 2      0.83224093
    22 0 0 00 2 2     -0.38107587
    20 0 2 20 0 2     -0.11140619
    20 2 0 20 2 0     -0.11140619

    Total Energy:       -75.600144502382207

  ==> Root No. 1 <==

    22 0 0 20 0 2      0.68294487
    22 0 0 20 2 0     -0.68294487

    Total Energy:       -75.476373665321717

  ==> Root No. 2 <==

    22 0 0 20 2 0      0.62552771
    22 0 0 20 0 2      0.62552771
    22 0 0 00 2 2     -0.33036176
    20 0 0 20 2 2     -0.11194025

    Total Energy:       -75.476346441807010

  ==> Computing RDMs for Root No. 0 <==

    Timing for 1-RDM: 0.000 s
    Timing for 2-RDM: 0.012 s

  ==> NATURAL ORBITALS <==

        1Ag     1.985621      1B3u    1.894080      1B2u    1.894080  
        1B1u    1.584256      2Ag     0.412187      1B3g    0.109045  
        1B2g    0.109045      2B1u    0.011684  


  ==> Computing RDMs for Root No. 1 <==

    Timing for 1-RDM: 0.000 s
    Timing for 2-RDM: 0.006 s

  ==> NATURAL ORBITALS <==

        1Ag     1.989032      2Ag     1.964058      1B1u    1.953848  
        1B2u    0.990085      1B3u    0.990085      1B3g    0.050678  
        1B2g    0.050678      2B1u    0.011535  


  ==> Computing RDMs for Root No. 2 <==

    Timing for 1-RDM: 0.000 s
    Timing for 2-RDM: 0.005 s

  ==> NATURAL ORBITALS <==

        1Ag     1.976797      2Ag     1.908880      1B1u    1.715937  
        1B3u    1.131813      1B2u    1.131813      1B2g    0.061214  
        1B3g    0.061214      2B1u    0.012332  


 CAS took 1.026828 seconds.

 FormFockIntermediates took 0.05151400 s.

 FormOrbitalGradient took 0.00048600 s.

 FormDiagHessian took 0.00006000 s.

 Update function takes 0.05209200 s
    2   0.002800304777   0.010699929497   -75.517621536504    1.325376 s      
 CSO2SO takes   0.0000 s.

 Transform Integrals takes 0.23747500 s.

  Performing a CAS with FCI

  ==> State Averaging Summary <==

    Irrep.  Multi.  Nstates            Weights
    ------------------------------------------
      Ag       1        3    0.333 0.333 0.333
    ------------------------------------------
    Total number of states: 3
    ------------------------------------------

  ==> FCI Solver Summary <==

  Number of electrons: 12
  Charge: 0
  Multiplicity: 1
  Davidson subspace max dim: 8
  Davidson subspace min dim: 2
  M_s: 0

  ==> String Lists <==

  Number of alpha electrons     = 4
  Number of beta electrons      = 4
  Number of alpha strings       = 70
  Number of beta strings        = 70
  Number of alpha strings (N-3) = 8
  Number of beta strings (N-3)  = 8
  Timing for strings        =      0.000 s
  Timing for NN strings     =      0.000 s
  Timing for VO strings     =      0.006 s
  Timing for OO strings     =      0.002 s
  Timing for VVOO strings   =      0.003 s
  Timing for VOVO strings   =      0.000 s
  Timing for 1-hole strings =      0.001 s
  Timing for 2-hole strings =      0.001 s
  Timing for 3-hole strings =      0.003 s
  Total timing              =      0.011 s

  ==> FCI Solver <==

    Number of determinants                         660
    Symmetry                                         0
    Multiplicity                                     1
    Number of roots                                  1
    Target root                                      0
    Trial vectors per root                          10

  Allocating memory for the Hamiltonian algorithm. Size: 2 x 12 x 12.   Memory: 0.000002 GB
  Initial guess space is incomplete.
  Adding 26 determinant(s).

  ==> FCI Initial Guess <==

  ---------------------------------------------
    Root            Energy     <S^2>   Spin
  ---------------------------------------------
      0      -75.572207524688  0.000  singlet
      1      -75.451231962064  0.000  singlet
      2      -75.441669303224  0.000  singlet
      3      -75.350133404938  6.000  quintet
      4      -75.287816326063  6.000  quintet
      5      -75.267394955252  0.000  singlet
      6      -75.213532151421  2.000  triplet
      7      -75.179257979566  2.000  triplet
      8      -75.121777873717  2.000  triplet
      9      -75.116793386093  0.000  singlet
     10      -75.090487670722  2.000  triplet
     11      -75.061081678852  0.000  singlet
     12      -75.028608645257  6.000  quintet
     13      -75.006889739130  2.000  triplet
     14      -74.969080269535  0.000  singlet
     15      -74.944136503696  2.000  triplet
     16      -74.937009695290  0.000  singlet
     17      -74.929089683320  2.000  triplet
     18      -74.886635196821  0.000  singlet
     19      -74.847933692527  2.000  triplet
     20      -74.814524993604  0.000  singlet
     21      -74.798310195832  0.000  singlet
     22      -74.776849049803  6.000  quintet
     23      -74.760131174499  0.000  singlet
     24      -74.705664333356  2.000  triplet
     25      -74.701516832350  6.000  quintet
     26      -74.700140132781  2.000  triplet
     27      -74.683774943796  0.000  singlet
     28      -74.659679337723  0.000  singlet
     29      -74.623563003945  12.000  septet
     30      -74.616712851474  2.000  triplet
     31      -74.601024693141  0.000  singlet
     32      -74.599596866996  0.000  singlet
     33      -74.593768180450  6.000  quintet
     34      -74.581744355001  2.000  triplet
     35      -74.579897100457  2.000  triplet
     36      -74.579553271975  0.000  singlet
     37      -74.539829478868  0.000  singlet
     38      -74.525930478083  0.000  singlet
     39      -74.524220019653  6.000  quintet
     40      -74.517830028100  0.000  singlet
     41      -74.512930995648  6.000  quintet
     42      -74.507596732799  2.000  triplet
     43      -74.485067507425  0.000  singlet
     44      -74.468318129171  2.000  triplet
     45      -74.424323279797  2.000  triplet
     46      -74.419253303290  6.000  quintet
     47      -74.412307875093  2.000  triplet
     48      -74.395149669179  2.000  triplet
     49      -74.393761416222  2.000  triplet
     50      -74.391685168267  6.000  quintet
     51      -74.374079222913  0.000  singlet
     52      -74.370620871005  0.000  singlet
     53      -74.350320675789  2.000  triplet
     54      -74.313204877379  0.000  singlet
     55      -74.311418780876  0.000  singlet
     56      -74.306625387918  2.000  triplet
     57      -74.301386393376  2.000  triplet
     58      -74.286986052312  0.000  singlet
     59      -74.286687371544  2.000  triplet
     60      -74.274188054772  0.000  singlet
     61      -74.260039610276  0.000  singlet
     62      -74.205215759370  6.000  quintet
     63      -74.194604554609  0.000  singlet
     64      -74.186632118786  2.000  triplet
     65      -74.170648413796  2.000  triplet
     66      -74.161168545815  0.000  singlet
     67      -74.146670598042  2.000  triplet
     68      -74.139166605493  6.000  quintet
     69      -74.123187263859  6.000  quintet
     70      -74.122208399626  0.000  singlet
     71      -74.113643860205  0.000  singlet
     72      -74.008608712342  2.000  triplet
     73      -73.998429083417  2.000  triplet
     74      -73.970559481345  2.000  triplet
     75      -73.922412981394  2.000  triplet
     76      -73.918811742556  0.000  singlet
     77      -73.894191436087  0.000  singlet
     78      -73.877083899655  0.000  singlet
     79      -73.841984522997  2.000  triplet
     80      -73.740133771834  0.000  singlet
     81      -73.708866328758  2.000  triplet
     82      -73.707355301365  2.000  triplet
     83      -73.562385816172  2.000  triplet
     84      -73.517250859133  0.000  singlet
     85      -72.850189066675  0.000  singlet
  ---------------------------------------------
  Timing for initial guess  =      0.529 s

  Projecting out root 3
  Projecting out root 4
  Projecting out root 6
  Projecting out root 7
  Projecting out root 8
  Projecting out root 10
  Projecting out root 12
  Projecting out root 13
  Projecting out root 15
  Projecting out root 17
  Projecting out root 19
  Projecting out root 22
  Projecting out root 24
  Projecting out root 25
  Projecting out root 26
  Projecting out root 29
  Projecting out root 30
  Projecting out root 33
  Projecting out root 34
  Projecting out root 35
  Projecting out root 39
  Projecting out root 41
  Projecting out root 42
  Projecting out root 44
  Projecting out root 45
  Projecting out root 46
  Projecting out root 47
  Projecting out root 48
  Projecting out root 49
  Projecting out root 50
  Projecting out root 53
  Projecting out root 56
  Projecting out root 57
  Projecting out root 59
  Projecting out root 62
  Projecting out root 64
  Projecting out root 65
  Projecting out root 67
  Projecting out root 68
  Projecting out root 69
  Projecting out root 72
  Projecting out root 73
  Projecting out root 74
  Projecting out root 75
  Projecting out root 79
  Projecting out root 81
  Projecting out root 82
  Projecting out root 83
  ==> Diagonalizing Hamiltonian <==

  ----------------------------------------
    Iter.      Avg. Energy       Delta_E
  ----------------------------------------
      1      -75.488369596659  -7.549e+01
      2      -75.517698169016  -2.933e-02
      3      -75.519122198365  -1.424e-03
      4      -75.519269760697  -1.476e-04
      5      -75.519294643556  -2.488e-05
      6      -75.519298103337  -3.460e-06
      7      -75.519298561250  -4.579e-07
      8      -75.519298592877  -3.163e-08
      9      -75.519298597134  -4.257e-09
     10      -75.519298597696  -5.622e-10
     11      -75.519298597743  -4.673e-11
     12      -75.519298597748  -5.784e-12
     13      -75.519298597749  -4.832e-13
  ----------------------------------------
  The Davidson-Liu algorithm converged in 14 iterations.

  ==> Root No. 0 <==

    20 0 0 20 2 2      0.83197072
    22 0 0 00 2 2     -0.38459782
    20 0 2 20 0 2     -0.11070160
    20 2 0 20 2 0     -0.11070160

    Total Energy:       -75.601145473795285

  ==> Root No. 1 <==

    22 0 0 20 0 2     -0.62637407
    22 0 0 20 2 0     -0.62637407
    22 0 0 00 2 2      0.32932414
    20 0 0 20 2 2      0.11267778

    Total Energy:       -75.478430161019546

  ==> Root No. 2 <==

    22 0 0 20 2 0     -0.68332450
    22 0 0 20 0 2      0.68332450

    Total Energy:       -75.478320158432069

  ==> Computing RDMs for Root No. 0 <==

    Timing for 1-RDM: 0.000 s
    Timing for 2-RDM: 0.005 s

  ==> NATURAL ORBITALS <==

        1Ag     1.985787      1B2u    1.895754      1B3u    1.895754  
        1B1u    1.580682      2Ag     0.415750      1B2g    0.107437  
        1B3g    0.107437      2B1u    0.011400  


  ==> Computing RDMs for Root No. 1 <==

    Timing for 1-RDM: 0.000 s
    Timing for 2-RDM: 0.005 s

  ==> NATURAL ORBITALS <==

        1Ag     1.976321      2Ag     1.910276      1B1u    1.718882  
        1B2u    1.130936      1B3u    1.130936      1B3g    0.059825  
        1B2g    0.059825      2B1u    0.012998  


  ==> Computing RDMs for Root No. 2 <==

    Timing for 1-RDM: 0.000 s
    Timing for 2-RDM: 0.005 s

  ==> NATURAL ORBITALS <==

        1Ag     1.988117      2Ag     1.965160      1B1u    1.955284  
        1B3u    0.990068      1B2u    0.990068      1B2g    0.049488  
        1B3g    0.049488      2B1u    0.012327  


 CAS took 0.933462 seconds.

 FormFockIntermediates took 0.05117300 s.

 FormOrbitalGradient took 0.00048000 s.

 FormDiagHessian took 0.00006100 s.

 Update function takes 0.05174100 s
    3   0.001198850217   0.001677061245   -75.519298597749    1.224431 s      
 CSO2SO takes   0.0000 s.

 Transform Integrals takes 0.23369600 s.

  Performing a CAS with FCI

  ==> State Averaging Summary <==

    Irrep.  Multi.  Nstates            Weights
    ------------------------------------------
      Ag       1        3    0.333 0.333 0.333
    ------------------------------------------
    Total number of states: 3
    ------------------------------------------

  ==> FCI Solver Summary <==

  Number of electrons: 12
  Charge: 0
  Multiplicity: 1
  Davidson subspace max dim: 8
  Davidson subspace min dim: 2
  M_s: 0

  ==> String Lists <==

  Number of alpha electrons     = 4
  Number of beta electrons      = 4
  Number of alpha strings       = 70
  Number of beta strings        = 70
  Number of alpha strings (N-3) = 8
  Number of beta strings (N-3)  = 8
  Timing for strings        =      0.000 s
  Timing for NN strings     =      0.000 s
  Timing for VO strings     =      0.006 s
  Timing for OO strings     =      0.002 s
  Timing for VVOO strings   =      0.003 s
  Timing for VOVO strings   =      0.000 s
  Timing for 1-hole strings =      0.001 s
  Timing for 2-hole strings =      0.001 s
  Timing for 3-hole strings =      0.003 s
  Total timing              =      0.011 s

  ==> FCI Solver <==

    Number of determinants                         660
    Symmetry                                         0
    Multiplicity                                     1
    Number of roots                                  1
    Target root                                      0
    Trial vectors per root                          10

  Allocating memory for the Hamiltonian algorithm. Size: 2 x 12 x 12.   Memory: 0.000002 GB
  Initial guess space is incomplete.
  Adding 26 determinant(s).

  ==> FCI Initial Guess <==

  ---------------------------------------------
    Root            Energy     <S^2>   Spin
  ---------------------------------------------
      0      -75.572293444446  0.000  singlet
      1      -75.451120365569  0.000  singlet
      2      -75.441609562930  0.000  singlet
      3      -75.348150146588  6.000  quintet
      4      -75.285790001876  6.000  quintet
      5      -75.266889528744  0.000  singlet
      6      -75.211911730235  2.000  triplet
      7      -75.176871131299  2.000  triplet
      8      -75.119497513645  2.000  triplet
      9      -75.114937094459  0.000  singlet
     10      -75.088945794495  2.000  triplet
     11      -75.058968737277  0.000  singlet
     12      -75.024736225795  6.000  quintet
     13      -75.004346493496  2.000  triplet
     14      -74.966514121662  0.000  singlet
     15      -74.940250194187  2.000  triplet
     16      -74.933431917902  0.000  singlet
     17      -74.927847518232  2.000  triplet
     18      -74.882221790706  0.000  singlet
     19      -74.844176067771  2.000  triplet
     20      -74.813148147993  0.000  singlet
     21      -74.793725195650  0.000  singlet
     22      -74.774996492884  6.000  quintet
     23      -74.755637784157  0.000  singlet
     24      -74.700344128828  2.000  triplet
     25      -74.700258421568  6.000  quintet
     26      -74.695105605917  2.000  triplet
     27      -74.678747273541  0.000  singlet
     28      -74.655664646213  0.000  singlet
     29      -74.621450634513  12.000  septet
     30      -74.613023285974  2.000  triplet
     31      -74.596412455878  0.000  singlet
     32      -74.595546340609  0.000  singlet
     33      -74.589887055386  6.000  quintet
     34      -74.578815922995  2.000  triplet
     35      -74.576993833848  2.000  triplet
     36      -74.574665385001  0.000  singlet
     37      -74.534842100439  0.000  singlet
     38      -74.520773972093  0.000  singlet
     39      -74.518047482139  6.000  quintet
     40      -74.514343574217  0.000  singlet
     41      -74.508000340310  6.000  quintet
     42      -74.505985610190  2.000  triplet
     43      -74.479935355125  0.000  singlet
     44      -74.465988927800  2.000  triplet
     45      -74.419792197715  2.000  triplet
     46      -74.414320501473  6.000  quintet
     47      -74.409721488214  2.000  triplet
     48      -74.390326806760  2.000  triplet
     49      -74.388993213137  6.000  quintet
     50      -74.387849262710  2.000  triplet
     51      -74.370495458144  0.000  singlet
     52      -74.365074213106  0.000  singlet
     53      -74.345654269304  2.000  triplet
     54      -74.307617952406  0.000  singlet
     55      -74.307552979506  0.000  singlet
     56      -74.302289993657  2.000  triplet
     57      -74.297323923006  2.000  triplet
     58      -74.283685536611  0.000  singlet
     59      -74.280185541417  2.000  triplet
     60      -74.267584458252  0.000  singlet
     61      -74.255033174745  0.000  singlet
     62      -74.201113860904  6.000  quintet
     63      -74.187895185794  0.000  singlet
     64      -74.182662244870  2.000  triplet
     65      -74.166905100837  2.000  triplet
     66      -74.156377419940  0.000  singlet
     67      -74.142782720574  2.000  triplet
     68      -74.135128661469  6.000  quintet
     69      -74.119997340258  6.000  quintet
     70      -74.117648292496  0.000  singlet
     71      -74.108675993455  0.000  singlet
     72      -74.004012039788  2.000  triplet
     73      -73.994123180105  2.000  triplet
     74      -73.966067646604  2.000  triplet
     75      -73.917639455212  2.000  triplet
     76      -73.912951216607  0.000  singlet
     77      -73.889023902464  0.000  singlet
     78      -73.872670233092  0.000  singlet
     79      -73.833912993051  2.000  triplet
     80      -73.732676739812  0.000  singlet
     81      -73.701279880099  2.000  triplet
     82      -73.699968319947  2.000  triplet
     83      -73.555591327217  2.000  triplet
     84      -73.511446015286  0.000  singlet
     85      -72.838525500440  0.000  singlet
  ---------------------------------------------
  Timing for initial guess  =      0.536 s

  Projecting out root 3
  Projecting out root 4
  Projecting out root 6
  Projecting out root 7
  Projecting out root 8
  Projecting out root 10
  Projecting out root 12
  Projecting out root 13
  Projecting out root 15
  Projecting out root 17
  Projecting out root 19
  Projecting out root 22
  Projecting out root 24
  Projecting out root 25
  Projecting out root 26
  Projecting out root 29
  Projecting out root 30
  Projecting out root 33
  Projecting out root 34
  Projecting out root 35
  Projecting out root 39
  Projecting out root 41
  Projecting out root 42
  Projecting out root 44
  Projecting out root 45
  Projecting out root 46
  Projecting out root 47
  Projecting out root 48
  Projecting out root 49
  Projecting out root 50
  Projecting out root 53
  Projecting out root 56
  Projecting out root 57
  Projecting out root 59
  Projecting out root 62
  Projecting out root 64
  Projecting out root 65
  Projecting out root 67
  Projecting out root 68
  Projecting out root 69
  Projecting out root 72
  Projecting out root 73
  Projecting out root 74
  Projecting out root 75
  Projecting out root 79
  Projecting out root 81
  Projecting out root 82
  Projecting out root 83
  ==> Diagonalizing Hamiltonian <==

  ----------------------------------------
    Iter.      Avg. Energy       Delta_E
  ----------------------------------------
      1      -75.488341124315  -7.549e+01
      2      -75.517971580463  -2.963e-02
      3      -75.519396127513  -1.425e-03
      4      -75.519543363456  -1.472e-04
      5      -75.519567780194  -2.442e-05
      6      -75.519571186536  -3.406e-06
      7      -75.519571639556  -4.530e-07
      8      -75.519571669839  -3.028e-08
      9      -75.519571673897  -4.058e-09
     10      -75.519571674435  -5.378e-10
     11      -75.519571674479  -4.357e-11
     12      -75.519571674484  -5.429e-12
     13      -75.519571674485  -3.979e-13
  ----------------------------------------
  The Davidson-Liu algorithm converged in 14 iterations.

  ==> Root No. 0 <==

    20 0 0 20 2 2      0.83218571
    22 0 0 00 2 2     -0.38542082
    20 2 0 20 2 0     -0.11038411
    20 0 2 20 0 2     -0.11038411

    Total Energy:       -75.600940028209394

  ==> Root No. 1 <==

    22 0 0 20 2 0      0.62684418
    22 0 0 20 0 2      0.62684418
    22 0 0 00 2 2     -0.32871317
    20 0 0 20 2 2     -0.11226179

    Total Energy:       -75.478931818291187

  ==> Root No. 2 <==

    22 0 0 20 0 2     -0.68349086
    22 0 0 20 2 0      0.68349086

    Total Energy:       -75.478843176953617

  ==> Computing RDMs for Root No. 0 <==

[...]

 FormOrbitalGradient took 0.00048500 s.

 FormDiagHessian took 0.00006300 s.

 Update function takes 0.05202600 s
   12   0.000003138120   0.000000000080   -75.519631385916    1.325876 s  DIIS
 CSO2SO takes   0.0000 s.

 Transform Integrals takes 0.24523500 s.

  Performing a CAS with FCI

  ==> State Averaging Summary <==

    Irrep.  Multi.  Nstates            Weights
    ------------------------------------------
      Ag       1        3    0.333 0.333 0.333
    ------------------------------------------
    Total number of states: 3
    ------------------------------------------

  ==> FCI Solver Summary <==

  Number of electrons: 12
  Charge: 0
  Multiplicity: 1
  Davidson subspace max dim: 8
  Davidson subspace min dim: 2
  M_s: 0

  ==> String Lists <==

  Number of alpha electrons     = 4
  Number of beta electrons      = 4
  Number of alpha strings       = 70
  Number of beta strings        = 70
  Number of alpha strings (N-3) = 8
  Number of beta strings (N-3)  = 8
  Timing for strings        =      0.000 s
  Timing for NN strings     =      0.000 s
  Timing for VO strings     =      0.006 s
  Timing for OO strings     =      0.002 s
  Timing for VVOO strings   =      0.003 s
  Timing for VOVO strings   =      0.000 s
  Timing for 1-hole strings =      0.001 s
  Timing for 2-hole strings =      0.002 s
  Timing for 3-hole strings =      0.004 s
  Total timing              =      0.011 s

  ==> FCI Solver <==

    Number of determinants                         660
    Symmetry                                         0
    Multiplicity                                     1
    Number of roots                                  1
    Target root                                      0
    Trial vectors per root                          10

  Allocating memory for the Hamiltonian algorithm. Size: 2 x 12 x 12.   Memory: 0.000002 GB
  Initial guess space is incomplete.
  Adding 26 determinant(s).

  ==> FCI Initial Guess <==

  ---------------------------------------------
    Root            Energy     <S^2>   Spin
  ---------------------------------------------
      0      -75.572282451993  0.000  singlet
      1      -75.451066834883  0.000  singlet
      2      -75.441606171679  0.000  singlet
      3      -75.347353066367  6.000  quintet
      4      -75.284976360399  6.000  quintet
      5      -75.266624601089  0.000  singlet
      6      -75.211127951381  2.000  triplet
      7      -75.175904399550  2.000  triplet
      8      -75.118544975982  2.000  triplet
      9      -75.114028375055  0.000  singlet
     10      -75.088182854624  2.000  triplet
     11      -75.057996911801  0.000  singlet
     12      -75.022928022460  6.000  quintet
     13      -75.003207751767  2.000  triplet
     14      -74.965422968331  0.000  singlet
     15      -74.938434159623  2.000  triplet
     16      -74.931701796989  0.000  singlet
     17      -74.927243793972  2.000  triplet
     18      -74.880218192989  0.000  singlet
     19      -74.842806292192  2.000  triplet
     20      -74.812396350862  0.000  singlet
     21      -74.791657929996  0.000  singlet
     22      -74.774055557493  6.000  quintet
     23      -74.753615343175  0.000  singlet
     24      -74.699680606865  6.000  quintet
     25      -74.698108271963  2.000  triplet
     26      -74.692952591203  2.000  triplet
     27      -74.676611543044  0.000  singlet
     28      -74.654072597113  0.000  singlet
     29      -74.620217023763  12.000  septet
     30      -74.611242830659  2.000  triplet
     31      -74.594520896948  0.000  singlet
     32      -74.593738746683  0.000  singlet
     33      -74.588093900549  6.000  quintet
     34      -74.577540479739  2.000  triplet
     35      -74.575720642431  2.000  triplet
     36      -74.572838180343  0.000  singlet
     37      -74.532806627807  0.000  singlet
     38      -74.518800905991  0.000  singlet
     39      -74.515370988491  6.000  quintet
     40      -74.512797802712  0.000  singlet
     41      -74.505802152449  6.000  quintet
     42      -74.505282094378  2.000  triplet
     43      -74.477594314774  0.000  singlet
     44      -74.464943814948  2.000  triplet
     45      -74.417935402361  2.000  triplet
     46      -74.412103692800  6.000  quintet
     47      -74.408659097417  2.000  triplet
     48      -74.388147374548  2.000  triplet
     49      -74.387362637962  6.000  quintet
     50      -74.385377152342  2.000  triplet
     51      -74.368966908412  0.000  singlet
     52      -74.362617783849  0.000  singlet
     53      -74.343664665049  2.000  triplet
     54      -74.306013264442  0.000  singlet
     55      -74.305093874547  0.000  singlet
     56      -74.300234692965  2.000  triplet
     57      -74.295400708800  2.000  triplet
     58      -74.282117234881  0.000  singlet
     59      -74.277245750156  2.000  triplet
     60      -74.264670861298  0.000  singlet
     61      -74.252980254861  0.000  singlet
     62      -74.199240617014  6.000  quintet
     63      -74.185179370950  0.000  singlet
     64      -74.181124220049  2.000  triplet
     65      -74.165166001501  2.000  triplet
     66      -74.154431311859  0.000  singlet
     67      -74.140858677965  2.000  triplet
     68      -74.133330820109  6.000  quintet
     69      -74.118475912312  6.000  quintet
     70      -74.115479645692  0.000  singlet
     71      -74.106411076712  0.000  singlet
     72      -74.001989526353  2.000  triplet
     73      -73.991935656121  2.000  triplet
     74      -73.963830662475  2.000  triplet
     75      -73.915468618180  2.000  triplet
     76      -73.910780488733  0.000  singlet
     77      -73.886718448676  0.000  singlet
     78      -73.870838792773  0.000  singlet
     79      -73.830602054481  2.000  triplet
     80      -73.729287682890  0.000  singlet
     81      -73.698003878725  2.000  triplet
     82      -73.696692799169  2.000  triplet
     83      -73.553015997034  2.000  triplet
     84      -73.508845416894  0.000  singlet
     85      -72.833642381119  0.000  singlet
  ---------------------------------------------
  Timing for initial guess  =      0.529 s

  Projecting out root 3
  Projecting out root 4
  Projecting out root 6
  Projecting out root 7
  Projecting out root 8
  Projecting out root 10
  Projecting out root 12
  Projecting out root 13
  Projecting out root 15
  Projecting out root 17
  Projecting out root 19
  Projecting out root 22
  Projecting out root 24
  Projecting out root 25
  Projecting out root 26
  Projecting out root 29
  Projecting out root 30
  Projecting out root 33
  Projecting out root 34
  Projecting out root 35
  Projecting out root 39
  Projecting out root 41
  Projecting out root 42
  Projecting out root 44
  Projecting out root 45
  Projecting out root 46
  Projecting out root 47
  Projecting out root 48
  Projecting out root 49
  Projecting out root 50
  Projecting out root 53
  Projecting out root 56
  Projecting out root 57
  Projecting out root 59
  Projecting out root 62
  Projecting out root 64
  Projecting out root 65
  Projecting out root 67
  Projecting out root 68
  Projecting out root 69
  Projecting out root 72
  Projecting out root 73
  Projecting out root 74
  Projecting out root 75
  Projecting out root 79
  Projecting out root 81
  Projecting out root 82
  Projecting out root 83
  ==> Diagonalizing Hamiltonian <==

  ----------------------------------------
    Iter.      Avg. Energy       Delta_E
  ----------------------------------------
      1      -75.488318486185  -7.549e+01
      2      -75.518044082460  -2.973e-02
      3      -75.519457741546  -1.414e-03
      4      -75.519603467579  -1.457e-04
      5      -75.519627601602  -2.413e-05
      6      -75.519630921941  -3.320e-06
      7      -75.519631353650  -4.317e-07
      8      -75.519631381556  -2.791e-08
      9      -75.519631385334  -3.778e-09
     10      -75.519631385853  -5.192e-10
     11      -75.519631385894  -4.100e-11
     12      -75.519631385900  -5.357e-12
     13      -75.519631385900  -4.121e-13
  ----------------------------------------
  The Davidson-Liu algorithm converged in 14 iterations.

  ==> Root No. 0 <==

    20 0 0 20 2 2      0.83232860
    22 0 0 00 2 2     -0.38570381
    20 0 2 20 0 2     -0.11018026
    20 2 0 20 2 0     -0.11018026

    Total Energy:       -75.600540492428252

  ==> Root No. 1 <==

    22 0 0 20 2 0      0.62704598
    22 0 0 20 0 2      0.62704598
    22 0 0 00 2 2     -0.32857380
    20 0 0 20 2 2     -0.11174366

    Total Energy:       -75.479219083048193

  ==> Root No. 2 <==

    22 0 0 20 0 2     -0.68356274
    22 0 0 20 2 0      0.68356274

    Total Energy:       -75.479134582223395

  ==> Computing RDMs for Root No. 0 <==

    Timing for 1-RDM: 0.000 s
    Timing for 2-RDM: 0.005 s

  ==> NATURAL ORBITALS <==

        1Ag     1.986216      1B3u    1.896699      1B2u    1.896699  
        1B1u    1.579745      2Ag     0.416670      1B3g    0.106556  
        1B2g    0.106556      2B1u    0.010857  


  ==> Computing RDMs for Root No. 1 <==

    Timing for 1-RDM: 0.000 s
    Timing for 2-RDM: 0.005 s

  ==> NATURAL ORBITALS <==

        1Ag     1.976324      2Ag     1.911447      1B1u    1.720744  
        1B2u    1.130180      1B3u    1.130180      1B3g    0.059037  
        1B2g    0.059037      2B1u    0.013052  


  ==> Computing RDMs for Root No. 2 <==

    Timing for 1-RDM: 0.000 s
    Timing for 2-RDM: 0.005 s

  ==> NATURAL ORBITALS <==

        1Ag     1.987837      2Ag     1.965654      1B1u    1.955922  
        1B3u    0.990237      1B2u    0.990237      1B2g    0.048811  
        1B3g    0.048811      2B1u    0.012491  


 CAS took 0.945681 seconds.

 FormFockIntermediates took 0.05235200 s.

 FormOrbitalGradient took 0.00048300 s.

 FormDiagHessian took 0.00006000 s.

 Update function takes 0.05292300 s
   13   0.000003133129   0.000000000016   -75.519631385900    1.245733 s  DIIS
 CSO2SO takes   0.0000 s.

 Transform Integrals takes 0.25100500 s.

  Performing a CAS with FCI

  ==> State Averaging Summary <==

    Irrep.  Multi.  Nstates            Weights
    ------------------------------------------
      Ag       1        3    0.333 0.333 0.333
    ------------------------------------------
    Total number of states: 3
    ------------------------------------------

  ==> FCI Solver Summary <==

  Number of electrons: 12
  Charge: 0
  Multiplicity: 1
  Davidson subspace max dim: 8
  Davidson subspace min dim: 2
  M_s: 0

  ==> String Lists <==

  Number of alpha electrons     = 4
  Number of beta electrons      = 4
  Number of alpha strings       = 70
  Number of beta strings        = 70
  Number of alpha strings (N-3) = 8
  Number of beta strings (N-3)  = 8
  Timing for strings        =      0.000 s
  Timing for NN strings     =      0.000 s
  Timing for VO strings     =      0.006 s
  Timing for OO strings     =      0.002 s
  Timing for VVOO strings   =      0.003 s
  Timing for VOVO strings   =      0.000 s
  Timing for 1-hole strings =      0.001 s
  Timing for 2-hole strings =      0.001 s
  Timing for 3-hole strings =      0.003 s
  Total timing              =      0.011 s

  ==> FCI Solver <==

    Number of determinants                         660
    Symmetry                                         0
    Multiplicity                                     1
    Number of roots                                  1
    Target root                                      0
    Trial vectors per root                          10

  Allocating memory for the Hamiltonian algorithm. Size: 2 x 12 x 12.   Memory: 0.000002 GB
  Initial guess space is incomplete.
  Adding 26 determinant(s).

  ==> FCI Initial Guess <==

  ---------------------------------------------
    Root            Energy     <S^2>   Spin
  ---------------------------------------------
      0      -75.572282421666  0.000  singlet
      1      -75.451066841116  0.000  singlet
      2      -75.441606166992  0.000  singlet
      3      -75.347352960330  6.000  quintet
      4      -75.284976262250  6.000  quintet
      5      -75.266624565992  0.000  singlet
      6      -75.211127854978  2.000  triplet
      7      -75.175904306192  2.000  triplet
      8      -75.118544855546  2.000  triplet
      9      -75.114028260238  0.000  singlet
     10      -75.088182708376  2.000  triplet
     11      -75.057996803168  0.000  singlet
     12      -75.022927752183  6.000  quintet
     13      -75.003207544155  2.000  triplet
     14      -74.965422785214  0.000  singlet
     15      -74.938433894717  2.000  triplet
     16      -74.931701551356  0.000  singlet
     17      -74.927243717920  2.000  triplet
     18      -74.880217908380  0.000  singlet
     19      -74.842806181837  2.000  triplet
     20      -74.812396313514  0.000  singlet
     21      -74.791657640426  0.000  singlet
     22      -74.774055448352  6.000  quintet
     23      -74.753615066457  0.000  singlet
     24      -74.699680590663  6.000  quintet
     25      -74.698107986879  2.000  triplet
     26      -74.692952315574  2.000  triplet
     27      -74.676611278085  0.000  singlet
     28      -74.654072380374  0.000  singlet
     29      -74.620216811957  12.000  septet
     30      -74.611242557695  2.000  triplet
     31      -74.594520591120  0.000  singlet
     32      -74.593738489852  0.000  singlet
     33      -74.588093633819  6.000  quintet
     34      -74.577540331022  2.000  triplet
     35      -74.575720496226  2.000  triplet
     36      -74.572837897754  0.000  singlet
     37      -74.532806311073  0.000  singlet
     38      -74.518800603713  0.000  singlet
     39      -74.515370609331  6.000  quintet
     40      -74.512797604800  0.000  singlet
     41      -74.505801831840  6.000  quintet
     42      -74.505282053398  2.000  triplet
     43      -74.477593935128  0.000  singlet
     44      -74.464943714535  2.000  triplet
     45      -74.417935195367  2.000  triplet
     46      -74.412103384564  6.000  quintet
     47      -74.408658994293  2.000  triplet
     48      -74.388147063928  2.000  triplet
     49      -74.387362395616  6.000  quintet
     50      -74.385376848561  2.000  triplet
     51      -74.368966737012  0.000  singlet
     52      -74.362617395645  0.000  singlet
     53      -74.343664416410  2.000  triplet
     54      -74.306013069266  0.000  singlet
     55      -74.305093505515  0.000  singlet
     56      -74.300234403039  2.000  triplet
     57      -74.295400440421  2.000  triplet
     58      -74.282117024406  0.000  singlet
     59      -74.277245356209  2.000  triplet
     60      -74.264670483365  0.000  singlet
     61      -74.252979993578  0.000  singlet
     62      -74.199240369124  6.000  quintet
     63      -74.185179021525  0.000  singlet
     64      -74.181124103805  2.000  triplet
     65      -74.165165767930  2.000  triplet
     66      -74.154431113205  0.000  singlet
     67      -74.140858412309  2.000  triplet
     68      -74.133330585989  6.000  quintet
     69      -74.118475688503  6.000  quintet
     70      -74.115479379444  0.000  singlet
     71      -74.106410769618  0.000  singlet
     72      -74.001989259178  2.000  triplet
     73      -73.991935351951  2.000  triplet
     74      -73.963830328778  2.000  triplet
     75      -73.915468282260  2.000  triplet
     76      -73.910780337377  0.000  singlet
     77      -73.886718093055  0.000  singlet
     78      -73.870838594276  0.000  singlet
     79      -73.830601616901  2.000  triplet
     80      -73.729287088539  0.000  singlet
     81      -73.698003368605  2.000  triplet
     82      -73.696692250113  2.000  triplet
     83      -73.553015753779  2.000  triplet
     84      -73.508845094245  0.000  singlet
     85      -72.833641589327  0.000  singlet
  ---------------------------------------------
  Timing for initial guess  =      0.506 s

  Projecting out root 3
  Projecting out root 4
  Projecting out root 6
  Projecting out root 7
  Projecting out root 8
  Projecting out root 10
  Projecting out root 12
  Projecting out root 13
  Projecting out root 15
  Projecting out root 17
  Projecting out root 19
  Projecting out root 22
  Projecting out root 24
  Projecting out root 25
  Projecting out root 26
  Projecting out root 29
  Projecting out root 30
  Projecting out root 33
  Projecting out root 34
  Projecting out root 35
  Projecting out root 39
  Projecting out root 41
  Projecting out root 42
  Projecting out root 44
  Projecting out root 45
  Projecting out root 46
  Projecting out root 47
  Projecting out root 48
  Projecting out root 49
  Projecting out root 50
  Projecting out root 53
  Projecting out root 56
  Projecting out root 57
  Projecting out root 59
  Projecting out root 62
  Projecting out root 64
  Projecting out root 65
  Projecting out root 67
  Projecting out root 68
  Projecting out root 69
  Projecting out root 72
  Projecting out root 73
  Projecting out root 74
  Projecting out root 75
  Projecting out root 79
  Projecting out root 81
  Projecting out root 82
  Projecting out root 83
  ==> Diagonalizing Hamiltonian <==

  ----------------------------------------
    Iter.      Avg. Energy       Delta_E
  ----------------------------------------
      1      -75.488318476591  -7.549e+01
      2      -75.518044082138  -2.973e-02
      3      -75.519457741715  -1.414e-03
      4      -75.519603467695  -1.457e-04
      5      -75.519627601660  -2.413e-05
      6      -75.519630921970  -3.320e-06
      7      -75.519631353667  -4.317e-07
      8      -75.519631381572  -2.791e-08
      9      -75.519631385350  -3.777e-09
     10      -75.519631385869  -5.192e-10
     11      -75.519631385910  -4.101e-11
     12      -75.519631385915  -5.329e-12
     13      -75.519631385916  -4.121e-13
  ----------------------------------------
  The Davidson-Liu algorithm converged in 14 iterations.

  ==> Root No. 0 <==

    20 0 0 20 2 2      0.83232862
    22 0 0 00 2 2     -0.38570389
    20 2 0 20 2 0     -0.11018023
    20 0 2 20 0 2     -0.11018023

    Total Energy:       -75.600540425692571

  ==> Root No. 1 <==

    22 0 0 20 2 0      0.62704600
    22 0 0 20 0 2      0.62704600
    22 0 0 00 2 2     -0.32857370
    20 0 0 20 2 2     -0.11174368

    Total Energy:       -75.479219115614328

  ==> Root No. 2 <==

    22 0 0 20 0 2      0.68356273
    22 0 0 20 2 0     -0.68356273

    Total Energy:       -75.479134616440405

  ==> Computing RDMs for Root No. 0 <==

    Timing for 1-RDM: 0.000 s
    Timing for 2-RDM: 0.005 s

  ==> NATURAL ORBITALS <==

        1Ag     1.986216      1B3u    1.896699      1B2u    1.896699  
        1B1u    1.579745      2Ag     0.416670      1B2g    0.106556  
        1B3g    0.106556      2B1u    0.010857  


  ==> Computing RDMs for Root No. 1 <==

    Timing for 1-RDM: 0.000 s
    Timing for 2-RDM: 0.005 s

  ==> NATURAL ORBITALS <==

        1Ag     1.976324      2Ag     1.911447      1B1u    1.720744  
        1B3u    1.130180      1B2u    1.130180      1B2g    0.059037  
        1B3g    0.059037      2B1u    0.013052  


  ==> Computing RDMs for Root No. 2 <==

    Timing for 1-RDM: 0.000 s
    Timing for 2-RDM: 0.005 s

  ==> NATURAL ORBITALS <==

        1Ag     1.987837      2Ag     1.965654      1B1u    1.955922  
        1B2u    0.990237      1B3u    0.990237      1B3g    0.048811  
        1B2g    0.048811      2B1u    0.012491  


 CAS took 0.909764 seconds.

 FormFockIntermediates took 0.05193900 s.

 FormOrbitalGradient took 0.00051000 s.

 FormDiagHessian took 0.00006100 s.

 Update function takes 0.05254600 s
   14   0.000000507404   0.000000000000   -75.519631385916    1.214883 s

 A miracle has come to pass. The CASSCF iterations have converged.
 @E(CASSCF) =   -75.519631385916 

 Overall retranformation of integrals takes 0.0000 s.
	CASSCF Energy.....................................................PASSED

*** Psi4 exiting successfully. Buy a developer a beer!
