
    -----------------------------------------------------------------------
          Psi4: An Open-Source Ab Initio Electronic Structure Package
                               Psi4 undefined 

                         Git: Rev {master} 45315cb dirty


    R. M. Parrish, L. A. Burns, D. G. A. Smith, A. C. Simmonett,
    A. E. DePrince III, E. G. Hohenstein, U. Bozkaya, A. Yu. Sokolov,
    R. Di Remigio, R. M. Richard, J. F. Gonthier, A. M. James,
    H. R. McAlexander, A. Kumar, M. Saitow, X. Wang, B. P. Pritchard,
    P. Verma, H. F. Schaefer III, K. Patkowski, R. A. King, E. F. Valeev,
    F. A. Evangelista, J. M. Turney, T. D. Crawford, and C. D. Sherrill,
    J. Chem. Theory Comput. 13(7) pp 3185--3197 (2017).
    (doi: 10.1021/acs.jctc.7b00174)


                         Additional Contributions by
    P. Kraus, H. Kruse, M. H. Lechner, M. C. Schieber, R. A. Shaw,
    A. Alenaizan, R. Galvelis, Z. L. Glick, S. Lehtola, and J. P. Misiewicz

    -----------------------------------------------------------------------


    Psi4 started on: Monday, 10 August 2020 10:25AM

    Process ID: 20553
    Host:       DESKTOP-SQPD2D3
    PSIDATADIR: /home/mhuang/psi4_install/share/psi4
    Memory:     500.0 MiB
    Threads:    1
    
  ==> Input File <==

--------------------------------------------------------------------------
#! Generated using commit GITCOMMIT 
# GASSCF for core-excited state with Core frozen
# Without CASSCF_FROZEN_ORBITAL this will collapse to ground state and not converge

import forte

refscf = -76.0172965561 #TEST
refgasscf = -56.313528161904 #TEST

memory 6000mb
molecule h2o{
   O
   H  1 1.00
   H  1 1.00 2 103.1
      }

set global {
  basis 6-31g**
  e_convergence 10
  d_convergence 10
  r_convergence 10
  guess gwh
  scf_type pk
  reference rhf
}

set scf_type direct
set forte {
  active_space_solver aci
  ms 0.0
  multiplicity 1
  sigma 0.00
  root_sym 0
  charge 0
  sci_enforce_spin_complete true
  e_convergence 6
  charge 0
  active_ref_type gas
  GAS1 [1,0,0,0]
  GAS2 [3,0,1,2]
  GAS1MAX 1
  GAS1MIN 0
  job_type casscf
  casscf_ci_solver aci
  casscf_maxiter 100
  casscf_e_convergence 1e-10
  casscf_frozen_orbital [0]
  casscf_diis_start 15
}

escf ,wfn = energy('scf',return_wfn = True)
egasscf = energy('forte')
compare_values(refgasscf, egasscf ,9, "GASSCF energy") #TEST
--------------------------------------------------------------------------

  Memory set to   5.588 GiB by Python driver.

*** tstart() called on DESKTOP-SQPD2D3
*** at Mon Aug 10 10:25:44 2020

   => Loading Basis Set <=

    Name: 6-31G**
    Role: ORBITAL
    Keyword: BASIS
    atoms 1   entry O          line   149 file /home/mhuang/psi4_install/share/psi4/basis/6-31gss.gbs 
    atoms 2-3 entry H          line    44 file /home/mhuang/psi4_install/share/psi4/basis/6-31gss.gbs 


         ---------------------------------------------------------
                                   SCF
               by Justin Turney, Rob Parrish, Andy Simmonett
                          and Daniel G. A. Smith
                              RHF Reference
                        1 Threads,   5722 MiB Core
         ---------------------------------------------------------

  ==> Geometry <==

    Molecular point group: c2v
    Full point group: C2v

    Geometry (in Angstrom), charge = 0, multiplicity = 1:

       Center              X                  Y                   Z               Mass       
    ------------   -----------------  -----------------  -----------------  -----------------
         O            0.000000000000     0.000000000000    -0.069592187400    15.994914619570
         H            0.000000000000    -0.783151105291     0.552239257834     1.007825032230
         H            0.000000000000     0.783151105291     0.552239257834     1.007825032230

  Running in c2v symmetry.

  Rotational constants: A =     24.35462  B =     13.63610  C =      8.74166 [cm^-1]
  Rotational constants: A = 730133.21529  B = 408800.04239  C = 262068.46393 [MHz]
  Nuclear repulsion =    8.804686653247025

  Charge       = 0
  Multiplicity = 1
  Electrons    = 10
  Nalpha       = 5
  Nbeta        = 5

  ==> Algorithm <==

  SCF Algorithm Type is DIRECT.
  DIIS enabled.
  MOM disabled.
  Fractional occupation disabled.
  Guess Type is GWH.
  Energy threshold   = 1.00e-10
  Density threshold  = 1.00e-10
  Integral threshold = 0.00e+00

  ==> Primary Basis <==

  Basis Set: 6-31G**
    Blend: 6-31G**
    Number of shells: 12
    Number of basis function: 25
    Number of Cartesian functions: 25
    Spherical Harmonics?: false
    Max angular momentum: 2

   => Loading Basis Set <=

    Name: (6-31G** AUX)
    Role: JKFIT
    Keyword: DF_BASIS_SCF
    atoms 1   entry O          line   221 file /home/mhuang/psi4_install/share/psi4/basis/cc-pvdz-jkfit.gbs 
    atoms 2-3 entry H          line    51 file /home/mhuang/psi4_install/share/psi4/basis/cc-pvdz-jkfit.gbs 

  Starting with a DF guess...

  ==> Pre-Iterations <==

   -------------------------------------------------------
    Irrep   Nso     Nmo     Nalpha   Nbeta   Ndocc  Nsocc
   -------------------------------------------------------
     A1        12      12       0       0       0       0
     A2         2       2       0       0       0       0
     B1         4       4       0       0       0       0
     B2         7       7       0       0       0       0
   -------------------------------------------------------
    Total      25      25       5       5       5       0
   -------------------------------------------------------

  ==> Integral Setup <==

  DFHelper Memory: AOs need 0.001 GiB; user supplied 4.191 GiB. Using in-core AOs.

  ==> MemDFJK: Density-Fitted J/K Matrices <==

    J tasked:                   Yes
    K tasked:                   Yes
    wK tasked:                   No
    OpenMP threads:               1
    Memory [MiB]:              4291
    Algorithm:                 Core
    Schwarz Cutoff:           1E-12
    Mask sparsity (%):       0.0000
    Fitting Condition:        1E-10

   => Auxiliary Basis Set <=

  Basis Set: (6-31G** AUX)
    Blend: CC-PVDZ-JKFIT
    Number of shells: 42
    Number of basis function: 131
    Number of Cartesian functions: 131
    Spherical Harmonics?: false
    Max angular momentum: 3

  Minimum eigenvalue in the overlap matrix is 2.3361254379E-02.
  Using Symmetric Orthogonalization.

  SCF Guess: Generalized Wolfsberg-Helmholtz.

  ==> Iterations <==

                           Total Energy        Delta E     RMS |[F,P]|

   @DF-RHF iter   1:   -74.69502194331288   -7.46950e+01   1.19380e-01 DIIS
   @DF-RHF iter   2:   -75.63883488360054   -9.43813e-01   7.21524e-02 DIIS
   @DF-RHF iter   3:   -76.01065330024157   -3.71818e-01   7.66497e-03 DIIS
   @DF-RHF iter   4:   -76.01705150838731   -6.39821e-03   1.07848e-03 DIIS
   @DF-RHF iter   5:   -76.01724771497869   -1.96207e-04   2.45196e-04 DIIS
   @DF-RHF iter   6:   -76.01725930217495   -1.15872e-05   5.17439e-05 DIIS
   @DF-RHF iter   7:   -76.01725996692429   -6.64749e-07   8.86755e-06 DIIS
   @DF-RHF iter   8:   -76.01725998300749   -1.60832e-08   1.68546e-06 DIIS
   @DF-RHF iter   9:   -76.01725998411105   -1.10356e-09   3.99731e-07 DIIS
   @DF-RHF iter  10:   -76.01725998416187   -5.08180e-11   4.32937e-08 DIIS
   @DF-RHF iter  11:   -76.01725998416215   -2.84217e-13   4.33252e-09 DIIS
   @DF-RHF iter  12:   -76.01725998416219   -4.26326e-14   4.75419e-10 DIIS
   @DF-RHF iter  13:   -76.01725998416219    0.00000e+00   4.32052e-11 DIIS

  DF guess converged.

  ==> DirectJK: Integral-Direct J/K Matrices <==

    J tasked:                  Yes
    K tasked:                  Yes
    wK tasked:                  No
    Integrals threads:           1
    Schwarz Cutoff:          1E-12

   @RHF iter  14:   -76.01729654450098   -7.60173e+01   1.19915e-05 DIIS
   @RHF iter  15:   -76.01729655577871   -1.12777e-08   1.64017e-06 DIIS
   @RHF iter  16:   -76.01729655606735   -2.88637e-10   4.89639e-07 DIIS
   @RHF iter  17:   -76.01729655608835   -2.10036e-11   1.68507e-07 DIIS
   @RHF iter  18:   -76.01729655609128   -2.92744e-12   4.58642e-08 DIIS
   @RHF iter  19:   -76.01729655609157   -2.84217e-13   5.21060e-09 DIIS
   @RHF iter  20:   -76.01729655609157    0.00000e+00   7.84812e-10 DIIS
   @RHF iter  21:   -76.01729655609158   -1.42109e-14   1.27029e-10 DIIS
   @RHF iter  22:   -76.01729655609158    0.00000e+00   2.82298e-11 DIIS
  Energy and wave function converged.


  ==> Post-Iterations <==

    Orbital Energies [Eh]
    ---------------------

    Doubly Occupied:                                                      

       1A1   -20.569000     2A1    -1.320609     1B2    -0.678724  
       3A1    -0.563930     1B1    -0.495004  

    Virtual:                                                              

       4A1     0.202466     2B2     0.292719     3B2     0.981164  
       5A1     1.056318     6A1     1.129179     2B1     1.168639  
       4B2     1.294985     7A1     1.413596     1A2     1.802875  
       8A1     1.806916     3B1     1.918871     9A1     2.513249  
       5B2     2.537822     6B2     2.713577     2A2     2.921065  
       4B1     2.947486    10A1     3.291755    11A1     3.620730  
       7B2     3.874917    12A1     4.077740  

    Final Occupation by Irrep:
             A1    A2    B1    B2 
    DOCC [     3,    0,    1,    1 ]

  @RHF Final Energy:   -76.01729655609158

   => Energetics <=

    Nuclear Repulsion Energy =              8.8046866532470247
    One-Electron Energy =                -122.3894315645718791
    Two-Electron Energy =                  37.5674483552332887
    Total Energy =                        -76.0172965560915657

Computation Completed


Properties will be evaluated at   0.000000,   0.000000,   0.000000 [a0]

Properties computed using the SCF density matrix

  Nuclear Dipole Moment: [e a0]
     X:     0.0000      Y:     0.0000      Z:     1.0351

  Electronic Dipole Moment: [e a0]
     X:     0.0000      Y:     0.0000      Z:    -0.1532

  Dipole Moment: [e a0]
     X:     0.0000      Y:     0.0000      Z:     0.8819     Total:     0.8819

  Dipole Moment: [D]
     X:     0.0000      Y:     0.0000      Z:     2.2414     Total:     2.2414


*** tstop() called on DESKTOP-SQPD2D3 at Mon Aug 10 10:25:44 2020
Module time:
	user time   =       0.64 seconds =       0.01 minutes
	system time =       0.11 seconds =       0.00 minutes
	total time  =          0 seconds =       0.00 minutes
Total time:
	user time   =       0.64 seconds =       0.01 minutes
	system time =       0.11 seconds =       0.00 minutes
	total time  =          0 seconds =       0.00 minutes

  Forte
  ----------------------------------------------------------------------------
  A suite of quantum chemistry methods for strongly correlated electrons

    git branch: gas-ci - git commit: f338f0a6

  Developed by:
    Francesco A. Evangelista, Chenyang Li, Kevin P. Hannon,
    Jeffrey B. Schriber, Tianyuan Zhang, Chenxi Cai,
    Nan He, Nicholas Stair, Shuhe Wang, Renke Huang
  ----------------------------------------------------------------------------

  Size of Determinant class: 128 bits
  Preparing forte objects from a psi4 Wavefunction object
  No reference wavefunction provided. Computing SCF orbitals with psi4

*** tstart() called on DESKTOP-SQPD2D3
*** at Mon Aug 10 10:25:44 2020

   => Loading Basis Set <=

    Name: 6-31G**
    Role: ORBITAL
    Keyword: BASIS
    atoms 1   entry O          line   149 file /home/mhuang/psi4_install/share/psi4/basis/6-31gss.gbs 
    atoms 2-3 entry H          line    44 file /home/mhuang/psi4_install/share/psi4/basis/6-31gss.gbs 


         ---------------------------------------------------------
                                   SCF
               by Justin Turney, Rob Parrish, Andy Simmonett
                          and Daniel G. A. Smith
                              RHF Reference
                        1 Threads,   5722 MiB Core
         ---------------------------------------------------------

  ==> Geometry <==

    Molecular point group: c2v
    Full point group: C2v

    Geometry (in Angstrom), charge = 0, multiplicity = 1:

       Center              X                  Y                   Z               Mass       
    ------------   -----------------  -----------------  -----------------  -----------------
         O            0.000000000000     0.000000000000    -0.069592187400    15.994914619570
         H            0.000000000000    -0.783151105291     0.552239257834     1.007825032230
         H            0.000000000000     0.783151105291     0.552239257834     1.007825032230

  Running in c2v symmetry.

  Rotational constants: A =     24.35462  B =     13.63610  C =      8.74166 [cm^-1]
  Rotational constants: A = 730133.21529  B = 408800.04239  C = 262068.46393 [MHz]
  Nuclear repulsion =    8.804686653247023

  Charge       = 0
  Multiplicity = 1
  Electrons    = 10
  Nalpha       = 5
  Nbeta        = 5

  ==> Algorithm <==

  SCF Algorithm Type is DIRECT.
  DIIS enabled.
  MOM disabled.
  Fractional occupation disabled.
  Guess Type is GWH.
  Energy threshold   = 1.00e-10
  Density threshold  = 1.00e-10
  Integral threshold = 0.00e+00

  ==> Primary Basis <==

  Basis Set: 6-31G**
    Blend: 6-31G**
    Number of shells: 12
    Number of basis function: 25
    Number of Cartesian functions: 25
    Spherical Harmonics?: false
    Max angular momentum: 2

   => Loading Basis Set <=

    Name: (6-31G** AUX)
    Role: JKFIT
    Keyword: DF_BASIS_SCF
    atoms 1   entry O          line   221 file /home/mhuang/psi4_install/share/psi4/basis/cc-pvdz-jkfit.gbs 
    atoms 2-3 entry H          line    51 file /home/mhuang/psi4_install/share/psi4/basis/cc-pvdz-jkfit.gbs 

  Starting with a DF guess...

  ==> Pre-Iterations <==

   -------------------------------------------------------
    Irrep   Nso     Nmo     Nalpha   Nbeta   Ndocc  Nsocc
   -------------------------------------------------------
     A1        12      12       0       0       0       0
     A2         2       2       0       0       0       0
     B1         4       4       0       0       0       0
     B2         7       7       0       0       0       0
   -------------------------------------------------------
    Total      25      25       5       5       5       0
   -------------------------------------------------------

  ==> Integral Setup <==

  DFHelper Memory: AOs need 0.001 GiB; user supplied 4.191 GiB. Using in-core AOs.

  ==> MemDFJK: Density-Fitted J/K Matrices <==

    J tasked:                   Yes
    K tasked:                   Yes
    wK tasked:                   No
    OpenMP threads:               1
    Memory [MiB]:              4291
    Algorithm:                 Core
    Schwarz Cutoff:           1E-12
    Mask sparsity (%):       0.0000
    Fitting Condition:        1E-10

   => Auxiliary Basis Set <=

  Basis Set: (6-31G** AUX)
    Blend: CC-PVDZ-JKFIT
    Number of shells: 42
    Number of basis function: 131
    Number of Cartesian functions: 131
    Spherical Harmonics?: false
    Max angular momentum: 3

  Minimum eigenvalue in the overlap matrix is 2.3361254379E-02.
  Using Symmetric Orthogonalization.

  SCF Guess: Generalized Wolfsberg-Helmholtz.

  ==> Iterations <==

                           Total Energy        Delta E     RMS |[F,P]|

   @DF-RHF iter   1:   -74.69502194333072   -7.46950e+01   1.19380e-01 DIIS
   @DF-RHF iter   2:   -75.63883488361417   -9.43813e-01   7.21524e-02 DIIS
   @DF-RHF iter   3:   -76.01065330025372   -3.71818e-01   7.66497e-03 DIIS
   @DF-RHF iter   4:   -76.01705150839952   -6.39821e-03   1.07848e-03 DIIS
   @DF-RHF iter   5:   -76.01724771499087   -1.96207e-04   2.45196e-04 DIIS
   @DF-RHF iter   6:   -76.01725930218711   -1.15872e-05   5.17439e-05 DIIS
   @DF-RHF iter   7:   -76.01725996693649   -6.64749e-07   8.86755e-06 DIIS
   @DF-RHF iter   8:   -76.01725998301976   -1.60833e-08   1.68546e-06 DIIS
   @DF-RHF iter   9:   -76.01725998412329   -1.10353e-09   3.99731e-07 DIIS
   @DF-RHF iter  10:   -76.01725998417406   -5.07754e-11   4.32937e-08 DIIS
   @DF-RHF iter  11:   -76.01725998417436   -2.98428e-13   4.33252e-09 DIIS
   @DF-RHF iter  12:   -76.01725998417440   -4.26326e-14   4.75419e-10 DIIS
   @DF-RHF iter  13:   -76.01725998417440    0.00000e+00   4.32048e-11 DIIS

  DF guess converged.

  ==> DirectJK: Integral-Direct J/K Matrices <==

    J tasked:                  Yes
    K tasked:                  Yes
    wK tasked:                  No
    Integrals threads:           1
    Schwarz Cutoff:          1E-12

   @RHF iter  14:   -76.01729654450095   -7.60173e+01   1.19915e-05 DIIS
   @RHF iter  15:   -76.01729655577869   -1.12777e-08   1.64017e-06 DIIS
   @RHF iter  16:   -76.01729655606729   -2.88608e-10   4.89639e-07 DIIS
   @RHF iter  17:   -76.01729655608835   -2.10605e-11   1.68507e-07 DIIS
   @RHF iter  18:   -76.01729655609128   -2.92744e-12   4.58642e-08 DIIS
   @RHF iter  19:   -76.01729655609152   -2.41585e-13   5.21060e-09 DIIS
   @RHF iter  20:   -76.01729655609151    1.42109e-14   7.84812e-10 DIIS
   @RHF iter  21:   -76.01729655609152   -1.42109e-14   1.27029e-10 DIIS
   @RHF iter  22:   -76.01729655609152    0.00000e+00   2.82299e-11 DIIS
  Energy and wave function converged.


  ==> Post-Iterations <==

    Orbital Energies [Eh]
    ---------------------

    Doubly Occupied:                                                      

       1A1   -20.569000     2A1    -1.320609     1B2    -0.678724  
       3A1    -0.563930     1B1    -0.495004  

    Virtual:                                                              

       4A1     0.202466     2B2     0.292719     3B2     0.981164  
       5A1     1.056318     6A1     1.129179     2B1     1.168639  
       4B2     1.294985     7A1     1.413596     1A2     1.802875  
       8A1     1.806916     3B1     1.918871     9A1     2.513249  
       5B2     2.537822     6B2     2.713577     2A2     2.921065  
       4B1     2.947486    10A1     3.291755    11A1     3.620730  
       7B2     3.874917    12A1     4.077740  

    Final Occupation by Irrep:
             A1    A2    B1    B2 
    DOCC [     3,    0,    1,    1 ]

  @RHF Final Energy:   -76.01729655609152

   => Energetics <=

    Nuclear Repulsion Energy =              8.8046866532470229
    One-Electron Energy =                -122.3894315645718223
    Two-Electron Energy =                  37.5674483552332816
    Total Energy =                        -76.0172965560915230

Computation Completed


Properties will be evaluated at   0.000000,   0.000000,   0.000000 [a0]

Properties computed using the SCF density matrix

  Nuclear Dipole Moment: [e a0]
     X:     0.0000      Y:     0.0000      Z:     1.0351

  Electronic Dipole Moment: [e a0]
     X:     0.0000      Y:     0.0000      Z:    -0.1532

  Dipole Moment: [e a0]
     X:     0.0000      Y:     0.0000      Z:     0.8819     Total:     0.8819

  Dipole Moment: [D]
     X:     0.0000      Y:     0.0000      Z:     2.2414     Total:     2.2414


*** tstop() called on DESKTOP-SQPD2D3 at Mon Aug 10 10:25:45 2020
Module time:
	user time   =       0.57 seconds =       0.01 minutes
	system time =       0.04 seconds =       0.00 minutes
	total time  =          1 seconds =       0.02 minutes
Total time:
	user time   =       1.22 seconds =       0.02 minutes
	system time =       0.15 seconds =       0.00 minutes
	total time  =          1 seconds =       0.02 minutes
   => Loading Basis Set <=

    Name: STO-3G
    Role: ORBITAL
    Keyword: MINAO_BASIS
    atoms 1   entry O          line    81 file /home/mhuang/psi4_install/share/psi4/basis/sto-3g.gbs 
    atoms 2-3 entry H          line    19 file /home/mhuang/psi4_install/share/psi4/basis/sto-3g.gbs 


  Read options for space GAS1
  Read options for space GAS2
  Read options for space GAS1
  Read options for space GAS2

  ==> MO Space Information <==

  -------------------------------------------------
                       A1    A2    B1    B2   Sum
  -------------------------------------------------
    FROZEN_DOCC         0     0     0     0     0
    RESTRICTED_DOCC     0     0     0     0     0
    GAS1                1     0     0     0     1
    GAS2                3     0     1     2     6
    GAS3                0     0     0     0     0
    GAS4                0     0     0     0     0
    GAS5                0     0     0     0     0
    GAS6                0     0     0     0     0
    RESTRICTED_UOCC     8     2     3     5    18
    FROZEN_UOCC         0     0     0     0     0
    Total              12     2     4     7    25
  -------------------------------------------------
  Forte will use psi4 integrals

  ==> Integral Transformation <==

  Number of molecular orbitals:                    25
  Number of correlated molecular orbitals:         25
  Number of frozen occupied orbitals:               0
  Number of frozen unoccupied orbitals:             0
  Two-electron integral type:              Conventional


  Overall Conventional Integrals timings


  Computing Conventional Integrals	Presorting SO-basis two-electron integrals.
	Sorting File: SO Ints (nn|nn) nbuckets = 1
	Transforming the one-electron integrals and constructing Fock matrices
	Starting first half-transformation.
	Sorting half-transformed integrals.
	First half integral transformation complete.
	Starting second half-transformation.
	Two-electron integral transformation complete.

  Integral transformation done. 0.09339420 s
  Reading the two-electron integrals from disk
  Size of two-electron integrals:   0.008731 GB
  Timing for conventional integral transformation:            0.201 s.
  Timing for freezing core and virtual orbitals:              0.000 s.
  Conventional integrals take 0.20161090 s

                -----------------------------------------------
                  Complete Active Space Self Consistent Field
                                 Kevin Hannon
                -----------------------------------------------
  Using in-core PK algorithm.
   Calculation information:
      Number of atoms:                   3
      Number of AO shells:              12
      Number of primitives:             25
      Number of atomic orbitals:        25
      Number of basis functions:        25

      Integral cutoff                 1.00e-12
      Number of threads:                 1

  Performing in-core PK
  Using 105950 doubles for integral storage.
  We computed 3081 shell quartets total.
  Whereas there are 3081 unique shell quartets.


    JK takes 0.05425 s

  ==> CASSCF Iteration <==

  iter    ||g||           Delta_E            E_CASSCF       CONV_TYPE

  Transform Integrals takes 0.01317000 s.

  Performing a CAS with ACI

  ==> Summary of Active Space Solver Input <==

    Irrep.  Multi.(2ms)      N
    --------------------------
       A1      1  (  0)      1
    --------------------------
    N: number of roots
    ms: spin z component
    Total number of roots:   1
    --------------------------


-------------------------------------------------------------------------------
               Selected Configuration Interaction Excited States
  written by Jeffrey B. Schriber, Tianyuan Zhang and Francesco A. Evangelista
-------------------------------------------------------------------------------

  ==> Reference Information <==

  ==> Calculation Information <==

  -----------------------------------------------------------------
    Multiplicity                             1    
    Symmetry                                 0    
    Number of roots                          1    
    Ms                                       0
    Excited Algorithm                        NONE
  -----------------------------------------------------------------
  Using 1 threads
  Computing wavefunction for root 0

        ---------------------------------------------------------------
                      Adaptive Configuration Interaction
          written by Jeffrey B. Schriber and Francesco A. Evangelista
        ---------------------------------------------------------------

  ==> Reference Information <==

  There are 0 frozen orbitals.
  There are 7 active orbitals.

  ==> Calculation Information <==

  -----------------------------------------------------------------
    Multiplicity                             1    
    Symmetry                                 0    
    Number of roots                          1    
    Root used for properties                 0    
    Sigma (Eh)                               0.00e+00
    Gamma (Eh^(-1))                          1.00e+00
    Convergence threshold                    1.00e-09
    Ms                                       0
    Diagonalization algorithm                SPARSE
    Excited Algorithm                        NONE
    Project out spin contaminants            True
    Enforce spin completeness of basis       True
    Enforce complete aimed selection         True
  -----------------------------------------------------------------
  Number of active alpha electrons: 5
  Number of active beta electrons: 5
  Maximum reference space size: 1000
  The maximum number of electrons in GAS1 is 1
  The minimum number of electrons in GAS1 is 0
  The maximum number of electrons in GAS2 is 10 
  The minimum number of electrons in GAS2 is 0
  
  Possible electron occupations in the GAS 
  GAS1_A  GAS1_B  GAS2_A  GAS2_B  
     1       0       4       5    
     0       1       5       4    
     0       0       5       5    

  GAS Orbital Energies
  GAS   Energies    Orb 
  1  -20.568999574  0 
  2  -1.320609273  1 
  2  -0.563930450  2 
  2   0.202465902  3 
  2  -0.495003944  4 
  2  -0.678724187  5 
  2   0.292719335  6 

  ---------------------------------- Cycle 0 -----------------------------------


  ==> Diagonalizing the Hamiltonian in the P space <==

  Initial P space dimension: 68
  Spin-complete dimension of the P space: 68 determinants

  ==> Computing Coupling Lists <==
  --------------------------------
        α          0.001089 s
        β          0.001066 s
        αα         0.002040 s
        ββ         0.002133 s
        αβ         0.005517 s
  --------------------------------

  Davidson-Liu solver algorithm using SigmaVectorSparseList sigma algorithm

  Performing diagonalization of the H matrix
  Time spent diagonalizing H:   0.025783 s

    P-space  CI Energy Root   0        = -55.853959647456 Eh =   0.0000 eV, S^2 = 2.000000


  ==> Finding the Q space <==

  Using SR screening algorithm
  Time spent forming F space:             0.005091
  Time spent merging thread F spaces:             0.000092
  size of hash: 0
  Time spent building sorting list: 0.000026
  Size of F space: 0
  Time spent building the model space: 0.005556
  Spin-complete dimension of the PQ space: 68

  ==> Diagonalizing the Hamiltonian in the P + Q space <==

  Number of reference roots: 1

  ==> Computing Coupling Lists <==
  --------------------------------
        α          0.001092 s
        β          0.001077 s
        αα         0.002082 s
        ββ         0.002075 s
        αβ         0.005339 s
  --------------------------------

  Davidson-Liu solver algorithm using SigmaVectorSparseList sigma algorithm

  Performing diagonalization of the H matrix
  Total time spent diagonalizing H:   0.025399 s

    PQ-space CI Energy Root   0        = -55.853959647456 Eh =   0.0000 eV, S^2 = 2.000000
    PQ-space CI Energy + EPT2 Root   0 = -55.853959647456 Eh =   0.0000 eV

  
  GAS Contribution Analysis  
  GAS contributions root 0: 
  GAS1_A    GASI_B    GAS2_A    GAS2_B        Cont  
     1         0         4         5        0.499999974  
     0         1         5         4        0.499999974  
     0         0         5         5        0.000000053  

           0                  10            0.000000053  
           1                  9            0.999999947  


  ==> Pruning the Q space <==

  Cycle 0 took: 0.061306 s

  ---------------------------------- Cycle 1 -----------------------------------


  ==> Diagonalizing the Hamiltonian in the P space <==

  Initial P space dimension: 68
  Spin-complete dimension of the P space: 68 determinants

  ==> Computing Coupling Lists <==
  --------------------------------
        α          0.001088 s
        β          0.001171 s
        αα         0.002255 s
        ββ         0.002120 s
        αβ         0.005366 s
  --------------------------------

  Davidson-Liu solver algorithm using SigmaVectorSparseList sigma algorithm

  Performing diagonalization of the H matrix
  Time spent diagonalizing H:   0.025652 s

    P-space  CI Energy Root   0        = -55.853959647456 Eh =   0.0000 eV, S^2 = 2.000000


  ==> Finding the Q space <==

  Using SR screening algorithm
  Time spent forming F space:             0.004746
  Time spent merging thread F spaces:             0.000091
  size of hash: 0
  Time spent building sorting list: 0.000029
  Size of F space: 0
  Time spent building the model space: 0.005221
  Spin-complete dimension of the PQ space: 68

  ==> Diagonalizing the Hamiltonian in the P + Q space <==

  Number of reference roots: 1

  ==> Computing Coupling Lists <==
  --------------------------------
        α          0.001225 s
        β          0.001070 s
        αα         0.002205 s
        ββ         0.002092 s
        αβ         0.005431 s
  --------------------------------

  Davidson-Liu solver algorithm using SigmaVectorSparseList sigma algorithm

  Performing diagonalization of the H matrix
  Total time spent diagonalizing H:   0.025994 s

    PQ-space CI Energy Root   0        = -55.853959647456 Eh =   0.0000 eV, S^2 = 2.000000
    PQ-space CI Energy + EPT2 Root   0 = -55.853959647456 Eh =   0.0000 eV

  
  GAS Contribution Analysis  
  GAS contributions root 0: 
  GAS1_A    GASI_B    GAS2_A    GAS2_B        Cont  
     1         0         4         5        0.499999974  
     0         1         5         4        0.499999974  
     0         0         5         5        0.000000053  

           0                  10            0.000000053  
           1                  9            0.999999947  

  ***** Calculation Converged *****

  ==> ACI Natural Orbitals <==


  ==> Computing Coupling Lists <==
  --------------------------------
        α          0.004717 s
        β          0.004444 s
        1B1     1.999996      1A1     1.999959      2A1     1.999152  
        1B2     1.998359      3A1     1.000000      4A1     0.999521  
        2B2     0.003014  

  ==> Excited state solver summary <==

  Iterations required:                         1
  Dimension of optimized determinant space:    68

  * Selected-CI Energy Root   0        = -55.853959647456 Eh =   0.0000 eV
  * Selected-CI Energy Root   0 + EPT2 = -55.853959647456 Eh =   0.0000 eV

  ==> Wavefunction Information <==

  Most important contributions to root   0:
    0   0.660283 0.435974253          67 |-22+220>
    1  -0.660283 0.435974253          66 |+22-220>
    2   0.163605 0.026766744          65 |-22+2+->
    3  -0.163605 0.026766744          64 |+22-2-+>
    4   0.137559 0.018922485          63 |-22+2-+>
    5  -0.137559 0.018922485          62 |+22-2+->
    6  -0.103892 0.010793649          61 |-2+2220>
    7   0.103892 0.010793649          60 |+2-2220>
    8  -0.072765 0.005294799          59 |-+22220>
    9   0.072765 0.005294799          58 |+-22220>

  Saving information for root: 0

  ==> Energy Summary <==

    Multi.(2ms)  Irrep.  No.               Energy
    ---------------------------------------------
       1  (  0)    A1     0      -55.853959647456
    ---------------------------------------------
 Weight 1.000000 

  ==> Computing Coupling Lists <==
  --------------------------------
        α          0.000003 s
        β          0.000003 s
        αα         0.000003 s
        ββ         0.000003 s
        αβ         0.000003 s
  --------------------------------

  ==> Computing Coupling Lists <==
  --------------------------------
        α          0.003778 s
        β          0.001064 s
  1-RDM  took 0.008629 s (determinant)
        αα         0.002137 s
        ββ         0.001925 s
        αβ         0.005223 s
  --------------------------------
  2-RDMS took 0.011699 s (determinant)

 CAS took 0.169228 seconds.

 FormFockIntermediates took 0.00168460 s.
  Active Orbitals Frozen:


 FormOrbitalGradient took 0.00142260 s.

 FormDiagHessian took 0.00123410 s.

 Update function takes 0.00452400 s
    1 0.240655053751   -55.853959647456   -55.853959647456    0.2 s       ~

  Transform Integrals takes 0.01571710 s.

  Performing a CAS with ACI

  ==> Summary of Active Space Solver Input <==

    Irrep.  Multi.(2ms)      N
    --------------------------
       A1      1  (  0)      1
    --------------------------
    N: number of roots
    ms: spin z component
    Total number of roots:   1
    --------------------------


-------------------------------------------------------------------------------
               Selected Configuration Interaction Excited States
  written by Jeffrey B. Schriber, Tianyuan Zhang and Francesco A. Evangelista
-------------------------------------------------------------------------------

  ==> Reference Information <==

  ==> Calculation Information <==

  -----------------------------------------------------------------
    Multiplicity                             1    
    Symmetry                                 0    
    Number of roots                          1    
    Ms                                       0
    Excited Algorithm                        NONE
  -----------------------------------------------------------------
  Using 1 threads
  Computing wavefunction for root 0

        ---------------------------------------------------------------
                      Adaptive Configuration Interaction
          written by Jeffrey B. Schriber and Francesco A. Evangelista
        ---------------------------------------------------------------

  ==> Reference Information <==

  There are 0 frozen orbitals.
  There are 7 active orbitals.

  ==> Calculation Information <==

  -----------------------------------------------------------------
    Multiplicity                             1    
    Symmetry                                 0    
    Number of roots                          1    
    Root used for properties                 0    
    Sigma (Eh)                               0.00e+00
    Gamma (Eh^(-1))                          1.00e+00
    Convergence threshold                    1.00e-09
    Ms                                       0
    Diagonalization algorithm                SPARSE
    Excited Algorithm                        NONE
    Project out spin contaminants            True
    Enforce spin completeness of basis       True
    Enforce complete aimed selection         True
  -----------------------------------------------------------------
  Number of active alpha electrons: 5
  Number of active beta electrons: 5
  Maximum reference space size: 1000
  The maximum number of electrons in GAS1 is 1
  The minimum number of electrons in GAS1 is 0
  The maximum number of electrons in GAS2 is 10 
  The minimum number of electrons in GAS2 is 0
  
  Possible electron occupations in the GAS 
  GAS1_A  GAS1_B  GAS2_A  GAS2_B  
     1       0       4       5    
     0       1       5       4    
     0       0       5       5    

  GAS Orbital Energies
  GAS   Energies    Orb 
  1  -20.568999574  0 
  2  -1.320609273  1 
  2  -0.563930450  2 
  2   0.202465902  3 
  2  -0.495003944  4 
  2  -0.678724187  5 
  2   0.292719335  6 

  ---------------------------------- Cycle 0 -----------------------------------


  ==> Diagonalizing the Hamiltonian in the P space <==

  Initial P space dimension: 68
  Spin-complete dimension of the P space: 68 determinants

  ==> Computing Coupling Lists <==
  --------------------------------
        α          0.001026 s
        β          0.001065 s
        αα         0.002063 s
        ββ         0.002048 s
        αβ         0.005212 s
  --------------------------------

  Davidson-Liu solver algorithm using SigmaVectorSparseList sigma algorithm

  Performing diagonalization of the H matrix
  Time spent diagonalizing H:   0.028294 s

    P-space  CI Energy Root   0        = -56.288514812246 Eh =   0.0000 eV, S^2 = 2.000000


  ==> Finding the Q space <==

  Using SR screening algorithm
  Time spent forming F space:             0.004582
  Time spent merging thread F spaces:             0.000063
  size of hash: 0
  Time spent building sorting list: 0.000025
  Size of F space: 0
  Time spent building the model space: 0.004934
  Spin-complete dimension of the PQ space: 68

  ==> Diagonalizing the Hamiltonian in the P + Q space <==

  Number of reference roots: 1

  ==> Computing Coupling Lists <==
  --------------------------------
        α          0.001036 s
        β          0.001030 s
        αα         0.002142 s
        ββ         0.001951 s
        αβ         0.005187 s
  --------------------------------

  Davidson-Liu solver algorithm using SigmaVectorSparseList sigma algorithm

  Performing diagonalization of the H matrix
  Total time spent diagonalizing H:   0.024448 s

    PQ-space CI Energy Root   0        = -56.288514812246 Eh =   0.0000 eV, S^2 = 2.000000
    PQ-space CI Energy + EPT2 Root   0 = -56.288514812246 Eh =   0.0000 eV

  
  GAS Contribution Analysis  
  GAS contributions root 0: 
  GAS1_A    GASI_B    GAS2_A    GAS2_B        Cont  
     1         0         4         5        0.499999590  
     0         1         5         4        0.499999590  
     0         0         5         5        0.000000821  

           0                  10            0.000000821  
           1                  9            0.999999179  


  ==> Pruning the Q space <==

  Cycle 0 took: 0.061940 s

  ---------------------------------- Cycle 1 -----------------------------------


  ==> Diagonalizing the Hamiltonian in the P space <==

  Initial P space dimension: 68
  Spin-complete dimension of the P space: 68 determinants

  ==> Computing Coupling Lists <==
  --------------------------------
        α          0.001021 s
        β          0.001022 s
        αα         0.002109 s
        ββ         0.002647 s
        αβ         0.005568 s
  --------------------------------

  Davidson-Liu solver algorithm using SigmaVectorSparseList sigma algorithm

  Performing diagonalization of the H matrix
  Time spent diagonalizing H:   0.031298 s

    P-space  CI Energy Root   0        = -56.288514812246 Eh =   0.0000 eV, S^2 = 2.000000


  ==> Finding the Q space <==

  Using SR screening algorithm
  Time spent forming F space:             0.015067
  Time spent merging thread F spaces:             0.000094
  size of hash: 0
  Time spent building sorting list: 0.000038
  Size of F space: 0
  Time spent building the model space: 0.015636
  Spin-complete dimension of the PQ space: 68

  ==> Diagonalizing the Hamiltonian in the P + Q space <==

  Number of reference roots: 1

  ==> Computing Coupling Lists <==
  --------------------------------
        α          0.002095 s
        β          0.001082 s
        αα         0.002455 s
        ββ         0.004485 s
        αβ         0.009933 s
  --------------------------------

  Davidson-Liu solver algorithm using SigmaVectorSparseList sigma algorithm

  Performing diagonalization of the H matrix
  Total time spent diagonalizing H:   0.037939 s

    PQ-space CI Energy Root   0        = -56.288514812246 Eh =   0.0000 eV, S^2 = 2.000000
    PQ-space CI Energy + EPT2 Root   0 = -56.288514812246 Eh =   0.0000 eV

  
  GAS Contribution Analysis  
  GAS contributions root 0: 
  GAS1_A    GASI_B    GAS2_A    GAS2_B        Cont  
     1         0         4         5        0.499999590  
     0         1         5         4        0.499999590  
     0         0         5         5        0.000000821  

           0                  10            0.000000821  
           1                  9            0.999999179  

  ***** Calculation Converged *****

  ==> ACI Natural Orbitals <==


  ==> Computing Coupling Lists <==
  --------------------------------
        α          0.001170 s
        β          0.001056 s
        1B1     1.999910      1A1     1.999468      2A1     1.995360  
        1B2     1.976785      3A1     1.000976      4A1     0.999998  
        2B2     0.027503  

  ==> Excited state solver summary <==

  Iterations required:                         1
  Dimension of optimized determinant space:    68

  * Selected-CI Energy Root   0        = -56.288514812246 Eh =   0.0000 eV
  * Selected-CI Energy Root   0 + EPT2 = -56.288514812246 Eh =   0.0000 eV

  ==> Wavefunction Information <==

  Most important contributions to root   0:
    0  -0.679083 0.461153725          67 |+22-220>
    1   0.679083 0.461153725          66 |-22+220>
    2  -0.143813 0.020682189          65 |+22-2-+>
    3   0.143813 0.020682189          64 |-22+2+->
    4   0.081361 0.006619616          63 |+2-2220>
    5  -0.081361 0.006619616          62 |-2+2220>
    6  -0.070884 0.005024492          61 |+22-2+->
    7   0.070884 0.005024492          60 |-22+2-+>
    8   0.051128 0.002614030          59 |+-22220>
    9  -0.051128 0.002614030          58 |-+22220>

  Saving information for root: 0

  ==> Energy Summary <==

    Multi.(2ms)  Irrep.  No.               Energy
    ---------------------------------------------
       1  (  0)    A1     0      -56.288514812246
    ---------------------------------------------
 Weight 1.000000 

  ==> Computing Coupling Lists <==
  --------------------------------
        α          0.000003 s
        β          0.000003 s
        αα         0.000003 s
        ββ         0.000003 s
        αβ         0.000003 s
  --------------------------------

  ==> Computing Coupling Lists <==
  --------------------------------
        α          0.001078 s
        β          0.001057 s
  1-RDM  took 0.003715 s (determinant)
        αα         0.002516 s
        ββ         0.002036 s
        αβ         0.005475 s
  --------------------------------
  2-RDMS took 0.012524 s (determinant)

 CAS took 0.186618 seconds.

 FormFockIntermediates took 0.00190290 s.
  Active Orbitals Frozen:


 FormOrbitalGradient took 0.00117420 s.

 FormDiagHessian took 0.00095310 s.

 Update function takes 0.00421970 s
    2 0.038194632217    -0.434555164790   -56.288514812246    0.2 s       ~

  Transform Integrals takes 0.01271220 s.

  Performing a CAS with ACI

  ==> Summary of Active Space Solver Input <==

    Irrep.  Multi.(2ms)      N
    --------------------------
       A1      1  (  0)      1
    --------------------------
    N: number of roots
    ms: spin z component
    Total number of roots:   1
    --------------------------


-------------------------------------------------------------------------------
               Selected Configuration Interaction Excited States
  written by Jeffrey B. Schriber, Tianyuan Zhang and Francesco A. Evangelista
-------------------------------------------------------------------------------

  ==> Reference Information <==

  ==> Calculation Information <==

  -----------------------------------------------------------------
    Multiplicity                             1    
    Symmetry                                 0    
    Number of roots                          1    
    Ms                                       0
    Excited Algorithm                        NONE
  -----------------------------------------------------------------
  Using 1 threads
  Computing wavefunction for root 0

        ---------------------------------------------------------------
                      Adaptive Configuration Interaction
          written by Jeffrey B. Schriber and Francesco A. Evangelista
        ---------------------------------------------------------------

  ==> Reference Information <==

  There are 0 frozen orbitals.
  There are 7 active orbitals.

  ==> Calculation Information <==

  -----------------------------------------------------------------
    Multiplicity                             1    
    Symmetry                                 0    
    Number of roots                          1    
    Root used for properties                 0    
    Sigma (Eh)                               0.00e+00
    Gamma (Eh^(-1))                          1.00e+00
    Convergence threshold                    1.00e-09
    Ms                                       0
    Diagonalization algorithm                SPARSE
    Excited Algorithm                        NONE
    Project out spin contaminants            True
    Enforce spin completeness of basis       True
    Enforce complete aimed selection         True
  -----------------------------------------------------------------
  Number of active alpha electrons: 5
  Number of active beta electrons: 5
  Maximum reference space size: 1000
  The maximum number of electrons in GAS1 is 1
  The minimum number of electrons in GAS1 is 0
  The maximum number of electrons in GAS2 is 10 
  The minimum number of electrons in GAS2 is 0
  
  Possible electron occupations in the GAS 
  GAS1_A  GAS1_B  GAS2_A  GAS2_B  
     1       0       4       5    
     0       1       5       4    
     0       0       5       5    

  GAS Orbital Energies
  GAS   Energies    Orb 
  1  -20.568999574  0 
  2  -1.320609273  1 
  2  -0.563930450  2 
  2   0.202465902  3 
  2  -0.495003944  4 
  2  -0.678724187  5 
  2   0.292719335  6 

  ---------------------------------- Cycle 0 -----------------------------------


  ==> Diagonalizing the Hamiltonian in the P space <==

  Initial P space dimension: 68
  Spin-complete dimension of the P space: 68 determinants

  ==> Computing Coupling Lists <==
  --------------------------------
        α          0.001078 s
        β          0.001050 s
        αα         0.002334 s
        ββ         0.002310 s
        αβ         0.013251 s
  --------------------------------

  Davidson-Liu solver algorithm using SigmaVectorSparseList sigma algorithm

  Performing diagonalization of the H matrix
  Time spent diagonalizing H:   0.055092 s

    P-space  CI Energy Root   0        = -56.306481250879 Eh =   0.0000 eV, S^2 = 2.000000


  ==> Finding the Q space <==

  Using SR screening algorithm
  Time spent forming F space:             0.005315
  Time spent merging thread F spaces:             0.000076
  size of hash: 0
  Time spent building sorting list: 0.000083
  Size of F space: 0
  Time spent building the model space: 0.005792
  Spin-complete dimension of the PQ space: 68

  ==> Diagonalizing the Hamiltonian in the P + Q space <==

  Number of reference roots: 1

  ==> Computing Coupling Lists <==
  --------------------------------
        α          0.001786 s
        β          0.001773 s
        αα         0.003652 s
        ββ         0.003018 s
        αβ         0.005479 s
  --------------------------------

  Davidson-Liu solver algorithm using SigmaVectorSparseList sigma algorithm

  Performing diagonalization of the H matrix
  Total time spent diagonalizing H:   0.030128 s

    PQ-space CI Energy Root   0        = -56.306481250879 Eh =   0.0000 eV, S^2 = 2.000000
    PQ-space CI Energy + EPT2 Root   0 = -56.306481250879 Eh =   0.0000 eV

  
  GAS Contribution Analysis  
  GAS contributions root 0: 
  GAS1_A    GASI_B    GAS2_A    GAS2_B        Cont  
     1         0         4         5        0.499999639  
     0         1         5         4        0.499999639  
     0         0         5         5        0.000000723  

           0                  10            0.000000723  
           1                  9            0.999999277  


  ==> Pruning the Q space <==

  Cycle 0 took: 0.095573 s

  ---------------------------------- Cycle 1 -----------------------------------


  ==> Diagonalizing the Hamiltonian in the P space <==

  Initial P space dimension: 68
  Spin-complete dimension of the P space: 68 determinants

  ==> Computing Coupling Lists <==
  --------------------------------
        α          0.001500 s
        β          0.001942 s
        αα         0.002479 s
        ββ         0.002207 s
        αβ         0.005353 s
  --------------------------------

  Davidson-Liu solver algorithm using SigmaVectorSparseList sigma algorithm

  Performing diagonalization of the H matrix
  Time spent diagonalizing H:   0.027092 s

    P-space  CI Energy Root   0        = -56.306481250878 Eh =   0.0000 eV, S^2 = 2.000000


  ==> Finding the Q space <==

  Using SR screening algorithm
  Time spent forming F space:             0.005371
  Time spent merging thread F spaces:             0.000065
  size of hash: 0
  Time spent building sorting list: 0.000027
  Size of F space: 0
  Time spent building the model space: 0.005746
  Spin-complete dimension of the PQ space: 68

  ==> Diagonalizing the Hamiltonian in the P + Q space <==

  Number of reference roots: 1

  ==> Computing Coupling Lists <==
  --------------------------------
        α          0.001083 s
        β          0.001074 s
        αα         0.002110 s
        ββ         0.002426 s
        αβ         0.005656 s
  --------------------------------

  Davidson-Liu solver algorithm using SigmaVectorSparseList sigma algorithm

  Performing diagonalization of the H matrix
  Total time spent diagonalizing H:   0.026079 s

    PQ-space CI Energy Root   0        = -56.306481250878 Eh =   0.0000 eV, S^2 = 2.000000
    PQ-space CI Energy + EPT2 Root   0 = -56.306481250878 Eh =   0.0000 eV

  
  GAS Contribution Analysis  
  GAS contributions root 0: 
  GAS1_A    GASI_B    GAS2_A    GAS2_B        Cont  
     1         0         4         5        0.499999639  
     0         1         5         4        0.499999639  
     0         0         5         5        0.000000723  

           0                  10            0.000000723  
           1                  9            0.999999277  

  ***** Calculation Converged *****

  ==> ACI Natural Orbitals <==


  ==> Computing Coupling Lists <==
  --------------------------------
        α          0.001076 s
        β          0.001066 s
        1B1     1.999925      1A1     1.999489      2A1     1.994394  
        1B2     1.981022      3A1     1.000187      4A1     0.999990  
        2B2     0.024993  

  ==> Excited state solver summary <==

  Iterations required:                         1
  Dimension of optimized determinant space:    68

  * Selected-CI Energy Root   0        = -56.306481250878 Eh =   0.0000 eV
  * Selected-CI Energy Root   0 + EPT2 = -56.306481250878 Eh =   0.0000 eV

  ==> Wavefunction Information <==

  Most important contributions to root   0:
    0   0.676681 0.457897739          66 |-22+220>
    1  -0.676681 0.457897739          67 |+22-220>
    2   0.152263 0.023184047          65 |-22+2+->
    3  -0.152263 0.023184047          64 |+22-2-+>
    4   0.082886 0.006870143          62 |-22+2-+>
    5  -0.082886 0.006870143          63 |+22-2+->
    6  -0.078282 0.006128021          60 |-2+2220>
    7   0.078282 0.006128021          61 |+2-2220>
    8  -0.049974 0.002497405          58 |-+22220>
    9   0.049974 0.002497405          59 |+-22220>

  Saving information for root: 0

  ==> Energy Summary <==

    Multi.(2ms)  Irrep.  No.               Energy
    ---------------------------------------------
       1  (  0)    A1     0      -56.306481250878
    ---------------------------------------------
 Weight 1.000000 

  ==> Computing Coupling Lists <==
  --------------------------------
        α          0.000003 s
        β          0.000003 s
        αα         0.000003 s
        ββ         0.000003 s
        αβ         0.000003 s
  --------------------------------

  ==> Computing Coupling Lists <==
  --------------------------------
        α          0.001528 s
        β          0.001071 s
  1-RDM  took 0.004412 s (determinant)
        αα         0.002162 s
        ββ         0.002128 s
        αβ         0.005357 s
  --------------------------------
  2-RDMS took 0.012135 s (determinant)

 CAS took 0.186036 seconds.

 FormFockIntermediates took 0.00178570 s.
  Active Orbitals Frozen:


 FormOrbitalGradient took 0.00109320 s.

 FormDiagHessian took 0.00099220 s.

 Update function takes 0.00403080 s
    3 0.010761737319    -0.017966438633   -56.306481250878    0.2 s       ~

  Transform Integrals takes 0.01266870 s.

  Performing a CAS with ACI

  ==> Summary of Active Space Solver Input <==

    Irrep.  Multi.(2ms)      N
    --------------------------
       A1      1  (  0)      1
    --------------------------
    N: number of roots
    ms: spin z component
    Total number of roots:   1
    --------------------------


-------------------------------------------------------------------------------
               Selected Configuration Interaction Excited States
  written by Jeffrey B. Schriber, Tianyuan Zhang and Francesco A. Evangelista
-------------------------------------------------------------------------------

  ==> Reference Information <==

  ==> Calculation Information <==

  -----------------------------------------------------------------
    Multiplicity                             1    
    Symmetry                                 0    
    Number of roots                          1    
    Ms                                       0
    Excited Algorithm                        NONE
  -----------------------------------------------------------------
  Using 1 threads
  Computing wavefunction for root 0

        ---------------------------------------------------------------
                      Adaptive Configuration Interaction
          written by Jeffrey B. Schriber and Francesco A. Evangelista
        ---------------------------------------------------------------

  ==> Reference Information <==

  There are 0 frozen orbitals.
  There are 7 active orbitals.

  ==> Calculation Information <==

  -----------------------------------------------------------------
    Multiplicity                             1    
    Symmetry                                 0    
    Number of roots                          1    
    Root used for properties                 0    
    Sigma (Eh)                               0.00e+00
    Gamma (Eh^(-1))                          1.00e+00
    Convergence threshold                    1.00e-09
    Ms                                       0
    Diagonalization algorithm                SPARSE
    Excited Algorithm                        NONE
    Project out spin contaminants            True
    Enforce spin completeness of basis       True
    Enforce complete aimed selection         True
  -----------------------------------------------------------------
  Number of active alpha electrons: 5
  Number of active beta electrons: 5
  Maximum reference space size: 1000
  The maximum number of electrons in GAS1 is 1
  The minimum number of electrons in GAS1 is 0
  The maximum number of electrons in GAS2 is 10 
  The minimum number of electrons in GAS2 is 0
  
  Possible electron occupations in the GAS 
  GAS1_A  GAS1_B  GAS2_A  GAS2_B  
     1       0       4       5    
     0       1       5       4    
     0       0       5       5    

  GAS Orbital Energies
  GAS   Energies    Orb 
  1  -20.568999574  0 
  2  -1.320609273  1 
  2  -0.563930450  2 
  2   0.202465902  3 
  2  -0.495003944  4 
  2  -0.678724187  5 
  2   0.292719335  6 

  ---------------------------------- Cycle 0 -----------------------------------


  ==> Diagonalizing the Hamiltonian in the P space <==

  Initial P space dimension: 68
  Spin-complete dimension of the P space: 68 determinants

  ==> Computing Coupling Lists <==
  --------------------------------
        α          0.001080 s
        β          0.001133 s
        αα         0.002104 s
        ββ         0.002063 s
        αβ         0.005412 s
  --------------------------------

  Davidson-Liu solver algorithm using SigmaVectorSparseList sigma algorithm

  Performing diagonalization of the H matrix
  Time spent diagonalizing H:   0.025310 s

    P-space  CI Energy Root   0        = -56.308870088865 Eh =   0.0000 eV, S^2 = 2.000000


  ==> Finding the Q space <==

  Using SR screening algorithm
  Time spent forming F space:             0.004648
  Time spent merging thread F spaces:             0.000062
  size of hash: 0
  Time spent building sorting list: 0.000025
  Size of F space: 0
  Time spent building the model space: 0.005008
  Spin-complete dimension of the PQ space: 68

  ==> Diagonalizing the Hamiltonian in the P + Q space <==

  Number of reference roots: 1

  ==> Computing Coupling Lists <==
  --------------------------------
        α          0.001076 s
        β          0.001078 s
        αα         0.002400 s
        ββ         0.002054 s
        αβ         0.005364 s
  --------------------------------

  Davidson-Liu solver algorithm using SigmaVectorSparseList sigma algorithm

  Performing diagonalization of the H matrix
  Total time spent diagonalizing H:   0.025443 s

    PQ-space CI Energy Root   0        = -56.308870088865 Eh =   0.0000 eV, S^2 = 2.000000
    PQ-space CI Energy + EPT2 Root   0 = -56.308870088865 Eh =   0.0000 eV

  
  GAS Contribution Analysis  
  GAS contributions root 0: 
  GAS1_A    GASI_B    GAS2_A    GAS2_B        Cont  
     1         0         4         5        0.499999572  
     0         1         5         4        0.499999572  
     0         0         5         5        0.000000856  

           0                  10            0.000000856  
           1                  9            0.999999144  


  ==> Pruning the Q space <==

  Cycle 0 took: 0.060462 s

  ---------------------------------- Cycle 1 -----------------------------------


  ==> Diagonalizing the Hamiltonian in the P space <==

  Initial P space dimension: 68
  Spin-complete dimension of the P space: 68 determinants

  ==> Computing Coupling Lists <==
  --------------------------------
        α          0.001079 s
        β          0.001070 s
        αα         0.002104 s
        ββ         0.002127 s
        αβ         0.005363 s
  --------------------------------

  Davidson-Liu solver algorithm using SigmaVectorSparseList sigma algorithm

  Performing diagonalization of the H matrix
  Time spent diagonalizing H:   0.025149 s

    P-space  CI Energy Root   0        = -56.308870088865 Eh =   0.0000 eV, S^2 = 2.000000


  ==> Finding the Q space <==

  Using SR screening algorithm
  Time spent forming F space:             0.004770
  Time spent merging thread F spaces:             0.000062
  size of hash: 0
  Time spent building sorting list: 0.000025
  Size of F space: 0
  Time spent building the model space: 0.005079
  Spin-complete dimension of the PQ space: 68

  ==> Diagonalizing the Hamiltonian in the P + Q space <==

  Number of reference roots: 1

  ==> Computing Coupling Lists <==
  --------------------------------
        α          0.001105 s
        β          0.001088 s
        αα         0.002101 s
        ββ         0.002117 s
        αβ         0.005446 s
  --------------------------------

  Davidson-Liu solver algorithm using SigmaVectorSparseList sigma algorithm

  Performing diagonalization of the H matrix
  Total time spent diagonalizing H:   0.025245 s

    PQ-space CI Energy Root   0        = -56.308870088865 Eh =   0.0000 eV, S^2 = 2.000000
    PQ-space CI Energy + EPT2 Root   0 = -56.308870088865 Eh =   0.0000 eV

  
  GAS Contribution Analysis  
  GAS contributions root 0: 
  GAS1_A    GASI_B    GAS2_A    GAS2_B        Cont  
     1         0         4         5        0.499999572  
     0         1         5         4        0.499999572  
     0         0         5         5        0.000000856  

           0                  10            0.000000856  
           1                  9            0.999999144  

  ***** Calculation Converged *****

  ==> ACI Natural Orbitals <==


  ==> Computing Coupling Lists <==
  --------------------------------
        α          0.001250 s
        β          0.001094 s
        1B1     1.999910      1A1     1.999424      2A1     1.994035  
        1B2     1.977998      3A1     1.000609      4A1     0.999996  
        2B2     0.028029  

  ==> Excited state solver summary <==

  Iterations required:                         1
  Dimension of optimized determinant space:    68

  * Selected-CI Energy Root   0        = -56.308870088865 Eh =   0.0000 eV
  * Selected-CI Energy Root   0 + EPT2 = -56.308870088865 Eh =   0.0000 eV

  ==> Wavefunction Information <==

  Most important contributions to root   0:
    0   0.676687 0.457904898          66 |+22-220>
    1  -0.676687 0.457904898          67 |-22+220>
    2   0.152895 0.023376762          64 |+22-2-+>
    3  -0.152895 0.023376762          65 |-22+2+->
    4   0.080807 0.006529777          62 |+22-2+->
    5  -0.080807 0.006529777          63 |-22+2-+>
    6  -0.076564 0.005862020          60 |+2-2220>
    7   0.076564 0.005862020          61 |-2+2220>
    8  -0.048860 0.002387272          58 |+-22220>
    9   0.048860 0.002387272          59 |-+22220>

  Saving information for root: 0

  ==> Energy Summary <==

    Multi.(2ms)  Irrep.  No.               Energy
    ---------------------------------------------
       1  (  0)    A1     0      -56.308870088865
    ---------------------------------------------
 Weight 1.000000 

  ==> Computing Coupling Lists <==
  --------------------------------
        α          0.000003 s
        β          0.000003 s
        αα         0.000003 s
        ββ         0.000003 s
        αβ         0.000003 s
  --------------------------------

  ==> Computing Coupling Lists <==
  --------------------------------
        α          0.001112 s
        β          0.001112 s
  1-RDM  took 0.003733 s (determinant)
        αα         0.002119 s
        ββ         0.002028 s
        αβ         0.005333 s
  --------------------------------
  2-RDMS took 0.011930 s (determinant)

 CAS took 0.146672 seconds.

 FormFockIntermediates took 0.00166730 s.
  Active Orbitals Frozen:


 FormOrbitalGradient took 0.00115830 s.

 FormDiagHessian took 0.00095080 s.

 Update function takes 0.00394170 s
    4 0.009159072419    -0.002388837987   -56.308870088865    0.2 s       ~

  Transform Integrals takes 0.01265620 s.

  Performing a CAS with ACI

  ==> Summary of Active Space Solver Input <==

    Irrep.  Multi.(2ms)      N
    --------------------------
       A1      1  (  0)      1
    --------------------------
    N: number of roots
    ms: spin z component
    Total number of roots:   1
    --------------------------


-------------------------------------------------------------------------------
               Selected Configuration Interaction Excited States
  written by Jeffrey B. Schriber, Tianyuan Zhang and Francesco A. Evangelista
-------------------------------------------------------------------------------

  ==> Reference Information <==

  ==> Calculation Information <==

  -----------------------------------------------------------------
    Multiplicity                             1    
    Symmetry                                 0    
    Number of roots                          1    
    Ms                                       0
    Excited Algorithm                        NONE
  -----------------------------------------------------------------
  Using 1 threads
  Computing wavefunction for root 0

        ---------------------------------------------------------------
                      Adaptive Configuration Interaction
          written by Jeffrey B. Schriber and Francesco A. Evangelista
        ---------------------------------------------------------------

  ==> Reference Information <==

  There are 0 frozen orbitals.
  There are 7 active orbitals.

  ==> Calculation Information <==

  -----------------------------------------------------------------
    Multiplicity                             1    
    Symmetry                                 0    
    Number of roots                          1    
    Root used for properties                 0    
    Sigma (Eh)                               0.00e+00
    Gamma (Eh^(-1))                          1.00e+00
    Convergence threshold                    1.00e-09
    Ms                                       0
    Diagonalization algorithm                SPARSE
    Excited Algorithm                        NONE
    Project out spin contaminants            True
    Enforce spin completeness of basis       True
    Enforce complete aimed selection         True
  -----------------------------------------------------------------
  Number of active alpha electrons: 5
  Number of active beta electrons: 5
  Maximum reference space size: 1000
  The maximum number of electrons in GAS1 is 1
  The minimum number of electrons in GAS1 is 0
  The maximum number of electrons in GAS2 is 10 
  The minimum number of electrons in GAS2 is 0
  
  Possible electron occupations in the GAS 
  GAS1_A  GAS1_B  GAS2_A  GAS2_B  
     1       0       4       5    
     0       1       5       4    
     0       0       5       5    

  GAS Orbital Energies
  GAS   Energies    Orb 
  1  -20.568999574  0 
  2  -1.320609273  1 
  2  -0.563930450  2 
  2   0.202465902  3 
  2  -0.495003944  4 
  2  -0.678724187  5 
  2   0.292719335  6 

  ---------------------------------- Cycle 0 -----------------------------------


  ==> Diagonalizing the Hamiltonian in the P space <==

  Initial P space dimension: 68
  Spin-complete dimension of the P space: 68 determinants

  ==> Computing Coupling Lists <==
  --------------------------------
        α          0.001120 s
        β          0.001169 s
        αα         0.002254 s
        ββ         0.002116 s
        αβ         0.005391 s
  --------------------------------

  Davidson-Liu solver algorithm using SigmaVectorSparseList sigma algorithm

  Performing diagonalization of the H matrix
  Time spent diagonalizing H:   0.025632 s

    P-space  CI Energy Root   0        = -56.310288980943 Eh =   0.0000 eV, S^2 = 2.000000


  ==> Finding the Q space <==

  Using SR screening algorithm
  Time spent forming F space:             0.004656
  Time spent merging thread F spaces:             0.000062
  size of hash: 0
  Time spent building sorting list: 0.000025
  Size of F space: 0
  Time spent building the model space: 0.004973
  Spin-complete dimension of the PQ space: 68

  ==> Diagonalizing the Hamiltonian in the P + Q space <==

  Number of reference roots: 1

  ==> Computing Coupling Lists <==
  --------------------------------
        α          0.001221 s
        β          0.001165 s
        αα         0.002286 s
        ββ         0.002284 s
        αβ         0.005313 s
  --------------------------------

  Davidson-Liu solver algorithm using SigmaVectorSparseList sigma algorithm

  Performing diagonalization of the H matrix
  Total time spent diagonalizing H:   0.028265 s

    PQ-space CI Energy Root   0        = -56.310288980943 Eh =   0.0000 eV, S^2 = 2.000000
    PQ-space CI Energy + EPT2 Root   0 = -56.310288980943 Eh =   0.0000 eV

  
  GAS Contribution Analysis  
  GAS contributions root 0: 
  GAS1_A    GASI_B    GAS2_A    GAS2_B        Cont  
     1         0         4         5        0.499999550  
     0         1         5         4        0.499999550  
     0         0         5         5        0.000000900  

           0                  10            0.000000900  
           1                  9            0.999999100  


  ==> Pruning the Q space <==

  Cycle 0 took: 0.063121 s

  ---------------------------------- Cycle 1 -----------------------------------


  ==> Diagonalizing the Hamiltonian in the P space <==

  Initial P space dimension: 68
  Spin-complete dimension of the P space: 68 determinants

  ==> Computing Coupling Lists <==
  --------------------------------
        α          0.001168 s
        β          0.001062 s
        αα         0.002175 s
        ββ         0.002087 s
        αβ         0.005382 s
  --------------------------------

  Davidson-Liu solver algorithm using SigmaVectorSparseList sigma algorithm

  Performing diagonalization of the H matrix
  Time spent diagonalizing H:   0.025406 s

    P-space  CI Energy Root   0        = -56.310288980943 Eh =   0.0000 eV, S^2 = 2.000000


  ==> Finding the Q space <==

  Using SR screening algorithm
  Time spent forming F space:             0.004785
  Time spent merging thread F spaces:             0.000064
  size of hash: 0
  Time spent building sorting list: 0.000026
  Size of F space: 0
  Time spent building the model space: 0.005125
  Spin-complete dimension of the PQ space: 68

  ==> Diagonalizing the Hamiltonian in the P + Q space <==

  Number of reference roots: 1

  ==> Computing Coupling Lists <==
  --------------------------------
        α          0.001129 s
        β          0.001079 s
        αα         0.002184 s
        ββ         0.002025 s
        αβ         0.005585 s
  --------------------------------

  Davidson-Liu solver algorithm using SigmaVectorSparseList sigma algorithm

  Performing diagonalization of the H matrix
  Total time spent diagonalizing H:   0.027000 s

    PQ-space CI Energy Root   0        = -56.310288980943 Eh =   0.0000 eV, S^2 = 2.000000
    PQ-space CI Energy + EPT2 Root   0 = -56.310288980943 Eh =   0.0000 eV

  
  GAS Contribution Analysis  
  GAS contributions root 0: 
  GAS1_A    GASI_B    GAS2_A    GAS2_B        Cont  
     1         0         4         5        0.499999550  
     0         1         5         4        0.499999550  
     0         0         5         5        0.000000900  

           0                  10            0.000000900  
           1                  9            0.999999100  

  ***** Calculation Converged *****

  ==> ACI Natural Orbitals <==


  ==> Computing Coupling Lists <==
  --------------------------------
        α          0.001766 s
        β          0.001772 s
        1B1     1.999904      1A1     1.999414      2A1     1.994085  
        1B2     1.977685      3A1     1.000679      4A1     0.999997  
        2B2     0.028235  

  ==> Excited state solver summary <==

  Iterations required:                         1
  Dimension of optimized determinant space:    68

  * Selected-CI Energy Root   0        = -56.310288980943 Eh =   0.0000 eV
  * Selected-CI Energy Root   0 + EPT2 = -56.310288980943 Eh =   0.0000 eV

  ==> Wavefunction Information <==

  Most important contributions to root   0:
    0  -0.675314 0.456049457          66 |+22-220>
    1   0.675314 0.456049457          67 |-22+220>
    2  -0.156339 0.024442028          64 |+22-2-+>
    3   0.156339 0.024442028          65 |-22+2+->
    4  -0.084841 0.007197967          62 |+22-2+->
    5   0.084841 0.007197967          63 |-22+2-+>
    6   0.077496 0.006005559          60 |+2-2220>
    7  -0.077496 0.006005559          61 |-2+2220>
    8   0.049385 0.002438878          58 |+-22220>
    9  -0.049385 0.002438878          59 |-+22220>

  Saving information for root: 0

  ==> Energy Summary <==

    Multi.(2ms)  Irrep.  No.               Energy
    ---------------------------------------------
       1  (  0)    A1     0      -56.310288980943
    ---------------------------------------------
 Weight 1.000000 

  ==> Computing Coupling Lists <==
  --------------------------------
        α          0.000003 s
        β          0.000003 s
        αα         0.000003 s
        ββ         0.000003 s
        αβ         0.000003 s
  --------------------------------

  ==> Computing Coupling Lists <==
  --------------------------------
        α          0.001782 s
        β          0.001765 s
  1-RDM  took 0.006056 s (determinant)
        αα         0.002274 s
        ββ         0.002115 s
        αβ         0.005512 s
  --------------------------------
  2-RDMS took 0.012758 s (determinant)

 CAS took 0.158886 seconds.

 FormFockIntermediates took 0.00183410 s.
  Active Orbitals Frozen:


 FormOrbitalGradient took 0.00138960 s.

 FormDiagHessian took 0.00101070 s.

 Update function takes 0.00441370 s
    5 0.006125778746    -0.001418892078   -56.310288980943    0.2 s       ~

  Transform Integrals takes 0.01321190 s.

  Performing a CAS with ACI

  ==> Summary of Active Space Solver Input <==

    Irrep.  Multi.(2ms)      N
    --------------------------
       A1      1  (  0)      1
    --------------------------
    N: number of roots
    ms: spin z component
    Total number of roots:   1
    --------------------------


-------------------------------------------------------------------------------
               Selected Configuration Interaction Excited States
  written by Jeffrey B. Schriber, Tianyuan Zhang and Francesco A. Evangelista
-------------------------------------------------------------------------------

  ==> Reference Information <==

  ==> Calculation Information <==

  -----------------------------------------------------------------
    Multiplicity                             1    
    Symmetry                                 0    
    Number of roots                          1    
    Ms                                       0
    Excited Algorithm                        NONE
  -----------------------------------------------------------------
  Using 1 threads
  Computing wavefunction for root 0

        ---------------------------------------------------------------
                      Adaptive Configuration Interaction
          written by Jeffrey B. Schriber and Francesco A. Evangelista
        ---------------------------------------------------------------

  ==> Reference Information <==

  There are 0 frozen orbitals.
  There are 7 active orbitals.

  ==> Calculation Information <==

  -----------------------------------------------------------------
    Multiplicity                             1    
    Symmetry                                 0    
    Number of roots                          1    
    Root used for properties                 0    
    Sigma (Eh)                               0.00e+00
    Gamma (Eh^(-1))                          1.00e+00
    Convergence threshold                    1.00e-09
    Ms                                       0
    Diagonalization algorithm                SPARSE
    Excited Algorithm                        NONE
    Project out spin contaminants            True
    Enforce spin completeness of basis       True
    Enforce complete aimed selection         True
  -----------------------------------------------------------------
  Number of active alpha electrons: 5
  Number of active beta electrons: 5
  Maximum reference space size: 1000
  The maximum number of electrons in GAS1 is 1
  The minimum number of electrons in GAS1 is 0
  The maximum number of electrons in GAS2 is 10 
  The minimum number of electrons in GAS2 is 0
  
  Possible electron occupations in the GAS 
  GAS1_A  GAS1_B  GAS2_A  GAS2_B  
     1       0       4       5    
     0       1       5       4    
     0       0       5       5    

  GAS Orbital Energies
  GAS   Energies    Orb 
  1  -20.568999574  0 
  2  -1.320609273  1 
  2  -0.563930450  2 
  2   0.202465902  3 
  2  -0.495003944  4 
  2  -0.678724187  5 
  2   0.292719335  6 

  ---------------------------------- Cycle 0 -----------------------------------


  ==> Diagonalizing the Hamiltonian in the P space <==

  Initial P space dimension: 68
  Spin-complete dimension of the P space: 68 determinants

  ==> Computing Coupling Lists <==
  --------------------------------
        α          0.001166 s
        β          0.001203 s
        αα         0.002110 s
        ββ         0.002574 s
        αβ         0.005391 s
  --------------------------------

  Davidson-Liu solver algorithm using SigmaVectorSparseList sigma algorithm

  Performing diagonalization of the H matrix
  Time spent diagonalizing H:   0.027155 s

    P-space  CI Energy Root   0        = -56.311190432115 Eh =   0.0000 eV, S^2 = 2.000000


  ==> Finding the Q space <==

  Using SR screening algorithm
  Time spent forming F space:             0.007597
  Time spent merging thread F spaces:             0.000090
  size of hash: 0
  Time spent building sorting list: 0.000065
  Size of F space: 0
  Time spent building the model space: 0.008087
  Spin-complete dimension of the PQ space: 68

  ==> Diagonalizing the Hamiltonian in the P + Q space <==

  Number of reference roots: 1

  ==> Computing Coupling Lists <==
  --------------------------------
        α          0.001776 s
        β          0.001775 s
        αα         0.003730 s
        ββ         0.003689 s
        αβ         0.009323 s
  --------------------------------

  Davidson-Liu solver algorithm using SigmaVectorSparseList sigma algorithm

  Performing diagonalization of the H matrix
  Total time spent diagonalizing H:   0.038083 s

    PQ-space CI Energy Root   0        = -56.311190432115 Eh =   0.0000 eV, S^2 = 2.000000
    PQ-space CI Energy + EPT2 Root   0 = -56.311190432115 Eh =   0.0000 eV

  
  GAS Contribution Analysis  
  GAS contributions root 0: 
  GAS1_A    GASI_B    GAS2_A    GAS2_B        Cont  
     1         0         4         5        0.499999525  
     0         1         5         4        0.499999525  
     0         0         5         5        0.000000951  

           0                  10            0.000000951  
           1                  9            0.999999049  


  ==> Pruning the Q space <==

  Cycle 0 took: 0.079699 s

  ---------------------------------- Cycle 1 -----------------------------------


  ==> Diagonalizing the Hamiltonian in the P space <==

  Initial P space dimension: 68
  Spin-complete dimension of the P space: 68 determinants

  ==> Computing Coupling Lists <==
  --------------------------------
        α          0.001725 s
        β          0.001730 s
        αα         0.003805 s
        ββ         0.004016 s
        αβ         0.005547 s
  --------------------------------

  Davidson-Liu solver algorithm using SigmaVectorSparseList sigma algorithm

  Performing diagonalization of the H matrix
  Time spent diagonalizing H:   0.031303 s

    P-space  CI Energy Root   0        = -56.311190432114 Eh =   0.0000 eV, S^2 = 2.000000


  ==> Finding the Q space <==

  Using SR screening algorithm
  Time spent forming F space:             0.005010
  Time spent merging thread F spaces:             0.000071
  size of hash: 0
  Time spent building sorting list: 0.000028
  Size of F space: 0
  Time spent building the model space: 0.005362
  Spin-complete dimension of the PQ space: 68

  ==> Diagonalizing the Hamiltonian in the P + Q space <==

  Number of reference roots: 1

  ==> Computing Coupling Lists <==
  --------------------------------
        α          0.001143 s
        β          0.001125 s
        αα         0.002250 s
        ββ         0.002456 s
        αβ         0.005389 s
  --------------------------------

  Davidson-Liu solver algorithm using SigmaVectorSparseList sigma algorithm

  Performing diagonalization of the H matrix
  Total time spent diagonalizing H:   0.029252 s

    PQ-space CI Energy Root   0        = -56.311190432114 Eh =   0.0000 eV, S^2 = 2.000000
    PQ-space CI Energy + EPT2 Root   0 = -56.311190432114 Eh =   0.0000 eV

  
  GAS Contribution Analysis  
  GAS contributions root 0: 
  GAS1_A    GASI_B    GAS2_A    GAS2_B        Cont  
     1         0         4         5        0.499999525  
     0         1         5         4        0.499999525  
     0         0         5         5        0.000000951  

           0                  10            0.000000951  
           1                  9            0.999999049  

  ***** Calculation Converged *****

  ==> ACI Natural Orbitals <==


  ==> Computing Coupling Lists <==
  --------------------------------
        α          0.001948 s
        β          0.001981 s
[...]
-------------------------------------------------------------------------------

  ==> Reference Information <==

  ==> Calculation Information <==

  -----------------------------------------------------------------
    Multiplicity                             1    
    Symmetry                                 0    
    Number of roots                          1    
    Ms                                       0
    Excited Algorithm                        NONE
  -----------------------------------------------------------------
  Using 1 threads
  Computing wavefunction for root 0

        ---------------------------------------------------------------
                      Adaptive Configuration Interaction
          written by Jeffrey B. Schriber and Francesco A. Evangelista
        ---------------------------------------------------------------

  ==> Reference Information <==

  There are 0 frozen orbitals.
  There are 7 active orbitals.

  ==> Calculation Information <==

  -----------------------------------------------------------------
    Multiplicity                             1    
    Symmetry                                 0    
    Number of roots                          1    
    Root used for properties                 0    
    Sigma (Eh)                               0.00e+00
    Gamma (Eh^(-1))                          1.00e+00
    Convergence threshold                    1.00e-09
    Ms                                       0
    Diagonalization algorithm                SPARSE
    Excited Algorithm                        NONE
    Project out spin contaminants            True
    Enforce spin completeness of basis       True
    Enforce complete aimed selection         True
  -----------------------------------------------------------------
  Number of active alpha electrons: 5
  Number of active beta electrons: 5
  Maximum reference space size: 1000
  The maximum number of electrons in GAS1 is 1
  The minimum number of electrons in GAS1 is 0
  The maximum number of electrons in GAS2 is 10 
  The minimum number of electrons in GAS2 is 0
  
  Possible electron occupations in the GAS 
  GAS1_A  GAS1_B  GAS2_A  GAS2_B  
     1       0       4       5    
     0       1       5       4    
     0       0       5       5    

  GAS Orbital Energies
  GAS   Energies    Orb 
  1  -20.568999574  0 
  2  -1.320609273  1 
  2  -0.563930450  2 
  2   0.202465902  3 
  2  -0.495003944  4 
  2  -0.678724187  5 
  2   0.292719335  6 

  ---------------------------------- Cycle 0 -----------------------------------


  ==> Diagonalizing the Hamiltonian in the P space <==

  Initial P space dimension: 68
  Spin-complete dimension of the P space: 68 determinants

  ==> Computing Coupling Lists <==
  --------------------------------
        α          0.002243 s
        β          0.002026 s
        αα         0.004190 s
        ββ         0.002754 s
        αβ         0.007482 s
  --------------------------------

  Davidson-Liu solver algorithm using SigmaVectorSparseList sigma algorithm

  Performing diagonalization of the H matrix
  Time spent diagonalizing H:   0.037040 s

    P-space  CI Energy Root   0        = -56.313528162305 Eh =   0.0000 eV, S^2 = 2.000000


  ==> Finding the Q space <==

  Using SR screening algorithm
  Time spent forming F space:             0.005853
  Time spent merging thread F spaces:             0.000075
  size of hash: 0
  Time spent building sorting list: 0.000033
  Size of F space: 0
  Time spent building the model space: 0.006286
  Spin-complete dimension of the PQ space: 68

  ==> Diagonalizing the Hamiltonian in the P + Q space <==

  Number of reference roots: 1

  ==> Computing Coupling Lists <==
  --------------------------------
        α          0.001508 s
        β          0.001252 s
        αα         0.002592 s
        ββ         0.002720 s
        αβ         0.006503 s
  --------------------------------

  Davidson-Liu solver algorithm using SigmaVectorSparseList sigma algorithm

  Performing diagonalization of the H matrix
  Total time spent diagonalizing H:   0.030555 s

    PQ-space CI Energy Root   0        = -56.313528162305 Eh =   0.0000 eV, S^2 = 2.000000
    PQ-space CI Energy + EPT2 Root   0 = -56.313528162305 Eh =   0.0000 eV

  
  GAS Contribution Analysis  
  GAS contributions root 0: 
  GAS1_A    GASI_B    GAS2_A    GAS2_B        Cont  
     1         0         4         5        0.499999405  
     0         1         5         4        0.499999405  
     0         0         5         5        0.000001190  

           0                  10            0.000001190  
           1                  9            0.999998810  


  ==> Pruning the Q space <==

  Cycle 0 took: 0.079307 s

  ---------------------------------- Cycle 1 -----------------------------------


  ==> Diagonalizing the Hamiltonian in the P space <==

  Initial P space dimension: 68
  Spin-complete dimension of the P space: 68 determinants

  ==> Computing Coupling Lists <==
  --------------------------------
        α          0.001262 s
        β          0.001351 s
        αα         0.002374 s
        ββ         0.002607 s
        αβ         0.006232 s
  --------------------------------

  Davidson-Liu solver algorithm using SigmaVectorSparseList sigma algorithm

  Performing diagonalization of the H matrix
  Time spent diagonalizing H:   0.031177 s

    P-space  CI Energy Root   0        = -56.313528162305 Eh =   0.0000 eV, S^2 = 2.000000


  ==> Finding the Q space <==

  Using SR screening algorithm
  Time spent forming F space:             0.021383
  Time spent merging thread F spaces:             0.000172
  size of hash: 0
  Time spent building sorting list: 0.000048
  Size of F space: 0
  Time spent building the model space: 0.022051
  Spin-complete dimension of the PQ space: 68

  ==> Diagonalizing the Hamiltonian in the P + Q space <==

  Number of reference roots: 1

  ==> Computing Coupling Lists <==
  --------------------------------
        α          0.001234 s
        β          0.001381 s
        αα         0.002596 s
        ββ         0.002424 s
        αβ         0.007323 s
  --------------------------------

  Davidson-Liu solver algorithm using SigmaVectorSparseList sigma algorithm

  Performing diagonalization of the H matrix
  Total time spent diagonalizing H:   0.030918 s

    PQ-space CI Energy Root   0        = -56.313528162305 Eh =   0.0000 eV, S^2 = 2.000000
    PQ-space CI Energy + EPT2 Root   0 = -56.313528162305 Eh =   0.0000 eV

  
  GAS Contribution Analysis  
  GAS contributions root 0: 
  GAS1_A    GASI_B    GAS2_A    GAS2_B        Cont  
     1         0         4         5        0.499999405  
     0         1         5         4        0.499999405  
     0         0         5         5        0.000001190  

           0                  10            0.000001190  
           1                  9            0.999998810  

  ***** Calculation Converged *****

  ==> ACI Natural Orbitals <==


  ==> Computing Coupling Lists <==
  --------------------------------
        α          0.001355 s
        β          0.001231 s
        1B1     1.999886      1A1     1.999394      2A1     1.995295  
        1B2     1.978505      3A1     1.001567      4A1     0.999999  
        2B2     0.025354  

  ==> Excited state solver summary <==

  Iterations required:                         1
  Dimension of optimized determinant space:    68

  * Selected-CI Energy Root   0        = -56.313528162305 Eh =   0.0000 eV
  * Selected-CI Energy Root   0 + EPT2 = -56.313528162305 Eh =   0.0000 eV

  ==> Wavefunction Information <==

  Most important contributions to root   0:
    0  -0.668914 0.447446338          67 |-22+220>
    1   0.668914 0.447446338          66 |+22-220>
    2  -0.170719 0.029144989          65 |-22+2+->
    3   0.170719 0.029144989          64 |+22-2-+>
    4  -0.109288 0.011943804          63 |-22+2-+>
    5   0.109288 0.011943804          62 |+22-2+->
    6   0.078956 0.006234103          61 |-2+2220>
    7  -0.078956 0.006234103          60 |+2-2220>
    8   0.049148 0.002415502          59 |-+22220>
    9  -0.049148 0.002415502          58 |+-22220>

  Saving information for root: 0

  ==> Energy Summary <==

    Multi.(2ms)  Irrep.  No.               Energy
    ---------------------------------------------
       1  (  0)    A1     0      -56.313528162305
    ---------------------------------------------
 Weight 1.000000 

  ==> Computing Coupling Lists <==
  --------------------------------
        α          0.000003 s
        β          0.000003 s
        αα         0.000003 s
        ββ         0.000003 s
        αβ         0.000003 s
  --------------------------------

  ==> Computing Coupling Lists <==
  --------------------------------
        α          0.001249 s
        β          0.001231 s
  1-RDM  took 0.004282 s (determinant)
        αα         0.010893 s
        ββ         0.004157 s
        αβ         0.006327 s
  --------------------------------
  2-RDMS took 0.024740 s (determinant)

 CAS took 0.213839 seconds.

 FormFockIntermediates took 0.00212250 s.
  Active Orbitals Frozen:


 FormOrbitalGradient took 0.00133710 s.

 FormDiagHessian took 0.00110010 s.

 Update function takes 0.00477280 s
   27 0.000000741381    -0.000000000405   -56.313528162305    0.2 s  DIIS ~

  Transform Integrals takes 0.01518750 s.

  Performing a CAS with ACI

  ==> Summary of Active Space Solver Input <==

    Irrep.  Multi.(2ms)      N
    --------------------------
       A1      1  (  0)      1
    --------------------------
    N: number of roots
    ms: spin z component
    Total number of roots:   1
    --------------------------


-------------------------------------------------------------------------------
               Selected Configuration Interaction Excited States
  written by Jeffrey B. Schriber, Tianyuan Zhang and Francesco A. Evangelista
-------------------------------------------------------------------------------

  ==> Reference Information <==

  ==> Calculation Information <==

  -----------------------------------------------------------------
    Multiplicity                             1    
    Symmetry                                 0    
    Number of roots                          1    
    Ms                                       0
    Excited Algorithm                        NONE
  -----------------------------------------------------------------
  Using 1 threads
  Computing wavefunction for root 0

        ---------------------------------------------------------------
                      Adaptive Configuration Interaction
          written by Jeffrey B. Schriber and Francesco A. Evangelista
        ---------------------------------------------------------------

  ==> Reference Information <==

  There are 0 frozen orbitals.
  There are 7 active orbitals.

  ==> Calculation Information <==

  -----------------------------------------------------------------
    Multiplicity                             1    
    Symmetry                                 0    
    Number of roots                          1    
    Root used for properties                 0    
    Sigma (Eh)                               0.00e+00
    Gamma (Eh^(-1))                          1.00e+00
    Convergence threshold                    1.00e-09
    Ms                                       0
    Diagonalization algorithm                SPARSE
    Excited Algorithm                        NONE
    Project out spin contaminants            True
    Enforce spin completeness of basis       True
    Enforce complete aimed selection         True
  -----------------------------------------------------------------
  Number of active alpha electrons: 5
  Number of active beta electrons: 5
  Maximum reference space size: 1000
  The maximum number of electrons in GAS1 is 1
  The minimum number of electrons in GAS1 is 0
  The maximum number of electrons in GAS2 is 10 
  The minimum number of electrons in GAS2 is 0
  
  Possible electron occupations in the GAS 
  GAS1_A  GAS1_B  GAS2_A  GAS2_B  
     1       0       4       5    
     0       1       5       4    
     0       0       5       5    

  GAS Orbital Energies
  GAS   Energies    Orb 
  1  -20.568999574  0 
  2  -1.320609273  1 
  2  -0.563930450  2 
  2   0.202465902  3 
  2  -0.495003944  4 
  2  -0.678724187  5 
  2   0.292719335  6 

  ---------------------------------- Cycle 0 -----------------------------------


  ==> Diagonalizing the Hamiltonian in the P space <==

  Initial P space dimension: 68
  Spin-complete dimension of the P space: 68 determinants

  ==> Computing Coupling Lists <==
  --------------------------------
        α          0.001361 s
        β          0.001329 s
        αα         0.002654 s
        ββ         0.010933 s
        αβ         0.022864 s
  --------------------------------

  Davidson-Liu solver algorithm using SigmaVectorSparseList sigma algorithm

  Performing diagonalization of the H matrix
  Time spent diagonalizing H:   0.056067 s

    P-space  CI Energy Root   0        = -56.313528162276 Eh =   0.0000 eV, S^2 = 2.000000


  ==> Finding the Q space <==

  Using SR screening algorithm
  Time spent forming F space:             0.006438
  Time spent merging thread F spaces:             0.000125
  size of hash: 0
  Time spent building sorting list: 0.000032
  Size of F space: 0
  Time spent building the model space: 0.006966
  Spin-complete dimension of the PQ space: 68

  ==> Diagonalizing the Hamiltonian in the P + Q space <==

  Number of reference roots: 1

  ==> Computing Coupling Lists <==
  --------------------------------
        α          0.001652 s
        β          0.003924 s
        αα         0.008540 s
        ββ         0.002653 s
        αβ         0.010228 s
  --------------------------------

  Davidson-Liu solver algorithm using SigmaVectorSparseList sigma algorithm

  Performing diagonalization of the H matrix
  Total time spent diagonalizing H:   0.046338 s

    PQ-space CI Energy Root   0        = -56.313528162276 Eh =   0.0000 eV, S^2 = 2.000000
    PQ-space CI Energy + EPT2 Root   0 = -56.313528162276 Eh =   0.0000 eV

  
  GAS Contribution Analysis  
  GAS contributions root 0: 
  GAS1_A    GASI_B    GAS2_A    GAS2_B        Cont  
     1         0         4         5        0.499999405  
     0         1         5         4        0.499999405  
     0         0         5         5        0.000001190  

           0                  10            0.000001190  
           1                  9            0.999998810  


  ==> Pruning the Q space <==

  Cycle 0 took: 0.116896 s

  ---------------------------------- Cycle 1 -----------------------------------


  ==> Diagonalizing the Hamiltonian in the P space <==

  Initial P space dimension: 68
  Spin-complete dimension of the P space: 68 determinants

  ==> Computing Coupling Lists <==
  --------------------------------
        α          0.002067 s
        β          0.001529 s
        αα         0.002462 s
        ββ         0.002765 s
        αβ         0.006545 s
  --------------------------------

  Davidson-Liu solver algorithm using SigmaVectorSparseList sigma algorithm

  Performing diagonalization of the H matrix
  Time spent diagonalizing H:   0.031727 s

    P-space  CI Energy Root   0        = -56.313528162276 Eh =   0.0000 eV, S^2 = 2.000000


  ==> Finding the Q space <==

  Using SR screening algorithm
  Time spent forming F space:             0.005636
  Time spent merging thread F spaces:             0.000074
  size of hash: 0
  Time spent building sorting list: 0.000030
  Size of F space: 0
  Time spent building the model space: 0.006020
  Spin-complete dimension of the PQ space: 68

  ==> Diagonalizing the Hamiltonian in the P + Q space <==

  Number of reference roots: 1

  ==> Computing Coupling Lists <==
  --------------------------------
        α          0.001221 s
        β          0.001446 s
        αα         0.002384 s
        ββ         0.002315 s
        αβ         0.006923 s
  --------------------------------

  Davidson-Liu solver algorithm using SigmaVectorSparseList sigma algorithm

  Performing diagonalization of the H matrix
  Total time spent diagonalizing H:   0.031026 s

    PQ-space CI Energy Root   0        = -56.313528162276 Eh =   0.0000 eV, S^2 = 2.000000
    PQ-space CI Energy + EPT2 Root   0 = -56.313528162276 Eh =   0.0000 eV

  
  GAS Contribution Analysis  
  GAS contributions root 0: 
  GAS1_A    GASI_B    GAS2_A    GAS2_B        Cont  
     1         0         4         5        0.499999405  
     0         1         5         4        0.499999405  
     0         0         5         5        0.000001190  

           0                  10            0.000001190  
           1                  9            0.999998810  

  ***** Calculation Converged *****

  ==> ACI Natural Orbitals <==


  ==> Computing Coupling Lists <==
  --------------------------------
        α          0.001474 s
        β          0.001295 s
        1B1     1.999886      1A1     1.999394      2A1     1.995295  
        1B2     1.978505      3A1     1.001567      4A1     0.999999  
        2B2     0.025354  

  ==> Excited state solver summary <==

  Iterations required:                         1
  Dimension of optimized determinant space:    68

  * Selected-CI Energy Root   0        = -56.313528162276 Eh =   0.0000 eV
  * Selected-CI Energy Root   0 + EPT2 = -56.313528162276 Eh =   0.0000 eV

  ==> Wavefunction Information <==

  Most important contributions to root   0:
    0   0.668915 0.447446962          66 |-22+220>
    1  -0.668915 0.447446962          67 |+22-220>
    2   0.170718 0.029144692          64 |-22+2+->
    3  -0.170718 0.029144692          65 |+22-2-+>
    4   0.109286 0.011943364          62 |-22+2-+>
    5  -0.109286 0.011943364          63 |+22-2+->
    6  -0.078956 0.006234077          60 |-2+2220>
    7   0.078956 0.006234077          61 |+2-2220>
    8  -0.049148 0.002415506          58 |-+22220>
    9   0.049148 0.002415506          59 |+-22220>

  Saving information for root: 0

  ==> Energy Summary <==

    Multi.(2ms)  Irrep.  No.               Energy
    ---------------------------------------------
       1  (  0)    A1     0      -56.313528162276
    ---------------------------------------------
 Weight 1.000000 

  ==> Computing Coupling Lists <==
  --------------------------------
        α          0.000003 s
        β          0.000003 s
        αα         0.000003 s
        ββ         0.000003 s
        αβ         0.000003 s
  --------------------------------

  ==> Computing Coupling Lists <==
  --------------------------------
        α          0.001228 s
        β          0.002485 s
  1-RDM  took 0.008461 s (determinant)
        αα         0.007022 s
        ββ         0.008014 s
        αβ         0.010800 s
  --------------------------------
  2-RDMS took 0.032643 s (determinant)

 CAS took 0.254150 seconds.

 FormFockIntermediates took 0.00198850 s.
  Active Orbitals Frozen:


 FormOrbitalGradient took 0.00138220 s.

 FormDiagHessian took 0.00123050 s.

 Update function takes 0.00485010 s
    28   0.000000786660   0.000000000029   -56.313528162276    0.275410 s

  A miracle has come to pass: CASSCF iterations have converged.

 @ Final CASSCF Energy =  -56.313528162276107


  ==> Semi-canonicalize CASSCF Orbitals <==

    Building Fock matrix  ... Done.
    Diagonalizing block 0 ... Done.
    Diagonalizing block 1 ... Done.
    Diagonalizing block 2 ... Done.

  Time to prepare integrals:        0.230 seconds
  Time to run job          :        6.127 seconds
  Total                    :        6.127 seconds	GASSCF energy.....................................................PASSED

    Psi4 stopped on: Monday, 10 August 2020 10:25AM
    Psi4 wall time for execution: 0:00:07.92

*** Psi4 exiting successfully. Buy a developer a beer!
