
    -----------------------------------------------------------------------
          Psi4: An Open-Source Ab Initio Electronic Structure Package
                               Psi4 1.9a1.dev50 

                         Git: Rev {fixtemp} 466ebc2 


    D. G. A. Smith, L. A. Burns, A. C. Simmonett, R. M. Parrish,
    M. C. Schieber, R. Galvelis, P. Kraus, H. Kruse, R. Di Remigio,
    A. Alenaizan, A. M. James, S. Lehtola, J. P. Misiewicz, M. Scheurer,
    R. A. Shaw, J. B. Schriber, Y. Xie, Z. L. Glick, D. A. Sirianni,
    J. S. O'Brien, J. M. Waldrop, A. Kumar, E. G. Hohenstein,
    B. P. Pritchard, B. R. Brooks, H. F. Schaefer III, A. Yu. Sokolov,
    K. Patkowski, A. E. DePrince III, U. Bozkaya, R. A. King,
    F. A. Evangelista, J. M. Turney, T. D. Crawford, C. D. Sherrill,
    J. Chem. Phys. 152(18) 184108 (2020). https://doi.org/10.1063/5.0006002

                            Additional Code Authors
    E. T. Seidl, C. L. Janssen, E. F. Valeev, M. L. Leininger,
    J. F. Gonthier, R. M. Richard, H. R. McAlexander, M. Saitow, X. Wang,
    P. Verma, M. H. Lechner, A. Jiang, S. Behnle, A. G. Heide,
    M. F. Herbst, and D. L. Poole

             Previous Authors, Complete List of Code Contributors,
                       and Citations for Specific Modules
    https://github.com/psi4/psi4/blob/master/codemeta.json
    https://github.com/psi4/psi4/graphs/contributors
    http://psicode.org/psi4manual/master/introduction.html#citing-psifour

    -----------------------------------------------------------------------


    Psi4 started on: Friday, 10 November 2023 04:00PM

    Process ID: 32031
    Host:       macbook-pro-158.wireless.emory.edu
    PSIDATADIR: /Users/fevange/Source/psi4/objdir-Release/stage/share/psi4
    Memory:     500.0 MiB
    Threads:    1
    
  ==> Input File <==

--------------------------------------------------------------------------
# H2O singlet, 6-31G**/GASSCF calculation for core-excited state with core orbital frozen
# Without CASSCF_FROZEN_ORBITAL this will collapse to ground state and not converge

import forte

refscf    = -76.0172965561
refgasscf = -56.2919884026

molecule h2o{
   O
   H  1 1.00
   H  1 1.00 2 103.1
}

set global {
  basis 6-31g**
  e_convergence 12
  d_convergence 8
  scf_type direct
  reference rhf
}

set forte {
  active_space_solver genci
  ms                  0.0
  multiplicity        1
  root_sym            0
  charge              0
  e_convergence       12
  r_convergence       8
  gas1                [1,0,0,0]
  GAS2                [3,0,1,2]
  gas1min             [0]
  gas1max             [1]
  job_type            mcscf_two_step
  casscf_maxiter     100
  casscf_e_convergence 1e-10
  casscf_active_frozen_orbital [0]
  casscf_diis_start 15
}

escf, wfn = energy('scf', return_wfn=True)
egasscf = energy('forte', ref_wfn=wfn)
compare_values(refgasscf, egasscf, 8, "GASSCF energy")
--------------------------------------------------------------------------

Scratch directory: /tmp/
   => Libint2 <=

    Primary   basis highest AM E, G, H:  5, 4, 3
    Auxiliary basis highest AM E, G, H:  6, 5, 4
    Onebody   basis highest AM E, G, H:  6, 5, 4
    Solid Harmonics ordering:            gaussian

*** tstart() called on macbook-pro-158.wireless.emory.edu
*** at Fri Nov 10 16:00:01 2023

   => Loading Basis Set <=

    Name: 6-31G**
    Role: ORBITAL
    Keyword: BASIS
    atoms 1   entry O          line   149 file /Users/fevange/Source/psi4/objdir-Release/stage/share/psi4/basis/6-31gss.gbs 
    atoms 2-3 entry H          line    44 file /Users/fevange/Source/psi4/objdir-Release/stage/share/psi4/basis/6-31gss.gbs 


         ---------------------------------------------------------
                                   SCF
               by Justin Turney, Rob Parrish, Andy Simmonett
                          and Daniel G. A. Smith
                              RHF Reference
                        1 Threads,    500 MiB Core
         ---------------------------------------------------------

  ==> Geometry <==

    Molecular point group: c2v
    Full point group: C2v

    Geometry (in Angstrom), charge = 0, multiplicity = 1:

       Center              X                  Y                   Z               Mass       
    ------------   -----------------  -----------------  -----------------  -----------------
         O            0.000000000000     0.000000000000    -0.069592187400    15.994914619570
         H            0.000000000000    -0.783151105291     0.552239257834     1.007825032230
         H            0.000000000000     0.783151105291     0.552239257834     1.007825032230

  Running in c2v symmetry.

  Rotational constants: A =     24.35462  B =     13.63610  C =      8.74166 [cm^-1]
  Rotational constants: A = 730133.21529  B = 408800.04239  C = 262068.46393 [MHz]
  Nuclear repulsion =    8.804686653247025

  Charge       = 0
  Multiplicity = 1
  Electrons    = 10
  Nalpha       = 5
  Nbeta        = 5

  ==> Algorithm <==

  SCF Algorithm Type is DIRECT.
  DIIS enabled.
  MOM disabled.
  Fractional occupation disabled.
  Guess Type is SAD.
  Energy threshold   = 1.00e-12
  Density threshold  = 1.00e-08
  Integral threshold = 1.00e-12

  ==> Primary Basis <==

  Basis Set: 6-31G**
    Blend: 6-31G**
    Number of shells: 12
    Number of basis functions: 25
    Number of Cartesian functions: 25
    Spherical Harmonics?: false
    Max angular momentum: 2

   => Loading Basis Set <=

    Name: (6-31G** AUX)
    Role: JKFIT
    Keyword: DF_BASIS_SCF
    atoms 1   entry O          line   221 file /Users/fevange/Source/psi4/objdir-Release/stage/share/psi4/basis/cc-pvdz-jkfit.gbs 
    atoms 2-3 entry H          line    51 file /Users/fevange/Source/psi4/objdir-Release/stage/share/psi4/basis/cc-pvdz-jkfit.gbs 

  Starting with a DF guess...

  ==> Integral Setup <==

  DFHelper Memory: AOs need 0.001 GiB; user supplied 0.366 GiB. 
  Using in-core AOs.

  ==> MemDFJK: Density-Fitted J/K Matrices <==

    J tasked:                   Yes
    K tasked:                   Yes
    wK tasked:                   No
    OpenMP threads:               1
    Memory [MiB]:               375
    Algorithm:                 Core
    Schwarz Cutoff:           1E-12
    Mask sparsity (%):       0.0000
    Fitting Condition:        1E-10

   => Auxiliary Basis Set <=

  Basis Set: (6-31G** AUX)
    Blend: CC-PVDZ-JKFIT
    Number of shells: 42
    Number of basis functions: 131
    Number of Cartesian functions: 131
    Spherical Harmonics?: false
    Max angular momentum: 3

  Minimum eigenvalue in the overlap matrix is 2.2571686435E-02.
  Reciprocal condition number of the overlap matrix is 5.1514795888E-03.
    Using symmetric orthogonalization.

  ==> Pre-Iterations <==

  SCF Guess: Superposition of Atomic Densities via on-the-fly atomic UHF (no occupation information).

   -------------------------
    Irrep   Nso     Nmo    
   -------------------------
     A1        12      12 
     A2         2       2 
     B1         4       4 
     B2         7       7 
   -------------------------
    Total      25      25
   -------------------------

  ==> Iterations <==

                           Total Energy        Delta E     RMS |[F,P]|

   @DF-RHF iter SAD:   -75.46101893879410   -7.54610e+01   0.00000e+00 
   @DF-RHF iter   1:   -75.94541974959661   -4.84401e-01   2.80521e-02 ADIIS/DIIS
   @DF-RHF iter   2:   -75.99653401657321   -5.11143e-02   1.70130e-02 ADIIS/DIIS
   @DF-RHF iter   3:   -76.01662245125139   -2.00884e-02   2.21370e-03 ADIIS/DIIS
   @DF-RHF iter   4:   -76.01723049993947   -6.08049e-04   4.12822e-04 ADIIS/DIIS
   @DF-RHF iter   5:   -76.01725883710759   -2.83372e-05   6.95061e-05 DIIS
   @DF-RHF iter   6:   -76.01725995458682   -1.11748e-06   1.06194e-05 DIIS
   @DF-RHF iter   7:   -76.01725998322141   -2.86346e-08   1.75291e-06 DIIS
   @DF-RHF iter   8:   -76.01725998411086   -8.89457e-10   3.96988e-07 DIIS
   @DF-RHF iter   9:   -76.01725998416204   -5.11733e-11   6.88572e-08 DIIS
   @DF-RHF iter  10:   -76.01725998416320   -1.16529e-12   6.51895e-09 DIIS
   @DF-RHF iter  11:   -76.01725998416327   -7.10543e-14   7.94651e-10 DIIS

  DF guess converged.

  ==> DirectJK: Integral-Direct J/K Matrices <==

    J tasked:                  Yes
    K tasked:                  Yes
    wK tasked:                  No
    Integrals threads:           1
    Screening Type:           CSAM
    Screening Cutoff:        1E-12
    Incremental Fock:           No

   @RHF iter  12:   -76.01729654450105   -7.60173e+01   1.19916e-05 DIIS
   @RHF iter  13:   -76.01729655577888   -1.12778e-08   1.64017e-06 DIIS
   @RHF iter  14:   -76.01729655606735   -2.88466e-10   4.89638e-07 DIIS
   @RHF iter  15:   -76.01729655608843   -2.10747e-11   1.68507e-07 DIIS
   @RHF iter  16:   -76.01729655609137   -2.94165e-12   4.58643e-08 DIIS
   @RHF iter  17:   -76.01729655609161   -2.41585e-13   5.21060e-09 DIIS
  Energy and wave function converged.


  ==> Post-Iterations <==

    Orbital Energies [Eh]
    ---------------------

    Doubly Occupied:                                                      

       1A1   -20.569000     2A1    -1.320609     1B2    -0.678724  
       3A1    -0.563930     1B1    -0.495004  

    Virtual:                                                              

       4A1     0.202466     2B2     0.292719     3B2     0.981164  
       5A1     1.056318     6A1     1.129179     2B1     1.168639  
       4B2     1.294985     7A1     1.413596     1A2     1.802875  
       8A1     1.806916     3B1     1.918871     9A1     2.513249  
       5B2     2.537822     6B2     2.713577     2A2     2.921065  
       4B1     2.947486    10A1     3.291755    11A1     3.620730  
       7B2     3.874917    12A1     4.077740  

    Final Occupation by Irrep:
             A1    A2    B1    B2 
    DOCC [     3,    0,    1,    1 ]
    NA   [     3,    0,    1,    1 ]
    NB   [     3,    0,    1,    1 ]

  @RHF Final Energy:   -76.01729655609161

   => Energetics <=

    Nuclear Repulsion Energy =              8.8046866532470247
    One-Electron Energy =                -122.3894315674516804
    Two-Electron Energy =                  37.5674483581130474
    Total Energy =                        -76.0172965560916225

Computation Completed


Properties will be evaluated at   0.000000,   0.000000,   0.000000 [a0]

Properties computed using the SCF density matrix


 Multipole Moments:

 ------------------------------------------------------------------------------------
     Multipole            Electronic (a.u.)      Nuclear  (a.u.)        Total (a.u.)
 ------------------------------------------------------------------------------------

 L = 1.  Multiply by 2.5417464519 to convert [e a0] to [Debye]
 Dipole X            :          0.0000000            0.0000000            0.0000000
 Dipole Y            :          0.0000000            0.0000000            0.0000000
 Dipole Z            :         -0.1532271            1.0350805            0.8818534
 Magnitude           :                                                    0.8818534

 ------------------------------------------------------------------------------------

*** tstop() called on macbook-pro-158.wireless.emory.edu at Fri Nov 10 16:00:01 2023
Module time:
	user time   =       0.65 seconds =       0.01 minutes
	system time =       1.08 seconds =       0.02 minutes
	total time  =          0 seconds =       0.00 minutes
Total time:
	user time   =       0.65 seconds =       0.01 minutes
	system time =       1.08 seconds =       0.02 minutes
	total time  =          0 seconds =       0.00 minutes

Scratch directory: /tmp/

  Forte
  ----------------------------------------------------------------------------
  A suite of quantum chemistry methods for strongly correlated electrons

    git branch: strgas - git commit: 1d41137c

  Developed by:
    Francesco A. Evangelista, Chenyang Li, Kevin P. Hannon,
    Jeffrey B. Schriber, Tianyuan Zhang, Chenxi Cai,
    Nan He, Nicholas Stair, Shuhe Wang, Renke Huang
  ----------------------------------------------------------------------------

  Size of Determinant class: 128 bits

  Preparing forte objects from a Psi4 Wavefunction object
  Read options for space GAS1
  Read options for space GAS2
  Read options for space GAS1
  Read options for space GAS2

  ==> MO Space Information <==

  -------------------------------------------------
                       A1    A2    B1    B2   Sum
  -------------------------------------------------
    FROZEN_DOCC         0     0     0     0     0
    RESTRICTED_DOCC     0     0     0     0     0
    GAS1                1     0     0     0     1
    GAS2                3     0     1     2     6
    GAS3                0     0     0     0     0
    GAS4                0     0     0     0     0
    GAS5                0     0     0     0     0
    GAS6                0     0     0     0     0
    RESTRICTED_UOCC     8     2     3     5    18
    FROZEN_UOCC         0     0     0     0     0
    Total              12     2     4     7    25
  -------------------------------------------------   => Loading Basis Set <=

    Name: 6-31G**
    Role: ORBITAL
    Keyword: BASIS
    atoms 1   entry O          line   149 file /Users/fevange/Source/psi4/objdir-Release/stage/share/psi4/basis/6-31gss.gbs 
    atoms 2-3 entry H          line    44 file /Users/fevange/Source/psi4/objdir-Release/stage/share/psi4/basis/6-31gss.gbs 


  Checking orbital orthonormality against current geometry ... Done (OK)

   => Loading Basis Set <=

    Name: STO-3G
    Role: ORBITAL
    Keyword: MINAO_BASIS
    atoms 1   entry O          line    81 file /Users/fevange/Source/psi4/objdir-Release/stage/share/psi4/basis/sto-3g.gbs 
    atoms 2-3 entry H          line    19 file /Users/fevange/Source/psi4/objdir-Release/stage/share/psi4/basis/sto-3g.gbs 


  Forte will use psi4 integrals

  ==> Primary Basis Set Summary <==

  Basis Set: 6-31G**
    Blend: 6-31G**
    Number of shells: 12
    Number of basis functions: 25
    Number of Cartesian functions: 25
    Spherical Harmonics?: false
    Max angular momentum: 2


  JK created using conventional PK integrals
  Using in-core PK algorithm.
   Calculation information:
      Number of atoms:                   3
      Number of AO shells:              12
      Number of primitives:             25
      Number of atomic orbitals:        25
      Number of basis functions:        25

      Integral cutoff                 1.00e-12
      Number of threads:                 1

  Performing in-core PK
  Using 105950 doubles for integral storage.
  We computed 3081 shell quartets total.
  Whereas there are 3081 unique shell quartets.

  ==> DiskJK: Disk-Based J/K Matrices <==

    J tasked:                  Yes
    K tasked:                  Yes
    wK tasked:                  No
    Memory [MiB]:              400
    Schwarz Cutoff:          1E-12

    OpenMP threads:              1



  ==> Integral Transformation <==

  Number of molecular orbitals:                         25
  Number of correlated molecular orbitals:              25
  Number of frozen occupied orbitals:                    0
  Number of frozen unoccupied orbitals:                  0
  Two-electron integral type:                 Conventional


  Skip integral allocation and transformation for AO-driven CASSCF.

          -----------------------------------------------------------
                  Multi-Configurational Self Consistent Field
                Two-Step Approximate Second-Order AO Algorithm
            written by Chenyang Li, Kevin P. Hannon, and Shuhe Wang
          -----------------------------------------------------------


  ==> MCSCF Calculation Information <==

    Integral type                               CONVENTIONAL
    CI solver type                                       FCI
    Final orbital type                             CANONICAL
    Derivative type                                     NONE
    Optimize orbitals                                   TRUE
    Include internal rotations                         FALSE
    Debug printing                                     FALSE
    Energy convergence                             1.000e-10
    Gradient convergence                           1.000e-07
    Max value for rotation                         2.000e-01
    Printing level                                         1
    Max number of macro iterations                       100
    Max number of micro iterations                        40
    Min number of micro iterations                         6
    DIIS start                                            15
    Min DIIS vectors                                       3
    Max DIIS vectors                                       8
    Frequency of DIIS extrapolation                        1


  ==> Independent Orbital Rotations <==

    ORBITAL SPACES                        A1     A2     B1     B2
    -------------------------------------------------------------
               GAS1 /            GAS2      0      0      0      0
             ACTIVE / RESTRICTED_DOCC      0      0      0      0
    RESTRICTED_UOCC /          ACTIVE     24      0      3     10
    RESTRICTED_UOCC / RESTRICTED_DOCC      0      0      0      0
    -------------------------------------------------------------

  ==> Summary of Active Space Solver Input <==

    Irrep.  Multi.(2ms)      N
    --------------------------
       A1      1  (  0)      1
    --------------------------
    N: number of roots
    ms: spin z component
    Total number of roots:   1
    --------------------------


  ==> Possible Electron Occupations in GAS <==

    Config.   Space 1   Space 2
               α    β    α    β 
    ---------------------------
         1     1    0    4    5
         2     0    1    5    4
         3     0    0    5    5

  ==> String Lists <==

    number of alpha electrons                              5
    number of beta electrons                               5
    number of alpha strings                               21
    number of beta strings                                21
    timing for strings                                 0.000 s
    timing for NN strings                              0.000 s
    timing for VO strings                              0.001 s
    timing for OO strings                              0.000 s
    timing for VVOO strings                            0.001 s
    timing for 1-hole strings                          0.000 s
    timing for 2-hole strings                          0.001 s
    timing for 3-hole strings                          0.002 s
    total timing                                       0.003 s


  ==> GASCI Solver <==

    Spin adapt                                         FALSE
    Number of determinants                                68
    Symmetry                                               0
    Multiplicity                                           1
    Number of roots                                        1
    Target root                                            0

  Allocating memory for the Hamiltonian algorithm. Size: 2 x 6 x 6.   Memory: 0.000001 GB

  ==> Initial Guess <==

  Initial guess determinants:         50

  Classification of the initial guess solutions

  Number   2S+1   Selected
  ------------------------
    21       1       *
    25       3        
     4       5        
  ------------------------

    Spin    Root           Energy        <S^2>    Status
  -------------------------------------------------------
   triplet    0      -55.853957700021  +2.000000  removed
   singlet    0      -55.840801317010  -0.000000  added
  -------------------------------------------------------

  ==> Davidson-Liu Solver <==

    Energy convergence threshold                   1.000e-10
    Residual convergence threshold                 1.000e-08
    Schmidt orthogonality threshold                1.000e-12
    Schmidt discard threshold                      1.000e-07
    Size of the space                                     68
    Number of roots                                        1
    Maximum number of iterations                         100
    Collapse subspace size                                 2
    Maximum subspace size                                 10
    Print level                                            1


  Davidson-Liu solver: adding 1 guess vectors
  Iteration     Average Energy            max(∆E)            max(Residual)  Vectors
  ---------------------------------------------------------------------------------
       0      -55.840801317010       55.840801317010        0.166012103150      1
       1      -55.841932967646        0.001131650636        0.006007990288      2
       2      -55.841943055335        0.000010087689        0.001561751418      3
       3      -55.841944047974        0.000000992640        0.000559068748      4
       4      -55.841944162855        0.000000114880        0.000159553962      5
       5      -55.841944169944        0.000000007089        0.000038788887      6
       6      -55.841944170256        0.000000000311        0.000007805321      7
       7      -55.841944170271        0.000000000015        0.000001499276      8
       8      -55.841944170271        0.000000000000        0.000000292048      9
       9      -55.841944170271        0.000000000000        0.000000043889     10
      10      -55.841944170272        0.000000000000        0.000000010126      3
      11      -55.841944170272        0.000000000000        0.000000002433      4
  ---------------------------------------------------------------------------------

  ==> Root No. 0 <==

    a22b 2 20      0.65804037
    b22a 2 20      0.65804037
    b22a 2 ab      0.16141777
    a22b 2 ba      0.16141777
    b22a 2 ba      0.13665173
    a22b 2 ab      0.13665173
    b2a2 2 20     -0.10742248
    a2b2 2 20     -0.10742248

    Total Energy:     -55.841944170272, <S^2>: 0.000000
    Time for GenCI:       0.017685750000

  ==> Energy Summary <==

    Multi.(2ms)  Irrep.  No.               Energy      <S^2>
    --------------------------------------------------------
       1  (  0)    A1     0      -55.841944170272   0.000000
    --------------------------------------------------------

  ==> Dipole Moments [e a0] (Nuclear + Electronic) for Singlet (Ms = 0) A1 <==


  ==> Computing RDMs <0 Singlet (Ms = 0) A1| ... |0 Singlet (Ms = 0) A1> <==

    Timing for 1-RDM: 0.000 s
       State           DM_X           DM_Y           DM_Z           |DM|
    --------------------------------------------------------------------
         0A1     0.00000000     0.00000000    -0.09659764     0.09659764
    --------------------------------------------------------------------
     Nuclear     0.00000000     0.00000000     1.03508051     1.03508051
    --------------------------------------------------------------------

  ==> Quadrupole Moments [e a0^2] (Nuclear + Electronic) for Singlet (Ms = 0) A1 <==


  ==> Computing RDMs <0 Singlet (Ms = 0) A1| ... |0 Singlet (Ms = 0) A1> <==

    Timing for 1-RDM: 0.000 s
       State          QM_XX          QM_XY          QM_XZ          QM_YY          QM_YZ          QM_ZZ
    --------------------------------------------------------------------------------------------------
         0A1    -6.91245282     0.00000000     0.00000000    -7.03120450     0.00000000    -7.54238257
    --------------------------------------------------------------------------------------------------
     Nuclear     0.00000000     0.00000000     0.00000000     4.38045134     0.00000000     2.31648182
    --------------------------------------------------------------------------------------------------

  ==> Computing RDMs <0 Singlet (Ms = 0) A1| ... |0 Singlet (Ms = 0) A1> <==

    Timing for 1-RDM: 0.000 s
    Timing for 2-RDM: 0.000 s

  ==> Optimizing Orbitals for Current RDMs <==

    L-BFGS Iter:  1; fx =  -56.136583225675963; g_norm = 1.747990e+00; step = 2.546e-01
    L-BFGS Iter:  2; fx =  -56.266207216486009; g_norm = 1.959122e-01; step = 1.000e+00
    L-BFGS Iter:  3; fx =  -56.267919054315044; g_norm = 1.344003e-01; step = 1.000e+00
    L-BFGS Iter:  4; fx =  -56.268701851282927; g_norm = 3.042217e-02; step = 1.000e+00
    L-BFGS Iter:  5; fx =  -56.268886344090177; g_norm = 2.850953e-02; step = 1.000e+00
    L-BFGS Iter:  6; fx =  -56.269807573882424; g_norm = 2.850953e-02; step = 1.000e+00

  ==> MCSCF Macro Iter. 1 <==

             Energy CI (  Delta E  )         Energy Opt. (  Delta E  )  E_OPT - E_CI   Orbital RMS  Micro  DIIS
      -55.841944170272 (-5.5842e+01)    -56.269807573882 (-5.6270e+01)   -4.2786e-01    5.2329e-01    6/N

  ==> Possible Electron Occupations in GAS <==

    Config.   Space 1   Space 2
               α    β    α    β 
    ---------------------------
         1     1    0    4    5
         2     0    1    5    4
         3     0    0    5    5

  ==> String Lists <==

    number of alpha electrons                              5
    number of beta electrons                               5
    number of alpha strings                               21
    number of beta strings                                21
    timing for strings                                 0.000 s
    timing for NN strings                              0.000 s
    timing for VO strings                              0.001 s
    timing for OO strings                              0.000 s
    timing for VVOO strings                            0.001 s
    timing for 1-hole strings                          0.000 s
    timing for 2-hole strings                          0.001 s
    timing for 3-hole strings                          0.002 s
    total timing                                       0.003 s


  ==> GASCI Solver <==

    Spin adapt                                         FALSE
    Number of determinants                                68
    Symmetry                                               0
    Multiplicity                                           1
    Number of roots                                        1
    Target root                                            0


  ==> Davidson-Liu Solver <==

    Energy convergence threshold                   1.000e-10
    Residual convergence threshold                 1.000e-08
    Schmidt orthogonality threshold                1.000e-12
    Schmidt discard threshold                      1.000e-07
    Size of the space                                     68
    Number of roots                                        1
    Maximum number of iterations                         100
    Collapse subspace size                                 2
    Maximum subspace size                                 10
    Print level                                            1


  Davidson-Liu solver: restarting from previous calculation.
  Iteration     Average Energy            max(∆E)            max(Residual)  Vectors
  ---------------------------------------------------------------------------------
       0      -56.269807573882        0.427863403611        0.145749414580      1
       1      -56.285533935848        0.015726361965        0.055730191439      2
       2      -56.286449491801        0.000915555953        0.023414731795      3
       3      -56.286646773807        0.000197282007        0.005843159646      4
       4      -56.286652075451        0.000005301644        0.001602537840      5
       5      -56.286652623946        0.000000548495        0.000385526790      6
       6      -56.286652661470        0.000000037524        0.000090922972      7
       7      -56.286652663385        0.000000001915        0.000022178831      8
       8      -56.286652663500        0.000000000115        0.000003239750      9
       9      -56.286652663502        0.000000000003        0.000000431451     10
      10      -56.286652663502        0.000000000000        0.000000090205      3
      11      -56.286652663502        0.000000000000        0.000000022566      4
      12      -56.286652663502        0.000000000000        0.000000007203      5
  ---------------------------------------------------------------------------------

  ==> Root No. 0 <==

    b22a 2 20      0.66655650
    a22b 2 20      0.66655650
    a22b 2 ba      0.15339949
    b22a 2 ab      0.15339949

    Total Energy:     -56.286652663502, <S^2>: -0.000000
    Time for GenCI:       0.014282833000

  ==> Energy Summary <==

    Multi.(2ms)  Irrep.  No.               Energy      <S^2>
    --------------------------------------------------------
       1  (  0)    A1     0      -56.286652663502  -0.000000
    --------------------------------------------------------

  ==> Dipole Moments [e a0] (Nuclear + Electronic) for Singlet (Ms = 0) A1 <==


  ==> Computing RDMs <0 Singlet (Ms = 0) A1| ... |0 Singlet (Ms = 0) A1> <==

    Timing for 1-RDM: 0.000 s
       State           DM_X           DM_Y           DM_Z           |DM|
    --------------------------------------------------------------------
         0A1     0.00000000     0.00000000    -0.20258316     0.20258316
    --------------------------------------------------------------------
     Nuclear     0.00000000     0.00000000     1.03508051     1.03508051
    --------------------------------------------------------------------

  ==> Quadrupole Moments [e a0^2] (Nuclear + Electronic) for Singlet (Ms = 0) A1 <==


  ==> Computing RDMs <0 Singlet (Ms = 0) A1| ... |0 Singlet (Ms = 0) A1> <==

    Timing for 1-RDM: 0.000 s
       State          QM_XX          QM_XY          QM_XZ          QM_YY          QM_YZ          QM_ZZ
    --------------------------------------------------------------------------------------------------
         0A1    -6.96867995     0.00000000     0.00000000    -7.31064970     0.00000000    -7.67651684
    --------------------------------------------------------------------------------------------------
     Nuclear     0.00000000     0.00000000     0.00000000     4.38045134     0.00000000     2.31648182
    --------------------------------------------------------------------------------------------------

  ==> Computing RDMs <0 Singlet (Ms = 0) A1| ... |0 Singlet (Ms = 0) A1> <==

    Timing for 1-RDM: 0.000 s
    Timing for 2-RDM: 0.001 s

  ==> Optimizing Orbitals for Current RDMs <==

    L-BFGS Iter:  1; fx =  -56.289551788133089; g_norm = 1.331132e-01; step = 1.000e+00
    L-BFGS Iter:  2; fx =  -56.290560574673229; g_norm = 4.865335e-02; step = 1.000e+00
    L-BFGS Iter:  3; fx =  -56.290996172358312; g_norm = 2.095132e-02; step = 1.000e+00
    L-BFGS Iter:  4; fx =  -56.291310103505594; g_norm = 2.705011e-02; step = 1.000e+00
    L-BFGS Iter:  5; fx =  -56.291414497744341; g_norm = 1.435023e-02; step = 1.000e+00
    L-BFGS Iter:  6; fx =  -56.291441772856444; g_norm = 1.435023e-02; step = 1.000e+00

  ==> MCSCF Macro Iter. 2 <==

             Energy CI (  Delta E  )         Energy Opt. (  Delta E  )  E_OPT - E_CI   Orbital RMS  Micro  DIIS
      -56.286652663502 (-4.4471e-01)    -56.291441772856 (-2.1634e-02)   -4.7891e-03    5.6955e-03    6/N

  ==> Possible Electron Occupations in GAS <==

    Config.   Space 1   Space 2
               α    β    α    β 
    ---------------------------
         1     1    0    4    5
         2     0    1    5    4
         3     0    0    5    5

  ==> String Lists <==

    number of alpha electrons                              5
    number of beta electrons                               5
    number of alpha strings                               21
    number of beta strings                                21
    timing for strings                                 0.000 s
    timing for NN strings                              0.000 s
    timing for VO strings                              0.001 s
    timing for OO strings                              0.000 s
    timing for VVOO strings                            0.001 s
    timing for 1-hole strings                          0.000 s
    timing for 2-hole strings                          0.001 s
    timing for 3-hole strings                          0.002 s
    total timing                                       0.003 s


  ==> GASCI Solver <==

    Spin adapt                                         FALSE
    Number of determinants                                68
    Symmetry                                               0
    Multiplicity                                           1
    Number of roots                                        1
    Target root                                            0


  ==> Davidson-Liu Solver <==

    Energy convergence threshold                   1.000e-10
    Residual convergence threshold                 1.000e-08
    Schmidt orthogonality threshold                1.000e-12
    Schmidt discard threshold                      1.000e-07
    Size of the space                                     68
    Number of roots                                        1
    Maximum number of iterations                         100
    Collapse subspace size                                 2
    Maximum subspace size                                 10
    Print level                                            1


  Davidson-Liu solver: restarting from previous calculation.
  Iteration     Average Energy            max(∆E)            max(Residual)  Vectors
  ---------------------------------------------------------------------------------
       0      -56.291441772856        0.004789109354        0.025781681201      1
       1      -56.291846360076        0.000404587220        0.011622099594      2
       2      -56.291893153038        0.000046792961        0.003693641006      3
       3      -56.291898617584        0.000005464546        0.000752208678      4
       4      -56.291898750441        0.000000132857        0.000199656612      5
       5      -56.291898759500        0.000000009059        0.000048335500      6
       6      -56.291898760617        0.000000001117        0.000020853846      7
       7      -56.291898760661        0.000000000044        0.000001353981      8
       8      -56.291898760662        0.000000000001        0.000000256839      9
       9      -56.291898760662        0.000000000000        0.000000053738     10
      10      -56.291898760662        0.000000000000        0.000000011963      3
      11      -56.291898760662        0.000000000000        0.000000003610      4
  ---------------------------------------------------------------------------------

  ==> Root No. 0 <==

    a22b 2 20      0.66882728
    b22a 2 20      0.66882728
    b22a 2 ab      0.14674615
    a22b 2 ba      0.14674615

    Total Energy:     -56.291898760662, <S^2>: 0.000000
    Time for GenCI:       0.013946792000

  ==> Energy Summary <==

    Multi.(2ms)  Irrep.  No.               Energy      <S^2>
    --------------------------------------------------------
       1  (  0)    A1     0      -56.291898760662   0.000000
    --------------------------------------------------------

  ==> Dipole Moments [e a0] (Nuclear + Electronic) for Singlet (Ms = 0) A1 <==


  ==> Computing RDMs <0 Singlet (Ms = 0) A1| ... |0 Singlet (Ms = 0) A1> <==

    Timing for 1-RDM: 0.000 s
       State           DM_X           DM_Y           DM_Z           |DM|
    --------------------------------------------------------------------
         0A1     0.00000000     0.00000000    -0.21937696     0.21937696
    --------------------------------------------------------------------
     Nuclear     0.00000000     0.00000000     1.03508051     1.03508051
    --------------------------------------------------------------------

  ==> Quadrupole Moments [e a0^2] (Nuclear + Electronic) for Singlet (Ms = 0) A1 <==


  ==> Computing RDMs <0 Singlet (Ms = 0) A1| ... |0 Singlet (Ms = 0) A1> <==

    Timing for 1-RDM: 0.000 s
       State          QM_XX          QM_XY          QM_XZ          QM_YY          QM_YZ          QM_ZZ
    --------------------------------------------------------------------------------------------------
         0A1    -6.97722098     0.00000000     0.00000000    -7.35188614     0.00000000    -7.69687540
    --------------------------------------------------------------------------------------------------
     Nuclear     0.00000000     0.00000000     0.00000000     4.38045134     0.00000000     2.31648182
    --------------------------------------------------------------------------------------------------

  ==> Computing RDMs <0 Singlet (Ms = 0) A1| ... |0 Singlet (Ms = 0) A1> <==

    Timing for 1-RDM: 0.000 s
    Timing for 2-RDM: 0.001 s

  ==> Optimizing Orbitals for Current RDMs <==

    L-BFGS Iter:  1; fx =  -56.291956729199299; g_norm = 1.396050e-02; step = 1.000e+00
    L-BFGS Iter:  2; fx =  -56.291967718283374; g_norm = 2.557108e-03; step = 1.000e+00
    L-BFGS Iter:  3; fx =  -56.291968910679522; g_norm = 1.919008e-03; step = 1.000e+00
    L-BFGS Iter:  4; fx =  -56.291970002220907; g_norm = 1.074430e-03; step = 1.000e+00
    L-BFGS Iter:  5; fx =  -56.291970171059859; g_norm = 4.929224e-04; step = 1.000e+00
    L-BFGS Iter:  6; fx =  -56.291970214036660; g_norm = 4.929224e-04; step = 1.000e+00

  ==> MCSCF Macro Iter. 3 <==

             Energy CI (  Delta E  )         Energy Opt. (  Delta E  )  E_OPT - E_CI   Orbital RMS  Micro  DIIS
      -56.291898760662 (-5.2461e-03)    -56.291970214037 (-5.2844e-04)   -7.1453e-05    2.3848e-03    6/N

  ==> Possible Electron Occupations in GAS <==

    Config.   Space 1   Space 2
               α    β    α    β 
    ---------------------------
         1     1    0    4    5
         2     0    1    5    4
         3     0    0    5    5

  ==> String Lists <==

    number of alpha electrons                              5
    number of beta electrons                               5
    number of alpha strings                               21
    number of beta strings                                21
    timing for strings                                 0.000 s
    timing for NN strings                              0.000 s
    timing for VO strings                              0.001 s
    timing for OO strings                              0.000 s
    timing for VVOO strings                            0.001 s
    timing for 1-hole strings                          0.000 s
    timing for 2-hole strings                          0.001 s
    timing for 3-hole strings                          0.002 s
    total timing                                       0.003 s


  ==> GASCI Solver <==

    Spin adapt                                         FALSE
    Number of determinants                                68
    Symmetry                                               0
    Multiplicity                                           1
    Number of roots                                        1
    Target root                                            0


  ==> Davidson-Liu Solver <==

    Energy convergence threshold                   1.000e-10
    Residual convergence threshold                 1.000e-08
    Schmidt orthogonality threshold                1.000e-12
    Schmidt discard threshold                      1.000e-07
    Size of the space                                     68
    Number of roots                                        1
    Maximum number of iterations                         100
    Collapse subspace size                                 2
    Maximum subspace size                                 10
    Print level                                            1


  Davidson-Liu solver: restarting from previous calculation.
  Iteration     Average Energy            max(∆E)            max(Residual)  Vectors
  ---------------------------------------------------------------------------------
       0      -56.291970214037        0.000071453375        0.003892453990      1
       1      -56.291980863895        0.000010649858        0.002703652824      2
       2      -56.291983900792        0.000003036898        0.000620187401      3
       3      -56.291984032225        0.000000131432        0.000134107267      4
       4      -56.291984037265        0.000000005040        0.000033404653      5
       5      -56.291984037569        0.000000000304        0.000006741035      6
       6      -56.291984037595        0.000000000027        0.000002789451      7
       7      -56.291984037596        0.000000000001        0.000000224739      8
       8      -56.291984037596        0.000000000000        0.000000046896      9
       9      -56.291984037596        0.000000000000        0.000000010226     10
      10      -56.291984037596        0.000000000000        0.000000002447      3
  ---------------------------------------------------------------------------------

  ==> Root No. 0 <==

    b22a 2 20      0.66937603
    a22b 2 20      0.66937603
    a22b 2 ba      0.14525298
    b22a 2 ab      0.14525298

    Total Energy:     -56.291984037596, <S^2>: 0.000000
    Time for GenCI:       0.013202959000

  ==> Energy Summary <==

    Multi.(2ms)  Irrep.  No.               Energy      <S^2>
    --------------------------------------------------------
       1  (  0)    A1     0      -56.291984037596   0.000000
    --------------------------------------------------------

  ==> Dipole Moments [e a0] (Nuclear + Electronic) for Singlet (Ms = 0) A1 <==


  ==> Computing RDMs <0 Singlet (Ms = 0) A1| ... |0 Singlet (Ms = 0) A1> <==

    Timing for 1-RDM: 0.000 s
       State           DM_X           DM_Y           DM_Z           |DM|
    --------------------------------------------------------------------
         0A1     0.00000000     0.00000000    -0.22287702     0.22287702
    --------------------------------------------------------------------
     Nuclear     0.00000000     0.00000000     1.03508051     1.03508051
    --------------------------------------------------------------------

  ==> Quadrupole Moments [e a0^2] (Nuclear + Electronic) for Singlet (Ms = 0) A1 <==


  ==> Computing RDMs <0 Singlet (Ms = 0) A1| ... |0 Singlet (Ms = 0) A1> <==

    Timing for 1-RDM: 0.000 s
       State          QM_XX          QM_XY          QM_XZ          QM_YY          QM_YZ          QM_ZZ
    --------------------------------------------------------------------------------------------------
         0A1    -6.97877883     0.00000000     0.00000000    -7.35993217     0.00000000    -7.70054598
    --------------------------------------------------------------------------------------------------
     Nuclear     0.00000000     0.00000000     0.00000000     4.38045134     0.00000000     2.31648182
    --------------------------------------------------------------------------------------------------

  ==> Computing RDMs <0 Singlet (Ms = 0) A1| ... |0 Singlet (Ms = 0) A1> <==

    Timing for 1-RDM: 0.000 s
    Timing for 2-RDM: 0.001 s

  ==> Optimizing Orbitals for Current RDMs <==

    L-BFGS Iter:  1; fx =  -56.291986610757803; g_norm = 2.589144e-03; step = 1.000e+00
    L-BFGS Iter:  2; fx =  -56.291987076142831; g_norm = 5.553401e-04; step = 1.000e+00
    L-BFGS Iter:  3; fx =  -56.291987148410442; g_norm = 6.018255e-04; step = 1.000e+00
    L-BFGS Iter:  4; fx =  -56.291987252957362; g_norm = 4.347089e-04; step = 1.000e+00
    L-BFGS Iter:  5; fx =  -56.291987266339191; g_norm = 1.318543e-04; step = 1.000e+00
    L-BFGS Iter:  6; fx =  -56.291987267760447; g_norm = 1.318543e-04; step = 1.000e+00

  ==> MCSCF Macro Iter. 4 <==

             Energy CI (  Delta E  )         Energy Opt. (  Delta E  )  E_OPT - E_CI   Orbital RMS  Micro  DIIS
      -56.291984037596 (-8.5277e-05)    -56.291987267760 (-1.7054e-05)   -3.2302e-06    7.6764e-05    6/N

  ==> Possible Electron Occupations in GAS <==

    Config.   Space 1   Space 2
               α    β    α    β 
    ---------------------------
         1     1    0    4    5
         2     0    1    5    4
         3     0    0    5    5

  ==> String Lists <==

    number of alpha electrons                              5
    number of beta electrons                               5
    number of alpha strings                               21
    number of beta strings                                21
    timing for strings                                 0.000 s
    timing for NN strings                              0.000 s
    timing for VO strings                              0.001 s
    timing for OO strings                              0.000 s
    timing for VVOO strings                            0.001 s
    timing for 1-hole strings                          0.000 s
    timing for 2-hole strings                          0.001 s
    timing for 3-hole strings                          0.002 s
    total timing                                       0.003 s


  ==> GASCI Solver <==

    Spin adapt                                         FALSE
    Number of determinants                                68
    Symmetry                                               0
    Multiplicity                                           1
    Number of roots                                        1
    Target root                                            0


  ==> Davidson-Liu Solver <==

    Energy convergence threshold                   1.000e-10
    Residual convergence threshold                 1.000e-08
    Schmidt orthogonality threshold                1.000e-12
    Schmidt discard threshold                      1.000e-07
    Size of the space                                     68
    Number of roots                                        1
    Maximum number of iterations                         100
    Collapse subspace size                                 2
    Maximum subspace size                                 10
    Print level                                            1


  Davidson-Liu solver: restarting from previous calculation.
  Iteration     Average Energy            max(∆E)            max(Residual)  Vectors
  ---------------------------------------------------------------------------------
       0      -56.291987267760        0.000003230164        0.000946516489      1
       1      -56.291987896040        0.000000628280        0.000657274658      2
       2      -56.291988089624        0.000000193583        0.000152712760      3
       3      -56.291988097253        0.000000007630        0.000034519061      4
       4      -56.291988097535        0.000000000282        0.000007204631      5
       5      -56.291988097549        0.000000000015        0.000001294795      6
       6      -56.291988097550        0.000000000001        0.000000443929      7
       7      -56.291988097550        0.000000000000        0.000000045893      8
       8      -56.291988097550        0.000000000000        0.000000010448      9
       9      -56.291988097550        0.000000000000        0.000000002312     10
  ---------------------------------------------------------------------------------

  ==> Root No. 0 <==

    a22b 2 20     -0.66948798
    b22a 2 20     -0.66948798
    b22a 2 ab     -0.14493937
    a22b 2 ba     -0.14493937

    Total Energy:     -56.291988097550, <S^2>: -0.000000
    Time for GenCI:       0.012568333000

  ==> Energy Summary <==

    Multi.(2ms)  Irrep.  No.               Energy      <S^2>
    --------------------------------------------------------
       1  (  0)    A1     0      -56.291988097550  -0.000000
    --------------------------------------------------------

  ==> Dipole Moments [e a0] (Nuclear + Electronic) for Singlet (Ms = 0) A1 <==


  ==> Computing RDMs <0 Singlet (Ms = 0) A1| ... |0 Singlet (Ms = 0) A1> <==

    Timing for 1-RDM: 0.000 s
       State           DM_X           DM_Y           DM_Z           |DM|
    --------------------------------------------------------------------
         0A1     0.00000000     0.00000000    -0.22380318     0.22380318
    --------------------------------------------------------------------
     Nuclear     0.00000000     0.00000000     1.03508051     1.03508051
    --------------------------------------------------------------------

  ==> Quadrupole Moments [e a0^2] (Nuclear + Electronic) for Singlet (Ms = 0) A1 <==


  ==> Computing RDMs <0 Singlet (Ms = 0) A1| ... |0 Singlet (Ms = 0) A1> <==

    Timing for 1-RDM: 0.000 s
       State          QM_XX          QM_XY          QM_XZ          QM_YY          QM_YZ          QM_ZZ
    --------------------------------------------------------------------------------------------------
         0A1    -6.97923300     0.00000000     0.00000000    -7.36223982     0.00000000    -7.70161301
    --------------------------------------------------------------------------------------------------
     Nuclear     0.00000000     0.00000000     0.00000000     4.38045134     0.00000000     2.31648182
    --------------------------------------------------------------------------------------------------

  ==> Computing RDMs <0 Singlet (Ms = 0) A1| ... |0 Singlet (Ms = 0) A1> <==

    Timing for 1-RDM: 0.000 s
    Timing for 2-RDM: 0.000 s

  ==> Optimizing Orbitals for Current RDMs <==

    L-BFGS Iter:  1; fx =  -56.291988259537355; g_norm = 5.902475e-04; step = 1.000e+00
    L-BFGS Iter:  2; fx =  -56.291988291895152; g_norm = 2.167694e-04; step = 1.000e+00
    L-BFGS Iter:  3; fx =  -56.291988303876082; g_norm = 2.374290e-04; step = 1.000e+00
    L-BFGS Iter:  4; fx =  -56.291988315993947; g_norm = 1.687394e-04; step = 1.000e+00
    L-BFGS Iter:  5; fx =  -56.291988317727807; g_norm = 5.222487e-05; step = 1.000e+00
    L-BFGS Iter:  6; fx =  -56.291988317922048; g_norm = 5.222487e-05; step = 1.000e+00

  ==> MCSCF Macro Iter. 5 <==

             Energy CI (  Delta E  )         Energy Opt. (  Delta E  )  E_OPT - E_CI   Orbital RMS  Micro  DIIS
      -56.291988097550 (-4.0600e-06)    -56.291988317922 (-1.0502e-06)   -2.2037e-07    1.3635e-05    6/N

  ==> Possible Electron Occupations in GAS <==

    Config.   Space 1   Space 2
               α    β    α    β 
    ---------------------------
         1     1    0    4    5
         2     0    1    5    4
         3     0    0    5    5

  ==> String Lists <==

    number of alpha electrons                              5
    number of beta electrons                               5
    number of alpha strings                               21
    number of beta strings                                21
    timing for strings                                 0.000 s
    timing for NN strings                              0.000 s
    timing for VO strings                              0.001 s
    timing for OO strings                              0.000 s
    timing for VVOO strings                            0.001 s
    timing for 1-hole strings                          0.000 s
    timing for 2-hole strings                          0.001 s
    timing for 3-hole strings                          0.002 s
    total timing                                       0.003 s


  ==> GASCI Solver <==

    Spin adapt                                         FALSE
    Number of determinants                                68
    Symmetry                                               0
    Multiplicity                                           1
    Number of roots                                        1
    Target root                                            0


  ==> Davidson-Liu Solver <==

    Energy convergence threshold                   1.000e-10
    Residual convergence threshold                 1.000e-08
    Schmidt orthogonality threshold                1.000e-12
    Schmidt discard threshold                      1.000e-07
    Size of the space                                     68
    Number of roots                                        1
    Maximum number of iterations                         100
    Collapse subspace size                                 2
    Maximum subspace size                                 10
    Print level                                            1


  Davidson-Liu solver: restarting from previous calculation.
  Iteration     Average Energy            max(∆E)            max(Residual)  Vectors
  ---------------------------------------------------------------------------------
       0      -56.291988317922        0.000000220372        0.000256590199      1
       1      -56.291988364385        0.000000046463        0.000174924657      2
       2      -56.291988378565        0.000000014180        0.000040246683      3
       3      -56.291988379105        0.000000000540        0.000009367031      4
       4      -56.291988379128        0.000000000023        0.000002097718      5
       5      -56.291988379130        0.000000000002        0.000000518648      6
       6      -56.291988379130        0.000000000000        0.000000131622      7
       7      -56.291988379130        0.000000000000        0.000000016159      8
       8      -56.291988379130        0.000000000000        0.000000004628      9
  ---------------------------------------------------------------------------------

  ==> Root No. 0 <==

    b22a 2 20      0.66951449
    a22b 2 20      0.66951449
    b22a 2 ab      0.14486365
    a22b 2 ba      0.14486365

    Total Energy:     -56.291988379130, <S^2>: 0.000000
    Time for GenCI:       0.012193750000

  ==> Energy Summary <==

    Multi.(2ms)  Irrep.  No.               Energy      <S^2>
    --------------------------------------------------------
       1  (  0)    A1     0      -56.291988379130   0.000000
    --------------------------------------------------------

  ==> Dipole Moments [e a0] (Nuclear + Electronic) for Singlet (Ms = 0) A1 <==


  ==> Computing RDMs <0 Singlet (Ms = 0) A1| ... |0 Singlet (Ms = 0) A1> <==

    Timing for 1-RDM: 0.000 s
       State           DM_X           DM_Y           DM_Z           |DM|
    --------------------------------------------------------------------
         0A1     0.00000000     0.00000000    -0.22405693     0.22405693
    --------------------------------------------------------------------
     Nuclear     0.00000000     0.00000000     1.03508051     1.03508051
    --------------------------------------------------------------------

  ==> Quadrupole Moments [e a0^2] (Nuclear + Electronic) for Singlet (Ms = 0) A1 <==


  ==> Computing RDMs <0 Singlet (Ms = 0) A1| ... |0 Singlet (Ms = 0) A1> <==

    Timing for 1-RDM: 0.000 s
       State          QM_XX          QM_XY          QM_XZ          QM_YY          QM_YZ          QM_ZZ
    --------------------------------------------------------------------------------------------------
         0A1    -6.97936229     0.00000000     0.00000000    -7.36289453     0.00000000    -7.70191632
    --------------------------------------------------------------------------------------------------
     Nuclear     0.00000000     0.00000000     0.00000000     4.38045134     0.00000000     2.31648182
    --------------------------------------------------------------------------------------------------

  ==> Computing RDMs <0 Singlet (Ms = 0) A1| ... |0 Singlet (Ms = 0) A1> <==

    Timing for 1-RDM: 0.000 s
    Timing for 2-RDM: 0.001 s

  ==> Optimizing Orbitals for Current RDMs <==

    L-BFGS Iter:  1; fx =  -56.291988390766392; g_norm = 1.504258e-04; step = 1.000e+00
    L-BFGS Iter:  2; fx =  -56.291988393303861; g_norm = 6.991049e-05; step = 1.000e+00
    L-BFGS Iter:  3; fx =  -56.291988394723859; g_norm = 7.785175e-05; step = 1.000e+00
    L-BFGS Iter:  4; fx =  -56.291988395743338; g_norm = 5.247839e-05; step = 1.000e+00
    L-BFGS Iter:  5; fx =  -56.291988395913712; g_norm = 1.589958e-05; step = 1.000e+00
    L-BFGS Iter:  6; fx =  -56.291988395932243; g_norm = 1.589958e-05; step = 1.000e+00

  ==> MCSCF Macro Iter. 6 <==

             Energy CI (  Delta E  )         Energy Opt. (  Delta E  )  E_OPT - E_CI   Orbital RMS  Micro  DIIS
      -56.291988379130 (-2.8158e-07)    -56.291988395932 (-7.8010e-08)   -1.6802e-08    5.9829e-06    6/N

  ==> Possible Electron Occupations in GAS <==

    Config.   Space 1   Space 2
               α    β    α    β 
    ---------------------------
         1     1    0    4    5
         2     0    1    5    4
         3     0    0    5    5

  ==> String Lists <==

    number of alpha electrons                              5
    number of beta electrons                               5
    number of alpha strings                               21
    number of beta strings                                21
    timing for strings                                 0.000 s
    timing for NN strings                              0.000 s
    timing for VO strings                              0.001 s
    timing for OO strings                              0.000 s
    timing for VVOO strings                            0.001 s
    timing for 1-hole strings                          0.000 s
    timing for 2-hole strings                          0.001 s
    timing for 3-hole strings                          0.002 s
    total timing                                       0.003 s


  ==> GASCI Solver <==

    Spin adapt                                         FALSE
    Number of determinants                                68
    Symmetry                                               0
    Multiplicity                                           1
    Number of roots                                        1
    Target root                                            0


  ==> Davidson-Liu Solver <==

    Energy convergence threshold                   1.000e-10
    Residual convergence threshold                 1.000e-08
    Schmidt orthogonality threshold                1.000e-12
    Schmidt discard threshold                      1.000e-07
    Size of the space                                     68
    Number of roots                                        1
    Maximum number of iterations                         100
    Collapse subspace size                                 2
    Maximum subspace size                                 10
    Print level                                            1


  Davidson-Liu solver: restarting from previous calculation.
  Iteration     Average Energy            max(∆E)            max(Residual)  Vectors
  ---------------------------------------------------------------------------------
       0      -56.291988395932        0.000000016802        0.000071651693      1
       1      -56.291988399583        0.000000003651        0.000048121982      2
       2      -56.291988400664        0.000000001081        0.000011054732      3
       3      -56.291988400706        0.000000000042        0.000002608943      4
       4      -56.291988400708        0.000000000002        0.000000618227      5
       5      -56.291988400708        0.000000000000        0.000000168576      6
       6      -56.291988400708        0.000000000000        0.000000037360      7
       7      -56.291988400708        0.000000000000        0.000000005013      8
  ---------------------------------------------------------------------------------

  ==> Root No. 0 <==

    b22a 2 20     -0.66952126
    a22b 2 20     -0.66952126
    a22b 2 ba     -0.14484413
    b22a 2 ab     -0.14484413

    Total Energy:     -56.291988400708, <S^2>: -0.000000
    Time for GenCI:       0.011458417000

  ==> Energy Summary <==

    Multi.(2ms)  Irrep.  No.               Energy      <S^2>
    --------------------------------------------------------
       1  (  0)    A1     0      -56.291988400708  -0.000000
    --------------------------------------------------------

  ==> Dipole Moments [e a0] (Nuclear + Electronic) for Singlet (Ms = 0) A1 <==


  ==> Computing RDMs <0 Singlet (Ms = 0) A1| ... |0 Singlet (Ms = 0) A1> <==

    Timing for 1-RDM: 0.000 s
       State           DM_X           DM_Y           DM_Z           |DM|
    --------------------------------------------------------------------
         0A1     0.00000000     0.00000000    -0.22412755     0.22412755
    --------------------------------------------------------------------
     Nuclear     0.00000000     0.00000000     1.03508051     1.03508051
    --------------------------------------------------------------------

  ==> Quadrupole Moments [e a0^2] (Nuclear + Electronic) for Singlet (Ms = 0) A1 <==


  ==> Computing RDMs <0 Singlet (Ms = 0) A1| ... |0 Singlet (Ms = 0) A1> <==

    Timing for 1-RDM: 0.000 s
       State          QM_XX          QM_XY          QM_XZ          QM_YY          QM_YZ          QM_ZZ
    --------------------------------------------------------------------------------------------------
         0A1    -6.97939894     0.00000000     0.00000000    -7.36307981     0.00000000    -7.70200231
    --------------------------------------------------------------------------------------------------
     Nuclear     0.00000000     0.00000000     0.00000000     4.38045134     0.00000000     2.31648182
    --------------------------------------------------------------------------------------------------

  ==> Computing RDMs <0 Singlet (Ms = 0) A1| ... |0 Singlet (Ms = 0) A1> <==

    Timing for 1-RDM: 0.000 s
    Timing for 2-RDM: 0.001 s

  ==> Optimizing Orbitals for Current RDMs <==

    L-BFGS Iter:  1; fx =  -56.291988401590189; g_norm = 4.046749e-05; step = 1.000e+00
    L-BFGS Iter:  2; fx =  -56.291988401793198; g_norm = 2.086216e-05; step = 1.000e+00
    L-BFGS Iter:  3; fx =  -56.291988401930404; g_norm = 2.316335e-05; step = 1.000e+00
    L-BFGS Iter:  4; fx =  -56.291988402009679; g_norm = 1.483505e-05; step = 1.000e+00
    L-BFGS Iter:  5; fx =  -56.291988402023513; g_norm = 4.298700e-06; step = 1.000e+00
    L-BFGS Iter:  6; fx =  -56.291988402024941; g_norm = 4.298700e-06; step = 1.000e+00

  ==> MCSCF Macro Iter. 7 <==

             Energy CI (  Delta E  )         Energy Opt. (  Delta E  )  E_OPT - E_CI   Orbital RMS  Micro  DIIS
      -56.291988400708 (-2.1578e-08)    -56.291988402025 (-6.0927e-09)   -1.3167e-09    1.9081e-06    6/N

  ==> Possible Electron Occupations in GAS <==

    Config.   Space 1   Space 2
               α    β    α    β 
    ---------------------------
         1     1    0    4    5
         2     0    1    5    4
         3     0    0    5    5

  ==> String Lists <==

    number of alpha electrons                              5
    number of beta electrons                               5
    number of alpha strings                               21
    number of beta strings                                21
    timing for strings                                 0.000 s
    timing for NN strings                              0.000 s
    timing for VO strings                              0.001 s
    timing for OO strings                              0.000 s
    timing for VVOO strings                            0.001 s
    timing for 1-hole strings                          0.000 s
    timing for 2-hole strings                          0.001 s
    timing for 3-hole strings                          0.002 s
    total timing                                       0.003 s


  ==> GASCI Solver <==

    Spin adapt                                         FALSE
    Number of determinants                                68
    Symmetry                                               0
    Multiplicity                                           1
    Number of roots                                        1
    Target root                                            0


  ==> Davidson-Liu Solver <==

    Energy convergence threshold                   1.000e-10
    Residual convergence threshold                 1.000e-08
    Schmidt orthogonality threshold                1.000e-12
    Schmidt discard threshold                      1.000e-07
    Size of the space                                     68
    Number of roots                                        1
    Maximum number of iterations                         100
    Collapse subspace size                                 2
    Maximum subspace size                                 10
    Print level                                            1


  Davidson-Liu solver: restarting from previous calculation.
  Iteration     Average Energy            max(∆E)            max(Residual)  Vectors
  ---------------------------------------------------------------------------------
       0      -56.291988402025        0.000000001317        0.000020135072      1
       1      -56.291988402314        0.000000000290        0.000013390295      2
       2      -56.291988402398        0.000000000084        0.000003079332      3
       3      -56.291988402402        0.000000000003        0.000000730770      4
       4      -56.291988402402        0.000000000000        0.000000178648      5
       5      -56.291988402402        0.000000000000        0.000000050363      6
       6      -56.291988402402        0.000000000000        0.000000010604      7
       7      -56.291988402402        0.000000000000        0.000000001475      8
  ---------------------------------------------------------------------------------

  ==> Root No. 0 <==

    a22b 2 20      0.66952307
    b22a 2 20      0.66952307
    b22a 2 ab      0.14483888
    a22b 2 ba      0.14483888

    Total Energy:     -56.291988402402, <S^2>: -0.000000
    Time for GenCI:       0.011683583000

  ==> Energy Summary <==

    Multi.(2ms)  Irrep.  No.               Energy      <S^2>
    --------------------------------------------------------
       1  (  0)    A1     0      -56.291988402402  -0.000000
    --------------------------------------------------------

  ==> Dipole Moments [e a0] (Nuclear + Electronic) for Singlet (Ms = 0) A1 <==


  ==> Computing RDMs <0 Singlet (Ms = 0) A1| ... |0 Singlet (Ms = 0) A1> <==

    Timing for 1-RDM: 0.000 s
       State           DM_X           DM_Y           DM_Z           |DM|
    --------------------------------------------------------------------
         0A1     0.00000000     0.00000000    -0.22414731     0.22414731
    --------------------------------------------------------------------
     Nuclear     0.00000000     0.00000000     1.03508051     1.03508051
    --------------------------------------------------------------------

  ==> Quadrupole Moments [e a0^2] (Nuclear + Electronic) for Singlet (Ms = 0) A1 <==


  ==> Computing RDMs <0 Singlet (Ms = 0) A1| ... |0 Singlet (Ms = 0) A1> <==

    Timing for 1-RDM: 0.000 s
       State          QM_XX          QM_XY          QM_XZ          QM_YY          QM_YZ          QM_ZZ
    --------------------------------------------------------------------------------------------------
         0A1    -6.97940929     0.00000000     0.00000000    -7.36313206     0.00000000    -7.70202658
    --------------------------------------------------------------------------------------------------
     Nuclear     0.00000000     0.00000000     0.00000000     4.38045134     0.00000000     2.31648182
    --------------------------------------------------------------------------------------------------

  ==> Computing RDMs <0 Singlet (Ms = 0) A1| ... |0 Singlet (Ms = 0) A1> <==

    Timing for 1-RDM: 0.000 s
    Timing for 2-RDM: 0.001 s

  ==> Optimizing Orbitals for Current RDMs <==

    L-BFGS Iter:  1; fx =  -56.291988402470309; g_norm = 1.113112e-05; step = 1.000e+00
    L-BFGS Iter:  2; fx =  -56.291988402486467; g_norm = 6.053889e-06; step = 1.000e+00
    L-BFGS Iter:  3; fx =  -56.291988402498532; g_norm = 6.664819e-06; step = 1.000e+00
    L-BFGS Iter:  4; fx =  -56.291988402504657; g_norm = 4.124800e-06; step = 1.000e+00
    L-BFGS Iter:  5; fx =  -56.291988402505709; g_norm = 1.157150e-06; step = 1.000e+00
    L-BFGS Iter:  6; fx =  -56.291988402505886; g_norm = 1.157150e-06; step = 1.000e+00

  ==> MCSCF Macro Iter. 8 <==

             Energy CI (  Delta E  )         Energy Opt. (  Delta E  )  E_OPT - E_CI   Orbital RMS  Micro  DIIS
      -56.291988402402 (-1.6936e-09)    -56.291988402506 (-4.8095e-10)   -1.0401e-10    5.1667e-07    6/N

  ==> Possible Electron Occupations in GAS <==

    Config.   Space 1   Space 2
               α    β    α    β 
    ---------------------------
         1     1    0    4    5
         2     0    1    5    4
         3     0    0    5    5

  ==> String Lists <==

    number of alpha electrons                              5
    number of beta electrons                               5
    number of alpha strings                               21
    number of beta strings                                21
    timing for strings                                 0.000 s
    timing for NN strings                              0.000 s
    timing for VO strings                              0.001 s
    timing for OO strings                              0.000 s
    timing for VVOO strings                            0.001 s
    timing for 1-hole strings                          0.000 s
    timing for 2-hole strings                          0.001 s
    timing for 3-hole strings                          0.002 s
    total timing                                       0.003 s


  ==> GASCI Solver <==

    Spin adapt                                         FALSE
    Number of determinants                                68
    Symmetry                                               0
    Multiplicity                                           1
    Number of roots                                        1
    Target root                                            0


  ==> Davidson-Liu Solver <==

    Energy convergence threshold                   1.000e-10
    Residual convergence threshold                 1.000e-08
    Schmidt orthogonality threshold                1.000e-12
    Schmidt discard threshold                      1.000e-07
    Size of the space                                     68
    Number of roots                                        1
    Maximum number of iterations                         100
    Collapse subspace size                                 2
    Maximum subspace size                                 10
    Print level                                            1


  Davidson-Liu solver: restarting from previous calculation.
  Iteration     Average Energy            max(∆E)            max(Residual)  Vectors
  ---------------------------------------------------------------------------------
       0      -56.291988402506        0.000000000104        0.000005666101      1
       1      -56.291988402529        0.000000000023        0.000003746117      2
       2      -56.291988402535        0.000000000007        0.000000862731      3
       3      -56.291988402536        0.000000000000        0.000000205284      4
       4      -56.291988402536        0.000000000000        0.000000050992      5
       5      -56.291988402536        0.000000000000        0.000000014576      6
       6      -56.291988402536        0.000000000000        0.000000003000      7
  ---------------------------------------------------------------------------------

  ==> Root No. 0 <==

    b22a 2 20     -0.66952356
    a22b 2 20     -0.66952356
    a22b 2 ba     -0.14483744
    b22a 2 ab     -0.14483744

    Total Energy:     -56.291988402536, <S^2>: 0.000000
    Time for GenCI:       0.011754833000

  ==> Energy Summary <==

    Multi.(2ms)  Irrep.  No.               Energy      <S^2>
    --------------------------------------------------------
       1  (  0)    A1     0      -56.291988402536   0.000000
    --------------------------------------------------------

  ==> Dipole Moments [e a0] (Nuclear + Electronic) for Singlet (Ms = 0) A1 <==


  ==> Computing RDMs <0 Singlet (Ms = 0) A1| ... |0 Singlet (Ms = 0) A1> <==

    Timing for 1-RDM: 0.000 s
       State           DM_X           DM_Y           DM_Z           |DM|
    --------------------------------------------------------------------
         0A1     0.00000000     0.00000000    -0.22415285     0.22415285
    --------------------------------------------------------------------
     Nuclear     0.00000000     0.00000000     1.03508051     1.03508051
    --------------------------------------------------------------------

  ==> Quadrupole Moments [e a0^2] (Nuclear + Electronic) for Singlet (Ms = 0) A1 <==


  ==> Computing RDMs <0 Singlet (Ms = 0) A1| ... |0 Singlet (Ms = 0) A1> <==

    Timing for 1-RDM: 0.000 s
       State          QM_XX          QM_XY          QM_XZ          QM_YY          QM_YZ          QM_ZZ
    --------------------------------------------------------------------------------------------------
         0A1    -6.97941221     0.00000000     0.00000000    -7.36314677     0.00000000    -7.70203342
    --------------------------------------------------------------------------------------------------
     Nuclear     0.00000000     0.00000000     0.00000000     4.38045134     0.00000000     2.31648182
    --------------------------------------------------------------------------------------------------

  ==> Computing RDMs <0 Singlet (Ms = 0) A1| ... |0 Singlet (Ms = 0) A1> <==

    Timing for 1-RDM: 0.000 s
    Timing for 2-RDM: 0.001 s

  ==> Optimizing Orbitals for Current RDMs <==

    L-BFGS Iter:  1; fx =  -56.291988402540966; g_norm = 3.095456e-06; step = 1.000e+00
    L-BFGS Iter:  2; fx =  -56.291988402542273; g_norm = 1.730446e-06; step = 1.000e+00
    L-BFGS Iter:  3; fx =  -56.291988402543318; g_norm = 1.892292e-06; step = 1.000e+00
    L-BFGS Iter:  4; fx =  -56.291988402543801; g_norm = 1.147895e-06; step = 1.000e+00
    L-BFGS Iter:  5; fx =  -56.291988402543836; g_norm = 3.158856e-07; step = 1.000e+00
    L-BFGS Iter:  6; fx =  -56.291988402543886; g_norm = 3.158856e-07; step = 1.000e+00

  ==> MCSCF Macro Iter. 9 <==

             Energy CI (  Delta E  )         Energy Opt. (  Delta E  )  E_OPT - E_CI   Orbital RMS  Micro  DIIS
      -56.291988402536 (-1.3377e-10)    -56.291988402544 (-3.8000e-11)   -8.2423e-12    1.3833e-07    6/N

  ==> Possible Electron Occupations in GAS <==

    Config.   Space 1   Space 2
               α    β    α    β 
    ---------------------------
         1     1    0    4    5
         2     0    1    5    4
         3     0    0    5    5

  ==> String Lists <==

    number of alpha electrons                              5
    number of beta electrons                               5
    number of alpha strings                               21
    number of beta strings                                21
    timing for strings                                 0.000 s
    timing for NN strings                              0.000 s
    timing for VO strings                              0.001 s
    timing for OO strings                              0.000 s
    timing for VVOO strings                            0.001 s
    timing for 1-hole strings                          0.000 s
    timing for 2-hole strings                          0.001 s
    timing for 3-hole strings                          0.002 s
    total timing                                       0.003 s


  ==> GASCI Solver <==

    Spin adapt                                         FALSE
    Number of determinants                                68
    Symmetry                                               0
    Multiplicity                                           1
    Number of roots                                        1
    Target root                                            0


  ==> Davidson-Liu Solver <==

    Energy convergence threshold                   1.000e-10
    Residual convergence threshold                 1.000e-08
    Schmidt orthogonality threshold                1.000e-12
    Schmidt discard threshold                      1.000e-07
    Size of the space                                     68
    Number of roots                                        1
    Maximum number of iterations                         100
    Collapse subspace size                                 2
    Maximum subspace size                                 10
    Print level                                            1


  Davidson-Liu solver: restarting from previous calculation.
  Iteration     Average Energy            max(∆E)            max(Residual)  Vectors
  ---------------------------------------------------------------------------------
       0      -56.291988402544        0.000000000008        0.000001594937      1
       1      -56.291988402546        0.000000000002        0.000001051047      2
       2      -56.291988402546        0.000000000001        0.000000242269      3
       3      -56.291988402546        0.000000000000        0.000000057725      4
       4      -56.291988402546        0.000000000000        0.000000014488      5
       5      -56.291988402546        0.000000000000        0.000000004169      6
  ---------------------------------------------------------------------------------

  ==> Root No. 0 <==

    b22a 2 20      0.66952370
    a22b 2 20      0.66952370
    a22b 2 ba      0.14483704
    b22a 2 ab      0.14483704

    Total Energy:     -56.291988402546, <S^2>: -0.000000
    Time for GenCI:       0.010629959000

  ==> Energy Summary <==

    Multi.(2ms)  Irrep.  No.               Energy      <S^2>
    --------------------------------------------------------
       1  (  0)    A1     0      -56.291988402546  -0.000000
    --------------------------------------------------------

  ==> Dipole Moments [e a0] (Nuclear + Electronic) for Singlet (Ms = 0) A1 <==


  ==> Computing RDMs <0 Singlet (Ms = 0) A1| ... |0 Singlet (Ms = 0) A1> <==

    Timing for 1-RDM: 0.000 s
       State           DM_X           DM_Y           DM_Z           |DM|
    --------------------------------------------------------------------
         0A1     0.00000000     0.00000000    -0.22415441     0.22415441
    --------------------------------------------------------------------
     Nuclear     0.00000000     0.00000000     1.03508051     1.03508051
    --------------------------------------------------------------------

  ==> Quadrupole Moments [e a0^2] (Nuclear + Electronic) for Singlet (Ms = 0) A1 <==


  ==> Computing RDMs <0 Singlet (Ms = 0) A1| ... |0 Singlet (Ms = 0) A1> <==

    Timing for 1-RDM: 0.000 s
       State          QM_XX          QM_XY          QM_XZ          QM_YY          QM_YZ          QM_ZZ
    --------------------------------------------------------------------------------------------------
         0A1    -6.97941303     0.00000000     0.00000000    -7.36315092     0.00000000    -7.70203535
    --------------------------------------------------------------------------------------------------
     Nuclear     0.00000000     0.00000000     0.00000000     4.38045134     0.00000000     2.31648182
    --------------------------------------------------------------------------------------------------

  ==> Computing RDMs <0 Singlet (Ms = 0) A1| ... |0 Singlet (Ms = 0) A1> <==

    Timing for 1-RDM: 0.000 s
    Timing for 2-RDM: 0.001 s

  ==> Optimizing Orbitals for Current RDMs <==

    L-BFGS Iter:  1; fx =  -56.291988402546693; g_norm = 8.660310e-07; step = 1.000e+00
    L-BFGS Iter:  2; fx =  -56.291988402546778; g_norm = 4.908783e-07; step = 1.000e+00
    L-BFGS Iter:  3; fx =  -56.291988402546835; g_norm = 5.344940e-07; step = 1.000e+00
    L-BFGS Iter:  4; fx =  -56.291988402546906; g_norm = 3.208339e-07; step = 1.000e+00
    L-BFGS Iter:  5; fx =  -56.291988402546885; g_norm = 8.739650e-08; step = 1.000e+00

  ==> MCSCF Macro Iter. 10 <==

             Energy CI (  Delta E  )         Energy Opt. (  Delta E  )  E_OPT - E_CI   Orbital RMS  Micro  DIIS
      -56.291988402546 (-1.0594e-11)    -56.291988402547 (-2.9985e-12)   -6.4659e-13    3.7566e-08    5/Y

  A miracle has come to pass: MCSCF iterations have converged!

  ==> MCSCF Iteration Summary <==

                      Energy CI                    Energy Orbital
           ------------------------------  ------------------------------
    Iter.        Total Energy       Delta        Total Energy       Delta  Orb. Grad.  Micro
    ----------------------------------------------------------------------------------------
       1     -55.841944170272  0.0000e+00    -56.269807573882  0.0000e+00  5.2329e-01     6
       2     -56.286652663502 -4.4471e-01    -56.291441772856 -2.1634e-02  5.6955e-03     6
       3     -56.291898760662 -5.2461e-03    -56.291970214037 -5.2844e-04  2.3848e-03     6
       4     -56.291984037596 -8.5277e-05    -56.291987267760 -1.7054e-05  7.6764e-05     6
       5     -56.291988097550 -4.0600e-06    -56.291988317922 -1.0502e-06  1.3635e-05     6
       6     -56.291988379130 -2.8158e-07    -56.291988395932 -7.8010e-08  5.9829e-06     6
       7     -56.291988400708 -2.1578e-08    -56.291988402025 -6.0927e-09  1.9081e-06     6
       8     -56.291988402402 -1.6936e-09    -56.291988402506 -4.8095e-10  5.1667e-07     6
       9     -56.291988402536 -1.3377e-10    -56.291988402544 -3.8000e-11  1.3833e-07     6
      10     -56.291988402546 -1.0594e-11    -56.291988402547 -2.9985e-12  3.7566e-08     5
    ----------------------------------------------------------------------------------------

  ==> Possible Electron Occupations in GAS <==

    Config.   Space 1   Space 2
               α    β    α    β 
    ---------------------------
         1     1    0    4    5
         2     0    1    5    4
         3     0    0    5    5

  ==> String Lists <==

    number of alpha electrons                              5
    number of beta electrons                               5
    number of alpha strings                               21
    number of beta strings                                21
    timing for strings                                 0.000 s
    timing for NN strings                              0.000 s
    timing for VO strings                              0.001 s
    timing for OO strings                              0.000 s
    timing for VVOO strings                            0.001 s
    timing for 1-hole strings                          0.000 s
    timing for 2-hole strings                          0.001 s
    timing for 3-hole strings                          0.002 s
    total timing                                       0.003 s


  ==> GASCI Solver <==

    Spin adapt                                         FALSE
    Number of determinants                                68
    Symmetry                                               0
    Multiplicity                                           1
    Number of roots                                        1
    Target root                                            0


  ==> Davidson-Liu Solver <==

    Energy convergence threshold                   1.000e-10
    Residual convergence threshold                 1.000e-08
    Schmidt orthogonality threshold                1.000e-12
    Schmidt discard threshold                      1.000e-07
    Size of the space                                     68
    Number of roots                                        1
    Maximum number of iterations                         100
    Collapse subspace size                                 2
    Maximum subspace size                                 10
    Print level                                            1


  Davidson-Liu solver: restarting from previous calculation.
  Iteration     Average Energy            max(∆E)            max(Residual)  Vectors
  ---------------------------------------------------------------------------------
       0      -56.291988402547        0.000000000001        0.000000443878      1
       1      -56.291988402547        0.000000000000        0.000000291005      2
       2      -56.291988402547        0.000000000000        0.000000067130      3
       3      -56.291988402547        0.000000000000        0.000000016141      4
       4      -56.291988402547        0.000000000000        0.000000004139      5
  ---------------------------------------------------------------------------------

  ==> Root No. 0 <==

    b22a 2 20     -0.66952374
    a22b 2 20     -0.66952374
    a22b 2 ba     -0.14483693
    b22a 2 ab     -0.14483693

    Total Energy:     -56.291988402547, <S^2>: 0.000000
    Time for GenCI:       0.009688375000

  ==> Energy Summary <==

    Multi.(2ms)  Irrep.  No.               Energy      <S^2>
    --------------------------------------------------------
       1  (  0)    A1     0      -56.291988402547   0.000000
    --------------------------------------------------------

  ==> Dipole Moments [e a0] (Nuclear + Electronic) for Singlet (Ms = 0) A1 <==


  ==> Computing RDMs <0 Singlet (Ms = 0) A1| ... |0 Singlet (Ms = 0) A1> <==

    Timing for 1-RDM: 0.000 s
       State           DM_X           DM_Y           DM_Z           |DM|
    --------------------------------------------------------------------
         0A1     0.00000000     0.00000000    -0.22415484     0.22415484
    --------------------------------------------------------------------
     Nuclear     0.00000000     0.00000000     1.03508051     1.03508051
    --------------------------------------------------------------------

  ==> Quadrupole Moments [e a0^2] (Nuclear + Electronic) for Singlet (Ms = 0) A1 <==


  ==> Computing RDMs <0 Singlet (Ms = 0) A1| ... |0 Singlet (Ms = 0) A1> <==

    Timing for 1-RDM: 0.000 s
       State          QM_XX          QM_XY          QM_XZ          QM_YY          QM_YZ          QM_ZZ
    --------------------------------------------------------------------------------------------------
         0A1    -6.97941326     0.00000000     0.00000000    -7.36315207     0.00000000    -7.70203588
    --------------------------------------------------------------------------------------------------
     Nuclear     0.00000000     0.00000000     0.00000000     4.38045134     0.00000000     2.31648182
    --------------------------------------------------------------------------------------------------

  ==> Computing RDMs <0 Singlet (Ms = 0) A1| ... |0 Singlet (Ms = 0) A1> <==

    Timing for 1-RDM: 0.000 s

  ==> Semicanonicalize Orbitals <==

    MIX INACTIVE ORBITALS   ...... FALSE
    MIX GAS ACTIVE ORBITALS ...... FALSE
    FROZEN_DOCC     ...  CANONICAL
    FROZEN_UOCC     ...  CANONICAL
    GAS1            ...  CANONICAL
    GAS2            ...  CANONICAL
    RESTRICTED_DOCC ...  CANONICAL
    RESTRICTED_UOCC ...  CANONICAL

    Off-Diag. Elements       Max           2-Norm
    ------------------------------------------------
    GAS1                 0.0000000000   0.0000000000
    GAS2                 0.2207251852   0.4035558589
    RESTRICTED_UOCC      0.2078960333   0.5183166951
    ------------------------------------------------

    Canonicalization test failed

  Timing for orbital canonicalization:                        0.000 s.

  Time to prepare integrals:        0.007 seconds
  Time to run job          :        0.583 seconds
  Total                    :        0.591 seconds
    GASSCF energy.........................................................................PASSED

    Psi4 stopped on: Friday, 10 November 2023 04:00PM
    Psi4 wall time for execution: 0:00:00.96

*** Psi4 exiting successfully. Buy a developer a beer!
