
    -----------------------------------------------------------------------
          Psi4: An Open-Source Ab Initio Electronic Structure Package
                               Psi4 1.4a2.dev1024 

                         Git: Rev {master} b603cfc dirty


    D. G. A. Smith, L. A. Burns, A. C. Simmonett, R. M. Parrish,
    M. C. Schieber, R. Galvelis, P. Kraus, H. Kruse, R. Di Remigio,
    A. Alenaizan, A. M. James, S. Lehtola, J. P. Misiewicz, M. Scheurer,
    R. A. Shaw, J. B. Schriber, Y. Xie, Z. L. Glick, D. A. Sirianni,
    J. S. O'Brien, J. M. Waldrop, A. Kumar, E. G. Hohenstein,
    B. P. Pritchard, B. R. Brooks, H. F. Schaefer III, A. Yu. Sokolov,
    K. Patkowski, A. E. DePrince III, U. Bozkaya, R. A. King,
    F. A. Evangelista, J. M. Turney, T. D. Crawford, C. D. Sherrill,
    J. Chem. Phys. 152(18) 184108 (2020). https://doi.org/10.1063/5.0006002

                            Additional Code Authors
    E. T. Seidl, C. L. Janssen, E. F. Valeev, M. L. Leininger,
    J. F. Gonthier, R. M. Richard, H. R. McAlexander, M. Saitow, X. Wang,
    P. Verma, and M. H. Lechner

             Previous Authors, Complete List of Code Contributors,
                       and Citations for Specific Modules
    https://github.com/psi4/psi4/blob/master/codemeta.json
    https://github.com/psi4/psi4/graphs/contributors
    http://psicode.org/psi4manual/master/introduction.html#citing-psifour

    -----------------------------------------------------------------------


    Psi4 started on: Thursday, 12 November 2020 09:11PM

    Process ID: 86701
    Host:       Yorks-Mac.local
    PSIDATADIR: /Users/york/src/psi4new/psi4/share/psi4
    Memory:     500.0 MiB
    Threads:    1
    
  ==> Input File <==

--------------------------------------------------------------------------
#! Generated using commit GITCOMMIT 
# GASSCF for core-excited state with core orbital frozen
# Without CASSCF_FROZEN_ORBITAL this will collapse to ground state and not converge

import forte

refscf = -76.0172965561
refgasscf = -56.29198840256376712

memory 1000mb
molecule h2o{
   O
   H  1 1.00
   H  1 1.00 2 103.1
}

set global {
  basis 6-31g**
  e_convergence 10
  d_convergence 10
  r_convergence 10
  guess gwh
  scf_type pk
  reference rhf
}

set scf_type direct
set forte {
  active_space_solver aci
  ms 0.0
  multiplicity 1
  sigma 0.00
  root_sym 0
  charge 0
  sci_enforce_spin_complete true
  e_convergence 10
  charge 0
  active_ref_type gas
  one_cycle True
  GAS1 [1,0,0,0]
  GAS2 [3,0,1,2]
  GAS1MAX [1]
  GAS1MIN [0]
  job_type casscf
  casscf_ci_solver aci
  casscf_maxiter 100
  casscf_e_convergence 1e-10
  casscf_active_frozen_orbital [0]
  casscf_diis_start 15
}

escf, wfn = energy('scf', return_wfn=True)
egasscf = energy('forte', ref_wfn=wfn)
compare_values(refgasscf, egasscf, 8, "GASSCF energy")
--------------------------------------------------------------------------

  Memory set to 953.674 MiB by Python driver.

Scratch directory: /Users/york/scratch/psi4/

*** tstart() called on Yorks-Mac.local
*** at Thu Nov 12 21:11:14 2020

   => Loading Basis Set <=

    Name: 6-31G**
    Role: ORBITAL
    Keyword: BASIS
    atoms 1   entry O          line   149 file /Users/york/src/psi4new/psi4/share/psi4/basis/6-31gss.gbs 
    atoms 2-3 entry H          line    44 file /Users/york/src/psi4new/psi4/share/psi4/basis/6-31gss.gbs 


         ---------------------------------------------------------
                                   SCF
               by Justin Turney, Rob Parrish, Andy Simmonett
                          and Daniel G. A. Smith
                              RHF Reference
                        1 Threads,    953 MiB Core
         ---------------------------------------------------------

  ==> Geometry <==

    Molecular point group: c2v
    Full point group: C2v

    Geometry (in Angstrom), charge = 0, multiplicity = 1:

       Center              X                  Y                   Z               Mass       
    ------------   -----------------  -----------------  -----------------  -----------------
         O            0.000000000000     0.000000000000    -0.069592187400    15.994914619570
         H            0.000000000000    -0.783151105291     0.552239257834     1.007825032230
         H            0.000000000000     0.783151105291     0.552239257834     1.007825032230

  Running in c2v symmetry.

  Rotational constants: A =     24.35462  B =     13.63610  C =      8.74166 [cm^-1]
  Rotational constants: A = 730133.21529  B = 408800.04239  C = 262068.46393 [MHz]
  Nuclear repulsion =    8.804686653247025

  Charge       = 0
  Multiplicity = 1
  Electrons    = 10
  Nalpha       = 5
  Nbeta        = 5

  ==> Algorithm <==

  SCF Algorithm Type is DIRECT.
  DIIS enabled.
  MOM disabled.
  Fractional occupation disabled.
  Guess Type is GWH.
  Energy threshold   = 1.00e-10
  Density threshold  = 1.00e-10
  Integral threshold = 0.00e+00

  ==> Primary Basis <==

  Basis Set: 6-31G**
    Blend: 6-31G**
    Number of shells: 12
    Number of basis function: 25
    Number of Cartesian functions: 25
    Spherical Harmonics?: false
    Max angular momentum: 2

   => Loading Basis Set <=

    Name: (6-31G** AUX)
    Role: JKFIT
    Keyword: DF_BASIS_SCF
    atoms 1   entry O          line   221 file /Users/york/src/psi4new/psi4/share/psi4/basis/cc-pvdz-jkfit.gbs 
    atoms 2-3 entry H          line    51 file /Users/york/src/psi4new/psi4/share/psi4/basis/cc-pvdz-jkfit.gbs 

  Starting with a DF guess...

  ==> Integral Setup <==

  DFHelper Memory: AOs need 0.001 GiB; user supplied 0.698 GiB. Using in-core AOs.

  ==> MemDFJK: Density-Fitted J/K Matrices <==

    J tasked:                   Yes
    K tasked:                   Yes
    wK tasked:                   No
    OpenMP threads:               1
    Memory [MiB]:               715
    Algorithm:                 Core
    Schwarz Cutoff:           1E-12
    Mask sparsity (%):       0.0000
    Fitting Condition:        1E-10

   => Auxiliary Basis Set <=

  Basis Set: (6-31G** AUX)
    Blend: CC-PVDZ-JKFIT
    Number of shells: 42
    Number of basis function: 131
    Number of Cartesian functions: 131
    Spherical Harmonics?: false
    Max angular momentum: 3

  Minimum eigenvalue in the overlap matrix is 2.2571686435E-02.
  Reciprocal condition number of the overlap matrix is 5.1514795888E-03.
    Using symmetric orthogonalization.

  ==> Pre-Iterations <==

  SCF Guess: Generalized Wolfsberg-Helmholtz.

   -------------------------------------------------------
    Irrep   Nso     Nmo     Nalpha   Nbeta   Ndocc  Nsocc
   -------------------------------------------------------
     A1        12      12       3       3       3       0
     A2         2       2       0       0       0       0
     B1         4       4       1       1       1       0
     B2         7       7       1       1       1       0
   -------------------------------------------------------
    Total      25      25       5       5       5       0
   -------------------------------------------------------

  ==> Iterations <==

                           Total Energy        Delta E     RMS |[F,P]|

   @DF-RHF iter   1:   -74.69502194331994   -7.46950e+01   1.19380e-01 DIIS
   @DF-RHF iter   2:   -75.63883488360746   -9.43813e-01   7.21524e-02 DIIS
   @DF-RHF iter   3:   -76.01065330024663   -3.71818e-01   7.66497e-03 DIIS
   @DF-RHF iter   4:   -76.01705150839236   -6.39821e-03   1.07848e-03 DIIS
   @DF-RHF iter   5:   -76.01724771498378   -1.96207e-04   2.45196e-04 DIIS
   @DF-RHF iter   6:   -76.01725930218001   -1.15872e-05   5.17439e-05 DIIS
   @DF-RHF iter   7:   -76.01725996692933   -6.64749e-07   8.86755e-06 DIIS
   @DF-RHF iter   8:   -76.01725998301265   -1.60833e-08   1.68546e-06 DIIS
   @DF-RHF iter   9:   -76.01725998411617   -1.10352e-09   3.99731e-07 DIIS
   @DF-RHF iter  10:   -76.01725998416693   -5.07612e-11   4.32937e-08 DIIS
   @DF-RHF iter  11:   -76.01725998416728   -3.55271e-13   4.33252e-09 DIIS
   @DF-RHF iter  12:   -76.01725998416723    5.68434e-14   4.75419e-10 DIIS
   @DF-RHF iter  13:   -76.01725998416731   -8.52651e-14   4.32046e-11 DIIS

  DF guess converged.

  ==> DirectJK: Integral-Direct J/K Matrices <==

    J tasked:                  Yes
    K tasked:                  Yes
    wK tasked:                  No
    Integrals threads:           1
    Schwarz Cutoff:          1E-12

   @RHF iter  14:   -76.01729654450097   -7.60173e+01   1.19915e-05 DIIS
   @RHF iter  15:   -76.01729655577866   -1.12777e-08   1.64017e-06 DIIS
   @RHF iter  16:   -76.01729655606727   -2.88608e-10   4.89639e-07 DIIS
   @RHF iter  17:   -76.01729655608833   -2.10605e-11   1.68507e-07 DIIS
   @RHF iter  18:   -76.01729655609125   -2.92744e-12   4.58642e-08 DIIS
   @RHF iter  19:   -76.01729655609148   -2.27374e-13   5.21060e-09 DIIS
   @RHF iter  20:   -76.01729655609148    0.00000e+00   7.84812e-10 DIIS
   @RHF iter  21:   -76.01729655609154   -5.68434e-14   1.27029e-10 DIIS
   @RHF iter  22:   -76.01729655609157   -2.84217e-14   2.82298e-11 DIIS
  Energy and wave function converged.


  ==> Post-Iterations <==

    Orbital Energies [Eh]
    ---------------------

    Doubly Occupied:                                                      

       1A1   -20.569000     2A1    -1.320609     1B2    -0.678724  
       3A1    -0.563930     1B1    -0.495004  

    Virtual:                                                              

       4A1     0.202466     2B2     0.292719     3B2     0.981164  
       5A1     1.056318     6A1     1.129179     2B1     1.168639  
       4B2     1.294985     7A1     1.413596     1A2     1.802875  
       8A1     1.806916     3B1     1.918871     9A1     2.513249  
       5B2     2.537822     6B2     2.713577     2A2     2.921065  
       4B1     2.947486    10A1     3.291755    11A1     3.620730  
       7B2     3.874917    12A1     4.077740  

    Final Occupation by Irrep:
             A1    A2    B1    B2 
    DOCC [     3,    0,    1,    1 ]

  @RHF Final Energy:   -76.01729655609157

   => Energetics <=

    Nuclear Repulsion Energy =              8.8046866532470247
    One-Electron Energy =                -122.3894315645718223
    Two-Electron Energy =                  37.5674483552332390
    Total Energy =                        -76.0172965560915657

Computation Completed


Properties will be evaluated at   0.000000,   0.000000,   0.000000 [a0]

Properties computed using the SCF density matrix

  Nuclear Dipole Moment: [e a0]
     X:     0.0000      Y:     0.0000      Z:     1.0351

  Electronic Dipole Moment: [e a0]
     X:     0.0000      Y:     0.0000      Z:    -0.1532

  Dipole Moment: [e a0]
     X:     0.0000      Y:     0.0000      Z:     0.8819     Total:     0.8819

  Dipole Moment: [D]
     X:     0.0000      Y:     0.0000      Z:     2.2414     Total:     2.2414


*** tstop() called on Yorks-Mac.local at Thu Nov 12 21:11:14 2020
Module time:
	user time   =       0.26 seconds =       0.00 minutes
	system time =       0.01 seconds =       0.00 minutes
	total time  =          0 seconds =       0.00 minutes
Total time:
	user time   =       0.26 seconds =       0.00 minutes
	system time =       0.01 seconds =       0.00 minutes
	total time  =          0 seconds =       0.00 minutes

Scratch directory: /Users/york/scratch/psi4/

  Forte
  ----------------------------------------------------------------------------
  A suite of quantum chemistry methods for strongly correlated electrons

    git branch: gasci-msaverage - git commit: 6561a55f

  Developed by:
    Francesco A. Evangelista, Chenyang Li, Kevin P. Hannon,
    Jeffrey B. Schriber, Tianyuan Zhang, Chenxi Cai,
    Nan He, Nicholas Stair, Shuhe Wang, Renke Huang
  ----------------------------------------------------------------------------

  Size of Determinant class: 256 bits
  Preparing forte objects from a psi4 Wavefunction object   => Loading Basis Set <=

    Name: STO-3G
    Role: ORBITAL
    Keyword: MINAO_BASIS
    atoms 1   entry O          line    81 file /Users/york/src/psi4new/psi4/share/psi4/basis/sto-3g.gbs 
    atoms 2-3 entry H          line    19 file /Users/york/src/psi4new/psi4/share/psi4/basis/sto-3g.gbs 


  Read options for space GAS1
  Read options for space GAS2
  Read options for space GAS1
  Read options for space GAS2

  ==> MO Space Information <==

  -------------------------------------------------
                       A1    A2    B1    B2   Sum
  -------------------------------------------------
    FROZEN_DOCC         0     0     0     0     0
    RESTRICTED_DOCC     0     0     0     0     0
    GAS1                1     0     0     0     1
    GAS2                3     0     1     2     6
    GAS3                0     0     0     0     0
    GAS4                0     0     0     0     0
    GAS5                0     0     0     0     0
    GAS6                0     0     0     0     0
    RESTRICTED_UOCC     8     2     3     5    18
    FROZEN_UOCC         0     0     0     0     0
    Total              12     2     4     7    25
  -------------------------------------------------
  Forte will use psi4 integrals
  JK created using conventional PK integrals
  Using in-core PK algorithm.
   Calculation information:
      Number of atoms:                   3
      Number of AO shells:              12
      Number of primitives:             25
      Number of atomic orbitals:        25
      Number of basis functions:        25

      Integral cutoff                 1.00e-12
      Number of threads:                 1

  Performing in-core PK
  Using 105950 doubles for integral storage.
  We computed 3081 shell quartets total.
  Whereas there are 3081 unique shell quartets.



  ==> Integral Transformation <==

  Number of molecular orbitals:                    25
  Number of correlated molecular orbitals:         25
  Number of frozen occupied orbitals:               0
  Number of frozen unoccupied orbitals:             0
  Two-electron integral type:              Conventional


  Overall Conventional Integrals timings


  Computing Conventional Integrals	Presorting SO-basis two-electron integrals.
	Sorting File: SO Ints (nn|nn) nbuckets = 1
	Constructing frozen core operators
	Starting first half-transformation.
	Sorting half-transformed integrals.
	First half integral transformation complete.
	Starting second half-transformation.
	Two-electron integral transformation complete.

  Integral transformation done. 0.01347645 s
  Reading the two-electron integrals from disk
  Size of two-electron integrals:   0.008731 GB
  Timing for conventional integral transformation:            0.035 s.
  Timing for freezing core and virtual orbitals:              0.000 s.
  Conventional integrals take 0.03525510 s

                -----------------------------------------------
                  Complete Active Space Self Consistent Field
                                 Kevin Hannon
                -----------------------------------------------
  Using in-core PK algorithm.
   Calculation information:
      Number of atoms:                   3
      Number of AO shells:              12
      Number of primitives:             25
      Number of atomic orbitals:        25
      Number of basis functions:        25

      Integral cutoff                 1.00e-12
      Number of threads:                 1

  Performing in-core PK
  Using 105950 doubles for integral storage.
  We computed 3081 shell quartets total.
  Whereas there are 3081 unique shell quartets.


    JK takes 0.01954 s

  ==> CASSCF Iteration <==

  iter    ||g||           Delta_E            E_CASSCF       CONV_TYPE

  Transform Integrals takes 0.00699551 s.

  Performing a CAS with ACI

  ==> Summary of Active Space Solver Input <==

    Irrep.  Multi.(2ms)      N
    --------------------------
       A1      1  (  0)      1
    --------------------------
    N: number of roots
    ms: spin z component
    Total number of roots:   1
    --------------------------


-------------------------------------------------------------------------------
               Selected Configuration Interaction Excited States
  written by Jeffrey B. Schriber, Tianyuan Zhang and Francesco A. Evangelista
-------------------------------------------------------------------------------

  ==> Reference Information <==

  ==> Calculation Information <==

  -----------------------------------------------------------------
    Multiplicity                             1    
    Symmetry                                 0    
    Number of roots                          1    
    Ms                                       0
    Excited Algorithm                        NONE
  -----------------------------------------------------------------
  Using 1 threads
  Computing wavefunction for root 0

        ---------------------------------------------------------------
                      Adaptive Configuration Interaction
          written by Jeffrey B. Schriber and Francesco A. Evangelista
        ---------------------------------------------------------------

  ==> Reference Information <==

  There are 0 frozen orbitals.
  There are 7 active orbitals.

  ==> Calculation Information <==

  -----------------------------------------------------------------
    Multiplicity                             1    
    Symmetry                                 0    
    Number of roots                          1    
    Root used for properties                 0    
    Sigma (Eh)                               0.00e+00
    Gamma (Eh^(-1))                          1.00e+00
    Convergence threshold                    1.00e-09
    Ms                                       0
    Diagonalization algorithm                SPARSE
    Excited Algorithm                        NONE
    Project out spin contaminants            True
    Enforce spin completeness of basis       True
    Enforce complete aimed selection         True
  -----------------------------------------------------------------
  Number of active alpha electrons: 5
  Number of active beta electrons: 5
  Maximum reference space size: 1000
  The maximum number of electrons in GAS1 is 1
  The minimum number of electrons in GAS1 is 0
  The maximum number of electrons in GAS2 is 10 
  The minimum number of electrons in GAS2 is 0
  
  Possible electron occupations in the GAS 
  GAS1_A  GAS1_B  GAS2_A  GAS2_B  
     1       0       4       5    
     0       1       5       4    
     0       0       5       5    

  GAS Orbital Energies
  GAS   Energies    Orb 
  1  -20.568999574  0 
  2  -1.320609273  1 
  2  -0.563930450  2 
  2   0.202465902  3 
  2  -0.495003944  4 
  2  -0.678724187  5 
  2   0.292719335  6 

  ==> Diagonalizing the Hamiltonian in the P + Q space <==

  Number of reference roots: 1

  ==> Computing Coupling Lists <==
  --------------------------------
        α          0.000143 s
        β          0.000143 s
        αα         0.000224 s
        ββ         0.000228 s
        αβ         0.000560 s
  --------------------------------

  Davidson-Liu solver algorithm using SigmaVectorSparseList sigma algorithm

  Performing diagonalization of the H matrix
  Found 33 roots with 2S+1 = 1 *
  Found 31 roots with 2S+1 = 3
  Found 4 roots with 2S+1 = 5
  Total time spent diagonalizing H:   0.002728 s

    PQ-space CI Energy Root   0        = -55.841944166829 Eh =   0.0000 eV, S^2 = 0.000000
    PQ-space CI Energy + EPT2 Root   0 = -55.841944166829 Eh =   0.0000 eV

  
  GAS Contribution Analysis  
  GAS contributions root 0: 
  GAS1_A    GASI_B    GAS2_A    GAS2_B        Cont  
     1         0         4         5        0.499976323  
     0         1         5         4        0.499976323  
     0         0         5         5        0.000047353  

           0                  10            0.000047353  
           1                  9            0.999952647  


  ==> ACI Natural Orbitals <==


  ==> Computing Coupling Lists <==
  --------------------------------
        α          0.000139 s
        β          0.000142 s
        1B1     1.999996      1A1     1.999966      2A1     1.999260  
        1B2     1.997347      3A1     1.009512      4A1     0.990076  
        2B2     0.003842  

  ==> Excited state solver summary <==

  Iterations required:                         0
  Dimension of optimized determinant space:    68

  * Selected-CI Energy Root   0        = -55.841944166829 Eh =   0.0000 eV
  * Selected-CI Energy Root   0 + EPT2 = -55.841944166829 Eh =   0.0000 eV

  ==> Wavefunction Information <==

  Most important contributions to root   0:
    0   0.658040 0.433017134          53 |-22+220>
    1   0.658040 0.433017134          23 |+22-220>
    2   0.161418 0.026055697          52 |-22+2+->
    3   0.161418 0.026055697          21 |+22-2-+>
    4   0.136652 0.018673696          47 |-22+2-+>
    5   0.136652 0.018673696          22 |+22-2+->
    6  -0.107422 0.011539587          51 |-2+2220>
    7  -0.107422 0.011539587          18 |+2-2220>
    8  -0.087938 0.007733024          49 |-+22220>
    9  -0.087938 0.007733024          10 |+-22220>

  Saving information for root: 0

  ==> Energy Summary <==

    Multi.(2ms)  Irrep.  No.               Energy
    ---------------------------------------------
       1  (  0)    A1     0      -55.841944166829
    ---------------------------------------------

  ==> Computing Coupling Lists <==
  --------------------------------
        α          0.000000 s
        β          0.000000 s
        αα         0.000000 s
        ββ         0.000000 s
        αβ         0.000000 s
  --------------------------------

  ==> Computing Coupling Lists <==
  --------------------------------
        α          0.000143 s
        β          0.000142 s
  1-RDM  took 0.000475 s (determinant)
        αα         0.000218 s
        ββ         0.000224 s
        αβ         0.000556 s
  --------------------------------
  2-RDMS took 0.001255 s (determinant)

 CAS took 0.006356 seconds.

 FormFockIntermediates took 0.00067297 s.

 FormOrbitalGradient took 0.00015827 s.

 FormDiagHessian took 0.00022367 s.

 Update function takes 0.00107750 s
    1 0.239758243105   -55.841944166829   -55.841944166829    0.0 s       ~

  Transform Integrals takes 0.00572253 s.

  Performing a CAS with ACI

  ==> Summary of Active Space Solver Input <==

    Irrep.  Multi.(2ms)      N
    --------------------------
       A1      1  (  0)      1
    --------------------------
    N: number of roots
    ms: spin z component
    Total number of roots:   1
    --------------------------


-------------------------------------------------------------------------------
               Selected Configuration Interaction Excited States
  written by Jeffrey B. Schriber, Tianyuan Zhang and Francesco A. Evangelista
-------------------------------------------------------------------------------

  ==> Reference Information <==

  ==> Calculation Information <==

  -----------------------------------------------------------------
    Multiplicity                             1    
    Symmetry                                 0    
    Number of roots                          1    
    Ms                                       0
    Excited Algorithm                        NONE
  -----------------------------------------------------------------
  Using 1 threads
  Computing wavefunction for root 0

        ---------------------------------------------------------------
                      Adaptive Configuration Interaction
          written by Jeffrey B. Schriber and Francesco A. Evangelista
        ---------------------------------------------------------------

  ==> Reference Information <==

  There are 0 frozen orbitals.
  There are 7 active orbitals.

  ==> Calculation Information <==

  -----------------------------------------------------------------
    Multiplicity                             1    
    Symmetry                                 0    
    Number of roots                          1    
    Root used for properties                 0    
    Sigma (Eh)                               0.00e+00
    Gamma (Eh^(-1))                          1.00e+00
    Convergence threshold                    1.00e-09
    Ms                                       0
    Diagonalization algorithm                SPARSE
    Excited Algorithm                        NONE
    Project out spin contaminants            True
    Enforce spin completeness of basis       True
    Enforce complete aimed selection         True
  -----------------------------------------------------------------
  Number of active alpha electrons: 5
  Number of active beta electrons: 5
  Maximum reference space size: 1000
  The maximum number of electrons in GAS1 is 1
  The minimum number of electrons in GAS1 is 0
  The maximum number of electrons in GAS2 is 10 
  The minimum number of electrons in GAS2 is 0
  
  Possible electron occupations in the GAS 
  GAS1_A  GAS1_B  GAS2_A  GAS2_B  
     1       0       4       5    
     0       1       5       4    
     0       0       5       5    

  GAS Orbital Energies
  GAS   Energies    Orb 
  1  -20.568999574  0 
  2  -1.320609273  1 
  2  -0.563930450  2 
  2   0.202465902  3 
  2  -0.495003944  4 
  2  -0.678724187  5 
  2   0.292719335  6 

  ==> Diagonalizing the Hamiltonian in the P + Q space <==

  Number of reference roots: 1

  ==> Computing Coupling Lists <==
  --------------------------------
        α          0.000139 s
        β          0.000143 s
        αα         0.000221 s
        ββ         0.000227 s
        αβ         0.000554 s
  --------------------------------

  Davidson-Liu solver algorithm using SigmaVectorSparseList sigma algorithm

  Performing diagonalization of the H matrix
  Found 33 roots with 2S+1 = 1 *
  Found 31 roots with 2S+1 = 3
  Found 4 roots with 2S+1 = 5
  Total time spent diagonalizing H:   0.002646 s

    PQ-space CI Energy Root   0        = -56.269064633730 Eh =   0.0000 eV, S^2 = 0.000000
    PQ-space CI Energy + EPT2 Root   0 = -56.269064633730 Eh =   0.0000 eV

  
  GAS Contribution Analysis  
  GAS contributions root 0: 
  GAS1_A    GASI_B    GAS2_A    GAS2_B        Cont  
     1         0         4         5        0.499969012  
     0         1         5         4        0.499969012  
     0         0         5         5        0.000061977  

           0                  10            0.000061977  
           1                  9            0.999938023  


  ==> ACI Natural Orbitals <==


  ==> Computing Coupling Lists <==
  --------------------------------
        α          0.000137 s
        β          0.000142 s
        1B1     1.999910      1A1     1.999572      2A1     1.996578  
        1B2     1.968803      3A1     1.011313      4A1     0.989364  
        2B2     0.034460  

  ==> Excited state solver summary <==

  Iterations required:                         0
  Dimension of optimized determinant space:    68

  * Selected-CI Energy Root   0        = -56.269064633730 Eh =   0.0000 eV
  * Selected-CI Energy Root   0 + EPT2 = -56.269064633730 Eh =   0.0000 eV

  ==> Wavefunction Information <==

  Most important contributions to root   0:
    0  -0.672520 0.452283472          53 |-22+220>
    1  -0.672520 0.452283472          23 |+22-220>
    2  -0.135001 0.018225169          52 |-22+2+->
    3  -0.135001 0.018225169          21 |+22-2-+>
    4   0.098544 0.009710887          51 |-2+2220>
    5   0.098544 0.009710887          18 |+2-2220>
    6   0.080415 0.006466541          49 |-+22220>
    7   0.080415 0.006466541          10 |+-22220>
    8  -0.072145 0.005204882          47 |-22+2-+>
    9  -0.072145 0.005204882          22 |+22-2+->

  Saving information for root: 0

  ==> Energy Summary <==

    Multi.(2ms)  Irrep.  No.               Energy
    ---------------------------------------------
       1  (  0)    A1     0      -56.269064633730
    ---------------------------------------------

  ==> Computing Coupling Lists <==
  --------------------------------
        α          0.000000 s
        β          0.000000 s
        αα         0.000000 s
        ββ         0.000000 s
        αβ         0.000000 s
  --------------------------------

  ==> Computing Coupling Lists <==
  --------------------------------
        α          0.000139 s
        β          0.000141 s
  1-RDM  took 0.000468 s (determinant)
        αα         0.000215 s
        ββ         0.000218 s
        αβ         0.000559 s
  --------------------------------
  2-RDMS took 0.001254 s (determinant)

 CAS took 0.006052 seconds.

 FormFockIntermediates took 0.00067192 s.

 FormOrbitalGradient took 0.00011779 s.

 FormDiagHessian took 0.00016581 s.

 Update function takes 0.00098593 s
    2 0.037626965397    -0.427120466902   -56.269064633730    0.0 s       ~

  Transform Integrals takes 0.00584488 s.

  Performing a CAS with ACI

  ==> Summary of Active Space Solver Input <==

    Irrep.  Multi.(2ms)      N
    --------------------------
       A1      1  (  0)      1
    --------------------------
    N: number of roots
    ms: spin z component
    Total number of roots:   1
    --------------------------


-------------------------------------------------------------------------------
               Selected Configuration Interaction Excited States
  written by Jeffrey B. Schriber, Tianyuan Zhang and Francesco A. Evangelista
-------------------------------------------------------------------------------

  ==> Reference Information <==

  ==> Calculation Information <==

  -----------------------------------------------------------------
    Multiplicity                             1    
    Symmetry                                 0    
    Number of roots                          1    
    Ms                                       0
    Excited Algorithm                        NONE
  -----------------------------------------------------------------
  Using 1 threads
  Computing wavefunction for root 0

        ---------------------------------------------------------------
                      Adaptive Configuration Interaction
          written by Jeffrey B. Schriber and Francesco A. Evangelista
        ---------------------------------------------------------------

  ==> Reference Information <==

  There are 0 frozen orbitals.
  There are 7 active orbitals.

  ==> Calculation Information <==

  -----------------------------------------------------------------
    Multiplicity                             1    
    Symmetry                                 0    
    Number of roots                          1    
    Root used for properties                 0    
    Sigma (Eh)                               0.00e+00
    Gamma (Eh^(-1))                          1.00e+00
    Convergence threshold                    1.00e-09
    Ms                                       0
    Diagonalization algorithm                SPARSE
    Excited Algorithm                        NONE
    Project out spin contaminants            True
    Enforce spin completeness of basis       True
    Enforce complete aimed selection         True
  -----------------------------------------------------------------
  Number of active alpha electrons: 5
  Number of active beta electrons: 5
  Maximum reference space size: 1000
  The maximum number of electrons in GAS1 is 1
  The minimum number of electrons in GAS1 is 0
  The maximum number of electrons in GAS2 is 10 
  The minimum number of electrons in GAS2 is 0
  
  Possible electron occupations in the GAS 
  GAS1_A  GAS1_B  GAS2_A  GAS2_B  
     1       0       4       5    
     0       1       5       4    
     0       0       5       5    

  GAS Orbital Energies
  GAS   Energies    Orb 
  1  -20.568999574  0 
  2  -1.320609273  1 
  2  -0.563930450  2 
  2   0.202465902  3 
  2  -0.495003944  4 
  2  -0.678724187  5 
  2   0.292719335  6 

  ==> Diagonalizing the Hamiltonian in the P + Q space <==

  Number of reference roots: 1

  ==> Computing Coupling Lists <==
  --------------------------------
        α          0.000137 s
        β          0.000141 s
        αα         0.000221 s
        ββ         0.000224 s
        αβ         0.000555 s
  --------------------------------

  Davidson-Liu solver algorithm using SigmaVectorSparseList sigma algorithm

  Performing diagonalization of the H matrix
  Found 33 roots with 2S+1 = 1 *
  Found 31 roots with 2S+1 = 3
  Found 4 roots with 2S+1 = 5
  Total time spent diagonalizing H:   0.002606 s

    PQ-space CI Energy Root   0        = -56.285784600370 Eh =   0.0000 eV, S^2 = 0.000000
    PQ-space CI Energy + EPT2 Root   0 = -56.285784600370 Eh =   0.0000 eV

  
  GAS Contribution Analysis  
  GAS contributions root 0: 
  GAS1_A    GASI_B    GAS2_A    GAS2_B        Cont  
     1         0         4         5        0.499969974  
     0         1         5         4        0.499969974  
     0         0         5         5        0.000060052  

           0                  10            0.000060052  
           1                  9            0.999939948  


  ==> ACI Natural Orbitals <==


  ==> Computing Coupling Lists <==
  --------------------------------
        α          0.000136 s
        β          0.000141 s
        1B1     1.999921      1A1     1.999584      2A1     1.996082  
        1B2     1.972815      3A1     1.010889      4A1     0.989262  
        2B2     0.031448  

  ==> Excited state solver summary <==

  Iterations required:                         0
  Dimension of optimized determinant space:    68

  * Selected-CI Energy Root   0        = -56.285784600370 Eh =   0.0000 eV
  * Selected-CI Energy Root   0 + EPT2 = -56.285784600370 Eh =   0.0000 eV

  ==> Wavefunction Information <==

  Most important contributions to root   0:
    0   0.670273 0.449265644          53 |-22+220>
    1   0.670273 0.449265644          23 |+22-220>
    2   0.144048 0.020749925          21 |+22-2-+>
    3   0.144048 0.020749925          52 |-22+2+->
    4  -0.097417 0.009490029          51 |-2+2220>
    5  -0.097417 0.009490029          18 |+2-2220>
    6   0.082765 0.006850090          47 |-22+2-+>
    7   0.082765 0.006850090          22 |+22-2+->
    8  -0.079857 0.006377136          49 |-+22220>
    9  -0.079857 0.006377136          10 |+-22220>

  Saving information for root: 0

  ==> Energy Summary <==

    Multi.(2ms)  Irrep.  No.               Energy
    ---------------------------------------------
       1  (  0)    A1     0      -56.285784600370
    ---------------------------------------------

  ==> Computing Coupling Lists <==
  --------------------------------
        α          0.000000 s
        β          0.000000 s
        αα         0.000000 s
        ββ         0.000000 s
        αβ         0.000000 s
  --------------------------------

  ==> Computing Coupling Lists <==
  --------------------------------
        α          0.000138 s
        β          0.000142 s
  1-RDM  took 0.000466 s (determinant)
        αα         0.000215 s
        ββ         0.000218 s
        αβ         0.000638 s
  --------------------------------
  2-RDMS took 0.001315 s (determinant)

 CAS took 0.006069 seconds.

 FormFockIntermediates took 0.00067406 s.

 FormOrbitalGradient took 0.00012040 s.

 FormDiagHessian took 0.00016537 s.

 Update function takes 0.00098017 s
    3 0.010508054117    -0.016719966640   -56.285784600370    0.0 s       ~

  Transform Integrals takes 0.00577543 s.

  Performing a CAS with ACI

  ==> Summary of Active Space Solver Input <==

    Irrep.  Multi.(2ms)      N
    --------------------------
       A1      1  (  0)      1
    --------------------------
    N: number of roots
    ms: spin z component
    Total number of roots:   1
    --------------------------


-------------------------------------------------------------------------------
               Selected Configuration Interaction Excited States
  written by Jeffrey B. Schriber, Tianyuan Zhang and Francesco A. Evangelista
-------------------------------------------------------------------------------

  ==> Reference Information <==

  ==> Calculation Information <==

  -----------------------------------------------------------------
    Multiplicity                             1    
    Symmetry                                 0    
    Number of roots                          1    
    Ms                                       0
    Excited Algorithm                        NONE
  -----------------------------------------------------------------
  Using 1 threads
  Computing wavefunction for root 0

        ---------------------------------------------------------------
                      Adaptive Configuration Interaction
          written by Jeffrey B. Schriber and Francesco A. Evangelista
        ---------------------------------------------------------------

  ==> Reference Information <==

  There are 0 frozen orbitals.
  There are 7 active orbitals.

  ==> Calculation Information <==

  -----------------------------------------------------------------
    Multiplicity                             1    
    Symmetry                                 0    
    Number of roots                          1    
    Root used for properties                 0    
    Sigma (Eh)                               0.00e+00
    Gamma (Eh^(-1))                          1.00e+00
    Convergence threshold                    1.00e-09
    Ms                                       0
    Diagonalization algorithm                SPARSE
    Excited Algorithm                        NONE
    Project out spin contaminants            True
    Enforce spin completeness of basis       True
    Enforce complete aimed selection         True
  -----------------------------------------------------------------
  Number of active alpha electrons: 5
  Number of active beta electrons: 5
  Maximum reference space size: 1000
  The maximum number of electrons in GAS1 is 1
  The minimum number of electrons in GAS1 is 0
  The maximum number of electrons in GAS2 is 10 
  The minimum number of electrons in GAS2 is 0
  
  Possible electron occupations in the GAS 
  GAS1_A  GAS1_B  GAS2_A  GAS2_B  
     1       0       4       5    
     0       1       5       4    
     0       0       5       5    

  GAS Orbital Energies
  GAS   Energies    Orb 
  1  -20.568999574  0 
  2  -1.320609273  1 
  2  -0.563930450  2 
  2   0.202465902  3 
  2  -0.495003944  4 
  2  -0.678724187  5 
  2   0.292719335  6 

  ==> Diagonalizing the Hamiltonian in the P + Q space <==

  Number of reference roots: 1

  ==> Computing Coupling Lists <==
  --------------------------------
        α          0.000138 s
        β          0.000143 s
        αα         0.000220 s
        ββ         0.000223 s
        αβ         0.000551 s
  --------------------------------

  Davidson-Liu solver algorithm using SigmaVectorSparseList sigma algorithm

  Performing diagonalization of the H matrix
  Found 33 roots with 2S+1 = 1 *
  Found 31 roots with 2S+1 = 3
  Found 4 roots with 2S+1 = 5
  Total time spent diagonalizing H:   0.002601 s

    PQ-space CI Energy Root   0        = -56.288150062309 Eh =   0.0000 eV, S^2 = 0.000000
    PQ-space CI Energy + EPT2 Root   0 = -56.288150062309 Eh =   0.0000 eV

  
  GAS Contribution Analysis  
  GAS contributions root 0: 
  GAS1_A    GASI_B    GAS2_A    GAS2_B        Cont  
     1         0         4         5        0.499970230  
     0         1         5         4        0.499970230  
     0         0         5         5        0.000059540  

           0                  10            0.000059540  
           1                  9            0.999940460  


  ==> ACI Natural Orbitals <==


  ==> Computing Coupling Lists <==
  --------------------------------
        α          0.000139 s
        β          0.000143 s
        1B1     1.999908      1A1     1.999538      2A1     1.995988  
        1B2     1.969988      3A1     1.010936      4A1     0.989434  
        2B2     0.034208  

  ==> Excited state solver summary <==

  Iterations required:                         0
  Dimension of optimized determinant space:    68

  * Selected-CI Energy Root   0        = -56.288150062309 Eh =   0.0000 eV
  * Selected-CI Energy Root   0 + EPT2 = -56.288150062309 Eh =   0.0000 eV

  ==> Wavefunction Information <==

  Most important contributions to root   0:
    0   0.669808 0.448643026          53 |-22+220>
    1   0.669808 0.448643026          23 |+22-220>
    2   0.145015 0.021029449          21 |+22-2-+>
    3   0.145015 0.021029449          52 |-22+2+->
    4  -0.096950 0.009399339          51 |-2+2220>
    5  -0.096950 0.009399339          18 |+2-2220>
    6   0.082312 0.006775301          47 |-22+2-+>
    7   0.082312 0.006775301          22 |+22-2+->
    8  -0.079422 0.006307882          49 |-+22220>
    9  -0.079422 0.006307882          10 |+-22220>

  Saving information for root: 0

  ==> Energy Summary <==

    Multi.(2ms)  Irrep.  No.               Energy
    ---------------------------------------------
       1  (  0)    A1     0      -56.288150062309
    ---------------------------------------------

  ==> Computing Coupling Lists <==
  --------------------------------
        α          0.000000 s
        β          0.000000 s
        αα         0.000000 s
        ββ         0.000000 s
        αβ         0.000000 s
  --------------------------------

  ==> Computing Coupling Lists <==
  --------------------------------
        α          0.000139 s
        β          0.000141 s
  1-RDM  took 0.000467 s (determinant)
        αα         0.000218 s
        ββ         0.000223 s
        αβ         0.000547 s
  --------------------------------
  2-RDMS took 0.001234 s (determinant)

 CAS took 0.005995 seconds.

 FormFockIntermediates took 0.00074525 s.

 FormOrbitalGradient took 0.00011883 s.

 FormDiagHessian took 0.00016551 s.

 Update function takes 0.00104905 s
    4 0.008396845432    -0.002365461939   -56.288150062309    0.0 s       ~

  Transform Integrals takes 0.00604601 s.

  Performing a CAS with ACI

  ==> Summary of Active Space Solver Input <==

    Irrep.  Multi.(2ms)      N
    --------------------------
       A1      1  (  0)      1
    --------------------------
    N: number of roots
    ms: spin z component
    Total number of roots:   1
    --------------------------


-------------------------------------------------------------------------------
               Selected Configuration Interaction Excited States
  written by Jeffrey B. Schriber, Tianyuan Zhang and Francesco A. Evangelista
-------------------------------------------------------------------------------

  ==> Reference Information <==

  ==> Calculation Information <==

  -----------------------------------------------------------------
    Multiplicity                             1    
    Symmetry                                 0    
    Number of roots                          1    
    Ms                                       0
    Excited Algorithm                        NONE
  -----------------------------------------------------------------
  Using 1 threads
  Computing wavefunction for root 0

        ---------------------------------------------------------------
                      Adaptive Configuration Interaction
          written by Jeffrey B. Schriber and Francesco A. Evangelista
        ---------------------------------------------------------------

  ==> Reference Information <==

  There are 0 frozen orbitals.
  There are 7 active orbitals.

  ==> Calculation Information <==

  -----------------------------------------------------------------
    Multiplicity                             1    
    Symmetry                                 0    
    Number of roots                          1    
    Root used for properties                 0    
    Sigma (Eh)                               0.00e+00
    Gamma (Eh^(-1))                          1.00e+00
    Convergence threshold                    1.00e-09
    Ms                                       0
    Diagonalization algorithm                SPARSE
    Excited Algorithm                        NONE
    Project out spin contaminants            True
    Enforce spin completeness of basis       True
    Enforce complete aimed selection         True
  -----------------------------------------------------------------
  Number of active alpha electrons: 5
  Number of active beta electrons: 5
  Maximum reference space size: 1000
  The maximum number of electrons in GAS1 is 1
  The minimum number of electrons in GAS1 is 0
  The maximum number of electrons in GAS2 is 10 
  The minimum number of electrons in GAS2 is 0
  
  Possible electron occupations in the GAS 
  GAS1_A  GAS1_B  GAS2_A  GAS2_B  
     1       0       4       5    
     0       1       5       4    
     0       0       5       5    

  GAS Orbital Energies
  GAS   Energies    Orb 
  1  -20.568999574  0 
  2  -1.320609273  1 
  2  -0.563930450  2 
  2   0.202465902  3 
  2  -0.495003944  4 
  2  -0.678724187  5 
  2   0.292719335  6 

  ==> Diagonalizing the Hamiltonian in the P + Q space <==

  Number of reference roots: 1

  ==> Computing Coupling Lists <==
  --------------------------------
        α          0.000139 s
        β          0.000142 s
        αα         0.000219 s
        ββ         0.000226 s
        αβ         0.000556 s
  --------------------------------

  Davidson-Liu solver algorithm using SigmaVectorSparseList sigma algorithm

  Performing diagonalization of the H matrix
  Found 33 roots with 2S+1 = 1 *
  Found 31 roots with 2S+1 = 3
  Found 4 roots with 2S+1 = 5
  Total time spent diagonalizing H:   0.002613 s

    PQ-space CI Energy Root   0        = -56.289481351880 Eh =   0.0000 eV, S^2 = 0.000000
    PQ-space CI Energy + EPT2 Root   0 = -56.289481351880 Eh =   0.0000 eV

  
  GAS Contribution Analysis  
  GAS contributions root 0: 
  GAS1_A    GASI_B    GAS2_A    GAS2_B        Cont  
     1         0         4         5        0.499970370  
     0         1         5         4        0.499970370  
     0         0         5         5        0.000059260  

           0                  10            0.000059260  
           1                  9            0.999940740  


  ==> ACI Natural Orbitals <==


  ==> Computing Coupling Lists <==
  --------------------------------
        α          0.000138 s
        β          0.000143 s
        1B1     1.999902      1A1     1.999526      2A1     1.996040  
        1B2     1.969803      3A1     1.010921      4A1     0.989478  
        2B2     0.034329  

  ==> Excited state solver summary <==

  Iterations required:                         0
  Dimension of optimized determinant space:    68

  * Selected-CI Energy Root   0        = -56.289481351880 Eh =   0.0000 eV
  * Selected-CI Energy Root   0 + EPT2 = -56.289481351880 Eh =   0.0000 eV

  ==> Wavefunction Information <==

  Most important contributions to root   0:
    0   0.668495 0.446885971          53 |-22+220>
    1   0.668495 0.446885971          23 |+22-220>
    2   0.148526 0.022060050          21 |+22-2-+>
    3   0.148526 0.022060050          52 |-22+2+->
    4  -0.097481 0.009502463          51 |-2+2220>
    5  -0.097481 0.009502463          18 |+2-2220>
    6   0.086345 0.007455452          47 |-22+2-+>
    7   0.086345 0.007455452          22 |+22-2+->
    8  -0.079702 0.006352473          49 |-+22220>
    9  -0.079702 0.006352473          10 |+-22220>

  Saving information for root: 0

  ==> Energy Summary <==

    Multi.(2ms)  Irrep.  No.               Energy
    ---------------------------------------------
       1  (  0)    A1     0      -56.289481351880
    ---------------------------------------------

  ==> Computing Coupling Lists <==
  --------------------------------
        α          0.000000 s
        β          0.000000 s
        αα         0.000000 s
        ββ         0.000000 s
        αβ         0.000000 s
  --------------------------------

  ==> Computing Coupling Lists <==
  --------------------------------
        α          0.000140 s
        β          0.000142 s
  1-RDM  took 0.000472 s (determinant)
        αα         0.000218 s
        ββ         0.000222 s
        αβ         0.000548 s
  --------------------------------
  2-RDMS took 0.001233 s (determinant)

 CAS took 0.006001 seconds.

 FormFockIntermediates took 0.00069593 s.

 FormOrbitalGradient took 0.00016942 s.

 FormDiagHessian took 0.00030676 s.

 Update function takes 0.00119191 s
    5 0.005605732816    -0.001331289571   -56.289481351880    0.0 s       ~

  Transform Integrals takes 0.00649970 s.

  Performing a CAS with ACI

  ==> Summary of Active Space Solver Input <==

    Irrep.  Multi.(2ms)      N
    --------------------------
       A1      1  (  0)      1
    --------------------------
    N: number of roots
    ms: spin z component
    Total number of roots:   1
    --------------------------


-------------------------------------------------------------------------------
               Selected Configuration Interaction Excited States
  written by Jeffrey B. Schriber, Tianyuan Zhang and Francesco A. Evangelista
-------------------------------------------------------------------------------

  ==> Reference Information <==

  ==> Calculation Information <==

  -----------------------------------------------------------------
    Multiplicity                             1    
    Symmetry                                 0    
    Number of roots                          1    
    Ms                                       0
    Excited Algorithm                        NONE
  -----------------------------------------------------------------
  Using 1 threads
  Computing wavefunction for root 0

        ---------------------------------------------------------------
                      Adaptive Configuration Interaction
          written by Jeffrey B. Schriber and Francesco A. Evangelista
        ---------------------------------------------------------------

  ==> Reference Information <==

  There are 0 frozen orbitals.
  There are 7 active orbitals.

  ==> Calculation Information <==

  -----------------------------------------------------------------
    Multiplicity                             1    
    Symmetry                                 0    
    Number of roots                          1    
    Root used for properties                 0    
    Sigma (Eh)                               0.00e+00
    Gamma (Eh^(-1))                          1.00e+00
    Convergence threshold                    1.00e-09
    Ms                                       0
    Diagonalization algorithm                SPARSE
    Excited Algorithm                        NONE
    Project out spin contaminants            True
    Enforce spin completeness of basis       True
    Enforce complete aimed selection         True
  -----------------------------------------------------------------
  Number of active alpha electrons: 5
  Number of active beta electrons: 5
  Maximum reference space size: 1000
  The maximum number of electrons in GAS1 is 1
  The minimum number of electrons in GAS1 is 0
  The maximum number of electrons in GAS2 is 10 
  The minimum number of electrons in GAS2 is 0
  
  Possible electron occupations in the GAS 
  GAS1_A  GAS1_B  GAS2_A  GAS2_B  
     1       0       4       5    
     0       1       5       4    
     0       0       5       5    

  GAS Orbital Energies
  GAS   Energies    Orb 
  1  -20.568999574  0 
  2  -1.320609273  1 
  2  -0.563930450  2 
  2   0.202465902  3 
  2  -0.495003944  4 
  2  -0.678724187  5 
  2   0.292719335  6 

  ==> Diagonalizing the Hamiltonian in the P + Q space <==

  Number of reference roots: 1

  ==> Computing Coupling Lists <==
  --------------------------------
        α          0.000139 s
        β          0.000141 s
        αα         0.000221 s
        ββ         0.000224 s
        αβ         0.000553 s
  --------------------------------

  Davidson-Liu solver algorithm using SigmaVectorSparseList sigma algorithm

  Performing diagonalization of the H matrix
  Found 33 roots with 2S+1 = 1 *
  Found 31 roots with 2S+1 = 3
  Found 4 roots with 2S+1 = 5
  Total time spent diagonalizing H:   0.002613 s

    PQ-space CI Energy Root   0        = -56.290285842656 Eh =   0.0000 eV, S^2 = 0.000000
    PQ-space CI Energy + EPT2 Root   0 = -56.290285842656 Eh =   0.0000 eV

  
  GAS Contribution Analysis  
  GAS contributions root 0: 
  GAS1_A    GASI_B    GAS2_A    GAS2_B        Cont  
     1         0         4         5        0.499970258  
     0         1         5         4        0.499970258  
     0         0         5         5        0.000059485  

           0                  10            0.000059485  
           1                  9            0.999940515  


  ==> ACI Natural Orbitals <==


  ==> Computing Coupling Lists <==
  --------------------------------
        α          0.000139 s
        β          0.000141 s
        1B1     1.999898      1A1     1.999511      2A1     1.996076  
        1B2     1.969479      3A1     1.010983      4A1     0.989505  
        2B2     0.034548  

  ==> Excited state solver summary <==

  Iterations required:                         0
  Dimension of optimized determinant space:    68

  * Selected-CI Energy Root   0        = -56.290285842656 Eh =   0.0000 eV
  * Selected-CI Energy Root   0 + EPT2 = -56.290285842656 Eh =   0.0000 eV

  ==> Wavefunction Information <==

  Most important contributions to root   0:
    0   0.667871 0.446051189          53 |-22+220>
    1   0.667871 0.446051189          23 |+22-220>
    2   0.150241 0.022572393          21 |+22-2-+>
    3   0.150241 0.022572393          52 |-22+2+->
    4  -0.097503 0.009506888          51 |-2+2220>
    5  -0.097503 0.009506888          18 |+2-2220>
    6   0.088428 0.007819520          47 |-22+2-+>
    7   0.088428 0.007819520          22 |+22-2+->
    8  -0.079662 0.006346109          49 |-+22220>
    9  -0.079662 0.006346109          10 |+-22220>

  Saving information for root: 0

  ==> Energy Summary <==

    Multi.(2ms)  Irrep.  No.               Energy
    ---------------------------------------------
       1  (  0)    A1     0      -56.290285842656
    ---------------------------------------------

  ==> Computing Coupling Lists <==
  --------------------------------
        α          0.000000 s
        β          0.000000 s
        αα         0.000000 s
        ββ         0.000000 s
        αβ         0.000000 s
  --------------------------------

  ==> Computing Coupling Lists <==
  --------------------------------
        α          0.000139 s
        β          0.000141 s
  1-RDM  took 0.000556 s (determinant)
        αα         0.000215 s
        ββ         0.000218 s
        αβ         0.000542 s
  --------------------------------
  2-RDMS took 0.001218 s (determinant)

 CAS took 0.006103 seconds.

 FormFockIntermediates took 0.00071142 s.

 FormOrbitalGradient took 0.00011989 s.

 FormDiagHessian took 0.00016497 s.

 Update function takes 0.00101586 s
    6 0.004268988890    -0.000804490776   -56.290285842656    0.0 s       ~

  Transform Integrals takes 0.00611623 s.

  Performing a CAS with ACI

  ==> Summary of Active Space Solver Input <==

    Irrep.  Multi.(2ms)      N
    --------------------------
       A1      1  (  0)      1
    --------------------------
    N: number of roots
    ms: spin z component
    Total number of roots:   1
    --------------------------


-------------------------------------------------------------------------------
               Selected Configuration Interaction Excited States
  written by Jeffrey B. Schriber, Tianyuan Zhang and Francesco A. Evangelista
-------------------------------------------------------------------------------

  ==> Reference Information <==

  ==> Calculation Information <==

  -----------------------------------------------------------------
    Multiplicity                             1    
    Symmetry                                 0    
    Number of roots                          1    
    Ms                                       0
    Excited Algorithm                        NONE
  -----------------------------------------------------------------
  Using 1 threads
  Computing wavefunction for root 0

        ---------------------------------------------------------------
                      Adaptive Configuration Interaction
          written by Jeffrey B. Schriber and Francesco A. Evangelista
        ---------------------------------------------------------------

  ==> Reference Information <==

  There are 0 frozen orbitals.
  There are 7 active orbitals.

  ==> Calculation Information <==

  -----------------------------------------------------------------
    Multiplicity                             1    
    Symmetry                                 0    
    Number of roots                          1    
    Root used for properties                 0    
    Sigma (Eh)                               0.00e+00
    Gamma (Eh^(-1))                          1.00e+00
    Convergence threshold                    1.00e-09
    Ms                                       0
    Diagonalization algorithm                SPARSE
    Excited Algorithm                        NONE
    Project out spin contaminants            True
    Enforce spin completeness of basis       True
    Enforce complete aimed selection         True
  -----------------------------------------------------------------
  Number of active alpha electrons: 5
  Number of active beta electrons: 5
  Maximum reference space size: 1000
  The maximum number of electrons in GAS1 is 1
  The minimum number of electrons in GAS1 is 0
  The maximum number of electrons in GAS2 is 10 
  The minimum number of electrons in GAS2 is 0
  
  Possible electron occupations in the GAS 
  GAS1_A  GAS1_B  GAS2_A  GAS2_B  
     1       0       4       5    
     0       1       5       4    
     0       0       5       5    

  GAS Orbital Energies
  GAS   Energies    Orb 
  1  -20.568999574  0 
  2  -1.320609273  1 
  2  -0.563930450  2 
  2   0.202465902  3 
  2  -0.495003944  4 
  2  -0.678724187  5 
  2   0.292719335  6 

  ==> Diagonalizing the Hamiltonian in the P + Q space <==

  Number of reference roots: 1

  ==> Computing Coupling Lists <==
  --------------------------------
        α          0.000139 s
        β          0.000143 s
        αα         0.000221 s
        ββ         0.000225 s
        αβ         0.000555 s
  --------------------------------

  Davidson-Liu solver algorithm using SigmaVectorSparseList sigma algorithm

  Performing diagonalization of the H matrix
  Found 33 roots with 2S+1 = 1 *
  Found 31 roots with 2S+1 = 3
  Found 4 roots with 2S+1 = 5
  Total time spent diagonalizing H:   0.002611 s

    PQ-space CI Energy Root   0        = -56.290806539928 Eh =   0.0000 eV, S^2 = 0.000000
    PQ-space CI Energy + EPT2 Root   0 = -56.290806539928 Eh =   0.0000 eV

  
  GAS Contribution Analysis  
  GAS contributions root 0: 
  GAS1_A    GASI_B    GAS2_A    GAS2_B        Cont  
     1         0         4         5        0.499970231  
     0         1         5         4        0.499970231  
     0         0         5         5        0.000059538  

           0                  10            0.000059538  
           1                  9            0.999940462  


  ==> ACI Natural Orbitals <==


  ==> Computing Coupling Lists <==
  --------------------------------
        α          0.000137 s
        β          0.000142 s
        1B1     1.999895      1A1     1.999504      2A1     1.996133  
        1B2     1.969527      3A1     1.011010      4A1     0.989526  
        2B2     0.034405  

  ==> Excited state solver summary <==

  Iterations required:                         0
  Dimension of optimized determinant space:    68

  * Selected-CI Energy Root   0        = -56.290806539928 Eh =   0.0000 eV
  * Selected-CI Energy Root   0 + EPT2 = -56.290806539928 Eh =   0.0000 eV

  ==> Wavefunction Information <==

  Most important contributions to root   0:
    0  -0.667129 0.445060564          53 |-22+220>
    1  -0.667129 0.445060564          23 |+22-220>
    2  -0.152242 0.023177685          52 |-22+2+->
    3  -0.152242 0.023177685          21 |+22-2-+>
    4   0.097701 0.009545415          51 |-2+2220>
    5   0.097701 0.009545415          18 |+2-2220>
    6  -0.090996 0.008280221          47 |-22+2-+>
    7  -0.090996 0.008280221          22 |+22-2+->
    8   0.079727 0.006356409          49 |-+22220>
    9   0.079727 0.006356409          10 |+-22220>

  Saving information for root: 0

  ==> Energy Summary <==

    Multi.(2ms)  Irrep.  No.               Energy
    ---------------------------------------------
       1  (  0)    A1     0      -56.290806539928
    ---------------------------------------------

  ==> Computing Coupling Lists <==
  --------------------------------
        α          0.000000 s
        β          0.000000 s
        αα         0.000000 s
        ββ         0.000000 s
        αβ         0.000000 s
  --------------------------------

  ==> Computing Coupling Lists <==
  --------------------------------
        α          0.000137 s
        β          0.000144 s
  1-RDM  took 0.000467 s (determinant)
        αα         0.000215 s
        ββ         0.000218 s
        αβ         0.000547 s
  --------------------------------
  2-RDMS took 0.001225 s (determinant)

 CAS took 0.005994 seconds.

 FormFockIntermediates took 0.00066489 s.

 FormOrbitalGradient took 0.00011836 s.

 FormDiagHessian took 0.00016441 s.

 Update function takes 0.00096740 s
    7 0.003444733261    -0.000520697272   -56.290806539928    0.0 s       ~

  Transform Integrals takes 0.00660684 s.

  Performing a CAS with ACI

  ==> Summary of Active Space Solver Input <==

    Irrep.  Multi.(2ms)      N
    --------------------------
       A1      1  (  0)      1
    --------------------------
    N: number of roots
    ms: spin z component
    Total number of roots:   1
    --------------------------


-------------------------------------------------------------------------------
               Selected Configuration Interaction Excited States
  written by Jeffrey B. Schriber, Tianyuan Zhang and Francesco A. Evangelista
-------------------------------------------------------------------------------

  ==> Reference Information <==

  ==> Calculation Information <==

  -----------------------------------------------------------------
    Multiplicity                             1    
    Symmetry                                 0    
    Number of roots                          1    
    Ms                                       0
    Excited Algorithm                        NONE
  -----------------------------------------------------------------
  Using 1 threads
  Computing wavefunction for root 0

        ---------------------------------------------------------------
                      Adaptive Configuration Interaction
          written by Jeffrey B. Schriber and Francesco A. Evangelista
        ---------------------------------------------------------------

  ==> Reference Information <==

  There are 0 frozen orbitals.
  There are 7 active orbitals.

  ==> Calculation Information <==

  -----------------------------------------------------------------
    Multiplicity                             1    
    Symmetry                                 0    
    Number of roots                          1    
    Root used for properties                 0    
    Sigma (Eh)                               0.00e+00
    Gamma (Eh^(-1))                          1.00e+00
    Convergence threshold                    1.00e-09
    Ms                                       0
    Diagonalization algorithm                SPARSE
    Excited Algorithm                        NONE
    Project out spin contaminants            True
    Enforce spin completeness of basis       True
    Enforce complete aimed selection         True
  -----------------------------------------------------------------
  Number of active alpha electrons: 5
  Number of active beta electrons: 5
  Maximum reference space size: 1000
  The maximum number of electrons in GAS1 is 1
  The minimum number of electrons in GAS1 is 0
  The maximum number of electrons in GAS2 is 10 
  The minimum number of electrons in GAS2 is 0
  
  Possible electron occupations in the GAS 
  GAS1_A  GAS1_B  GAS2_A  GAS2_B  
     1       0       4       5    
     0       1       5       4    
     0       0       5       5    

  GAS Orbital Energies
  GAS   Energies    Orb 
  1  -20.568999574  0 
  2  -1.320609273  1 
  2  -0.563930450  2 
  2   0.202465902  3 
  2  -0.495003944  4 
  2  -0.678724187  5 
  2   0.292719335  6 

  ==> Diagonalizing the Hamiltonian in the P + Q space <==

  Number of reference roots: 1

  ==> Computing Coupling Lists <==
  --------------------------------
        α          0.000142 s
        β          0.000143 s
        αα         0.000221 s
        ββ         0.000227 s
        αβ         0.000554 s
  --------------------------------

  Davidson-Liu solver algorithm using SigmaVectorSparseList sigma algorithm

  Performing diagonalization of the H matrix
  Found 33 roots with 2S+1 = 1 *
  Found 31 roots with 2S+1 = 3
  Found 4 roots with 2S+1 = 5
  Total time spent diagonalizing H:   0.002616 s

    PQ-space CI Energy Root   0        = -56.291153670448 Eh =   0.0000 eV, S^2 = 0.000000
    PQ-space CI Energy + EPT2 Root   0 = -56.291153670448 Eh =   0.0000 eV

  
  GAS Contribution Analysis  
  GAS contributions root 0: 
  GAS1_A    GASI_B    GAS2_A    GAS2_B        Cont  
     1         0         4         5        0.499970166  
     0         1         5         4        0.499970166  
     0         0         5         5        0.000059669  

           0                  10            0.000059669  
           1                  9            0.999940331  


  ==> ACI Natural Orbitals <==


  ==> Computing Coupling Lists <==
  --------------------------------
        α          0.000137 s
        β          0.000142 s
        1B1     1.999894      1A1     1.999497      2A1     1.996182  
        1B2     1.969622      3A1     1.011046      4A1     0.989541  
        2B2     0.034219  

  ==> Excited state solver summary <==

  Iterations required:                         0
  Dimension of optimized determinant space:    68

  * Selected-CI Energy Root   0        = -56.291153670448 Eh =   0.0000 eV
  * Selected-CI Energy Root   0 + EPT2 = -56.291153670448 Eh =   0.0000 eV

  ==> Wavefunction Information <==

  Most important contributions to root   0:
    0  -0.666645 0.444416213          53 |-22+220>
    1  -0.666645 0.444416213          23 |+22-220>
    2  -0.153572 0.023584424          21 |+22-2-+>
    3  -0.153572 0.023584424          52 |-22+2+->
    4   0.097767 0.009558347          51 |-2+2220>
    5   0.097767 0.009558347          18 |+2-2220>
    6  -0.092851 0.008621348          47 |-22+2-+>
    7  -0.092851 0.008621348          22 |+22-2+->
    8   0.079710 0.006353667          49 |-+22220>
    9   0.079710 0.006353667          10 |+-22220>

  Saving information for root: 0

  ==> Energy Summary <==

    Multi.(2ms)  Irrep.  No.               Energy
    ---------------------------------------------
       1  (  0)    A1     0      -56.291153670448
    ---------------------------------------------

  ==> Computing Coupling Lists <==
  --------------------------------
        α          0.000000 s
        β          0.000000 s
        αα         0.000000 s
        ββ         0.000000 s
        αβ         0.000000 s
  --------------------------------

  ==> Computing Coupling Lists <==
  --------------------------------
        α          0.000138 s
        β          0.000142 s
  1-RDM  took 0.000467 s (determinant)
        αα         0.000216 s
        ββ         0.000220 s
        αβ         0.000547 s
  --------------------------------
  2-RDMS took 0.001227 s (determinant)

 CAS took 0.006051 seconds.

 FormFockIntermediates took 0.00069433 s.

 FormOrbitalGradient took 0.00011937 s.

 FormDiagHessian took 0.00016538 s.

 Update function takes 0.00099835 s
    8 0.002697336545    -0.000347130521   -56.291153670448    0.0 s       ~

  Transform Integrals takes 0.00582753 s.

  Performing a CAS with ACI

  ==> Summary of Active Space Solver Input <==

    Irrep.  Multi.(2ms)      N
    --------------------------
       A1      1  (  0)      1
    --------------------------
    N: number of roots
    ms: spin z component
    Total number of roots:   1
    --------------------------


-------------------------------------------------------------------------------
               Selected Configuration Interaction Excited States
  written by Jeffrey B. Schriber, Tianyuan Zhang and Francesco A. Evangelista
-------------------------------------------------------------------------------

  ==> Reference Information <==

  ==> Calculation Information <==

  -----------------------------------------------------------------
    Multiplicity                             1    
    Symmetry                                 0    
    Number of roots                          1    
    Ms                                       0
    Excited Algorithm                        NONE
  -----------------------------------------------------------------
  Using 1 threads
  Computing wavefunction for root 0

        ---------------------------------------------------------------
                      Adaptive Configuration Interaction
          written by Jeffrey B. Schriber and Francesco A. Evangelista
        ---------------------------------------------------------------

  ==> Reference Information <==

  There are 0 frozen orbitals.
  There are 7 active orbitals.

  ==> Calculation Information <==

  -----------------------------------------------------------------
    Multiplicity                             1    
    Symmetry                                 0    
    Number of roots                          1    
    Root used for properties                 0    
    Sigma (Eh)                               0.00e+00
    Gamma (Eh^(-1))                          1.00e+00
    Convergence threshold                    1.00e-09
    Ms                                       0
    Diagonalization algorithm                SPARSE
    Excited Algorithm                        NONE
    Project out spin contaminants            True
    Enforce spin completeness of basis       True
    Enforce complete aimed selection         True
  -----------------------------------------------------------------
  Number of active alpha electrons: 5
  Number of active beta electrons: 5
  Maximum reference space size: 1000
  The maximum number of electrons in GAS1 is 1
  The minimum number of electrons in GAS1 is 0
  The maximum number of electrons in GAS2 is 10 
  The minimum number of electrons in GAS2 is 0
  
  Possible electron occupations in the GAS 
  GAS1_A  GAS1_B  GAS2_A  GAS2_B  
     1       0       4       5    
     0       1       5       4    
     0       0       5       5    

  GAS Orbital Energies
  GAS   Energies    Orb 
  1  -20.568999574  0 
  2  -1.320609273  1 
  2  -0.563930450  2 
  2   0.202465902  3 
  2  -0.495003944  4 
  2  -0.678724187  5 
  2   0.292719335  6 

  ==> Diagonalizing the Hamiltonian in the P + Q space <==

  Number of reference roots: 1

  ==> Computing Coupling Lists <==
  --------------------------------
        α          0.000142 s
        β          0.000142 s
        αα         0.000221 s
        ββ         0.000224 s
        αβ         0.000555 s
  --------------------------------

  Davidson-Liu solver algorithm using SigmaVectorSparseList sigma algorithm

  Performing diagonalization of the H matrix
  Found 33 roots with 2S+1 = 1 *
  Found 31 roots with 2S+1 = 3
  Found 4 roots with 2S+1 = 5
  Total time spent diagonalizing H:   0.002615 s

    PQ-space CI Energy Root   0        = -56.291390198010 Eh =   0.0000 eV, S^2 = 0.000000
    PQ-space CI Energy + EPT2 Root   0 = -56.291390198010 Eh =   0.0000 eV

  
  GAS Contribution Analysis  
  GAS contributions root 0: 
  GAS1_A    GASI_B    GAS2_A    GAS2_B        Cont  
     1         0         4         5        0.499970135  
     0         1         5         4        0.499970135  
     0         0         5         5        0.000059730  

           0                  10            0.000059730  
           1                  9            0.999940270  


  ==> ACI Natural Orbitals <==


  ==> Computing Coupling Lists <==
  --------------------------------
        α          0.000139 s
        β          0.000142 s
        1B1     1.999892      1A1     1.999493      2A1     1.996229  
        1B2     1.969774      3A1     1.011068      4A1     0.989554  
        2B2     0.033989  

  ==> Excited state solver summary <==

  Iterations required:                         0
  Dimension of optimized determinant space:    68

  * Selected-CI Energy Root   0        = -56.291390198010 Eh =   0.0000 eV
  * Selected-CI Energy Root   0 + EPT2 = -56.291390198010 Eh =   0.0000 eV

  ==> Wavefunction Information <==

  Most important contributions to root   0:
    0   0.666159 0.443767228          53 |-22+220>
    1   0.666159 0.443767228          23 |+22-220>
    2   0.154888 0.023990274          21 |+22-2-+>
    3   0.154888 0.023990274          52 |-22+2+->
    4  -0.097862 0.009577035          51 |-2+2220>
    5  -0.097862 0.009577035          18 |+2-2220>
    6   0.094667 0.008961802          47 |-22+2-+>
    7   0.094667 0.008961802          22 |+22-2+->
    8  -0.079716 0.006354569          49 |-+22220>
    9  -0.079716 0.006354569          10 |+-22220>

  Saving information for root: 0

  ==> Energy Summary <==

    Multi.(2ms)  Irrep.  No.               Energy
    ---------------------------------------------
       1  (  0)    A1     0      -56.291390198010
    ---------------------------------------------

  ==> Computing Coupling Lists <==
  --------------------------------
        α          0.000000 s
        β          0.000000 s
        αα         0.000000 s
        ββ         0.000000 s
        αβ         0.000000 s
  --------------------------------

  ==> Computing Coupling Lists <==
  --------------------------------
        α          0.000140 s
        β          0.000141 s
  1-RDM  took 0.000471 s (determinant)
        αα         0.000217 s
        ββ         0.000220 s
        αβ         0.000548 s
  --------------------------------
  2-RDMS took 0.001229 s (determinant)

 CAS took 0.006004 seconds.

 FormFockIntermediates took 0.00074764 s.

 FormOrbitalGradient took 0.00011935 s.

 FormDiagHessian took 0.00016477 s.

 Update function takes 0.00105142 s
    9 0.002333627555    -0.000236527561   -56.291390198010    0.0 s       ~

  Transform Integrals takes 0.00583533 s.

  Performing a CAS with ACI

  ==> Summary of Active Space Solver Input <==

    Irrep.  Multi.(2ms)      N
    --------------------------
       A1      1  (  0)      1
    --------------------------
    N: number of roots
    ms: spin z component
    Total number of roots:   1
    --------------------------


-------------------------------------------------------------------------------
               Selected Configuration Interaction Excited States
  written by Jeffrey B. Schriber, Tianyuan Zhang and Francesco A. Evangelista
-------------------------------------------------------------------------------

  ==> Reference Information <==

  ==> Calculation Information <==

  -----------------------------------------------------------------
    Multiplicity                             1    
    Symmetry                                 0    
    Number of roots                          1    
    Ms                                       0
    Excited Algorithm                        NONE
  -----------------------------------------------------------------
  Using 1 threads
  Computing wavefunction for root 0

        ---------------------------------------------------------------
                      Adaptive Configuration Interaction
          written by Jeffrey B. Schriber and Francesco A. Evangelista
        ---------------------------------------------------------------

  ==> Reference Information <==

  There are 0 frozen orbitals.
  There are 7 active orbitals.

  ==> Calculation Information <==

  -----------------------------------------------------------------
    Multiplicity                             1    
    Symmetry                                 0    
    Number of roots                          1    
    Root used for properties                 0    
    Sigma (Eh)                               0.00e+00
    Gamma (Eh^(-1))                          1.00e+00
    Convergence threshold                    1.00e-09
    Ms                                       0
    Diagonalization algorithm                SPARSE
    Excited Algorithm                        NONE
    Project out spin contaminants            True
    Enforce spin completeness of basis       True
    Enforce complete aimed selection         True
  -----------------------------------------------------------------
  Number of active alpha electrons: 5
  Number of active beta electrons: 5
  Maximum reference space size: 1000
  The maximum number of electrons in GAS1 is 1
  The minimum number of electrons in GAS1 is 0
  The maximum number of electrons in GAS2 is 10 
  The minimum number of electrons in GAS2 is 0
  
  Possible electron occupations in the GAS 
  GAS1_A  GAS1_B  GAS2_A  GAS2_B  
     1       0       4       5    
     0       1       5       4    
     0       0       5       5    

  GAS Orbital Energies
  GAS   Energies    Orb 
  1  -20.568999574  0 
  2  -1.320609273  1 
  2  -0.563930450  2 
  2   0.202465902  3 
  2  -0.495003944  4 
  2  -0.678724187  5 
  2   0.292719335  6 

  ==> Diagonalizing the Hamiltonian in the P + Q space <==

  Number of reference roots: 1

  ==> Computing Coupling Lists <==
  --------------------------------
        α          0.000138 s
        β          0.000143 s
        αα         0.000222 s
        ββ         0.000225 s
        αβ         0.000554 s
  --------------------------------

  Davidson-Liu solver algorithm using SigmaVectorSparseList sigma algorithm

  Performing diagonalization of the H matrix
  Found 33 roots with 2S+1 = 1 *
  Found 31 roots with 2S+1 = 3
  Found 4 roots with 2S+1 = 5
  Total time spent diagonalizing H:   0.002613 s

    PQ-space CI Energy Root   0        = -56.291555132391 Eh =   0.0000 eV, S^2 = 0.000000
    PQ-space CI Energy + EPT2 Root   0 = -56.291555132391 Eh =   0.0000 eV

  
  GAS Contribution Analysis  
  GAS contributions root 0: 
  GAS1_A    GASI_B    GAS2_A    GAS2_B        Cont  
     1         0         4         5        0.499970098  
     0         1         5         4        0.499970098  
     0         0         5         5        0.000059804  

           0                  10            0.000059804  
           1                  9            0.999940196  


  ==> ACI Natural Orbitals <==


  ==> Computing Coupling Lists <==
  --------------------------------
        α          0.000138 s
        β          0.000142 s
        1B1     1.999891      1A1     1.999490      2A1     1.996271  
        1B2     1.969939      3A1     1.011091      4A1     0.989564  
        2B2     0.033754  

  ==> Excited state solver summary <==

  Iterations required:                         0
  Dimension of optimized determinant space:    68

  * Selected-CI Energy Root   0        = -56.291555132391 Eh =   0.0000 eV
  * Selected-CI Energy Root   0 + EPT2 = -56.291555132391 Eh =   0.0000 eV

  ==> Wavefunction Information <==

  Most important contributions to root   0:
    0  -0.665800 0.443289092          53 |-22+220>
    1  -0.665800 0.443289092          23 |+22-220>
    2  -0.155865 0.024293960          52 |-22+2+->
[...]
  written by Jeffrey B. Schriber, Tianyuan Zhang and Francesco A. Evangelista
-------------------------------------------------------------------------------

  ==> Reference Information <==

  ==> Calculation Information <==

  -----------------------------------------------------------------
    Multiplicity                             1    
    Symmetry                                 0    
    Number of roots                          1    
    Ms                                       0
    Excited Algorithm                        NONE
  -----------------------------------------------------------------
  Using 1 threads
  Computing wavefunction for root 0

        ---------------------------------------------------------------
                      Adaptive Configuration Interaction
          written by Jeffrey B. Schriber and Francesco A. Evangelista
        ---------------------------------------------------------------

  ==> Reference Information <==

  There are 0 frozen orbitals.
  There are 7 active orbitals.

  ==> Calculation Information <==

  -----------------------------------------------------------------
    Multiplicity                             1    
    Symmetry                                 0    
    Number of roots                          1    
    Root used for properties                 0    
    Sigma (Eh)                               0.00e+00
    Gamma (Eh^(-1))                          1.00e+00
    Convergence threshold                    1.00e-09
    Ms                                       0
    Diagonalization algorithm                SPARSE
    Excited Algorithm                        NONE
    Project out spin contaminants            True
    Enforce spin completeness of basis       True
    Enforce complete aimed selection         True
  -----------------------------------------------------------------
  Number of active alpha electrons: 5
  Number of active beta electrons: 5
  Maximum reference space size: 1000
  The maximum number of electrons in GAS1 is 1
  The minimum number of electrons in GAS1 is 0
  The maximum number of electrons in GAS2 is 10 
  The minimum number of electrons in GAS2 is 0
  
  Possible electron occupations in the GAS 
  GAS1_A  GAS1_B  GAS2_A  GAS2_B  
     1       0       4       5    
     0       1       5       4    
     0       0       5       5    

  GAS Orbital Energies
  GAS   Energies    Orb 
  1  -20.568999574  0 
  2  -1.320609273  1 
  2  -0.563930450  2 
  2   0.202465902  3 
  2  -0.495003944  4 
  2  -0.678724187  5 
  2   0.292719335  6 

  ==> Diagonalizing the Hamiltonian in the P + Q space <==

  Number of reference roots: 1

  ==> Computing Coupling Lists <==
  --------------------------------
        α          0.000136 s
        β          0.000139 s
        αα         0.000217 s
        ββ         0.000222 s
        αβ         0.000540 s
  --------------------------------

  Davidson-Liu solver algorithm using SigmaVectorSparseList sigma algorithm

  Performing diagonalization of the H matrix
  Found 33 roots with 2S+1 = 1 *
  Found 31 roots with 2S+1 = 3
  Found 4 roots with 2S+1 = 5
  Total time spent diagonalizing H:   0.002591 s

    PQ-space CI Energy Root   0        = -56.291988402050 Eh =   0.0000 eV, S^2 = 0.000000
    PQ-space CI Energy + EPT2 Root   0 = -56.291988402050 Eh =   0.0000 eV

  
  GAS Contribution Analysis  
  GAS contributions root 0: 
  GAS1_A    GASI_B    GAS2_A    GAS2_B        Cont  
     1         0         4         5        0.499969934  
     0         1         5         4        0.499969934  
     0         0         5         5        0.000060131  

           0                  10            0.000060131  
           1                  9            0.999939869  


  ==> ACI Natural Orbitals <==


  ==> Computing Coupling Lists <==
  --------------------------------
        α          0.000137 s
        β          0.000139 s
        1B1     1.999887      1A1     1.999480      2A1     1.996577  
        1B2     1.971539      3A1     1.011202      4A1     0.989619  
        2B2     0.031695  

  ==> Excited state solver summary <==

  Iterations required:                         0
  Dimension of optimized determinant space:    68

  * Selected-CI Energy Root   0        = -56.291988402050 Eh =   0.0000 eV
  * Selected-CI Energy Root   0 + EPT2 = -56.291988402050 Eh =   0.0000 eV

  ==> Wavefunction Information <==

  Most important contributions to root   0:
    0  -0.663458 0.440176189          53 |-22+220>
    1  -0.663458 0.440176189          23 |+22-220>
    2  -0.162047 0.026259293          21 |+22-2-+>
    3  -0.162047 0.026259293          52 |-22+2+->
    4  -0.105571 0.011145254          47 |-22+2-+>
    5  -0.105571 0.011145254          22 |+22-2+->
    6   0.098175 0.009638244          51 |-2+2220>
    7   0.098175 0.009638244          18 |+2-2220>
    8   0.079505 0.006321106          49 |-+22220>
    9   0.079505 0.006321106          10 |+-22220>

  Saving information for root: 0

  ==> Energy Summary <==

    Multi.(2ms)  Irrep.  No.               Energy
    ---------------------------------------------
       1  (  0)    A1     0      -56.291988402050
    ---------------------------------------------

  ==> Computing Coupling Lists <==
  --------------------------------
        α          0.000000 s
        β          0.000000 s
        αα         0.000000 s
        ββ         0.000000 s
        αβ         0.000000 s
  --------------------------------

  ==> Computing Coupling Lists <==
  --------------------------------
        α          0.000136 s
        β          0.000140 s
  1-RDM  took 0.000461 s (determinant)
        αα         0.000210 s
        ββ         0.000214 s
        αβ         0.000554 s
  --------------------------------
  2-RDMS took 0.001334 s (determinant)

 CAS took 0.006030 seconds.

 FormFockIntermediates took 0.00065267 s.

 FormOrbitalGradient took 0.00011530 s.

 FormDiagHessian took 0.00016070 s.

 Update function takes 0.00094774 s
   24 0.000003350018    -0.000000009091   -56.291988402050    0.0 s  DIIS ~

  Transform Integrals takes 0.00567695 s.

  Performing a CAS with ACI

  ==> Summary of Active Space Solver Input <==

    Irrep.  Multi.(2ms)      N
    --------------------------
       A1      1  (  0)      1
    --------------------------
    N: number of roots
    ms: spin z component
    Total number of roots:   1
    --------------------------


-------------------------------------------------------------------------------
               Selected Configuration Interaction Excited States
  written by Jeffrey B. Schriber, Tianyuan Zhang and Francesco A. Evangelista
-------------------------------------------------------------------------------

  ==> Reference Information <==

  ==> Calculation Information <==

  -----------------------------------------------------------------
    Multiplicity                             1    
    Symmetry                                 0    
    Number of roots                          1    
    Ms                                       0
    Excited Algorithm                        NONE
  -----------------------------------------------------------------
  Using 1 threads
  Computing wavefunction for root 0

        ---------------------------------------------------------------
                      Adaptive Configuration Interaction
          written by Jeffrey B. Schriber and Francesco A. Evangelista
        ---------------------------------------------------------------

  ==> Reference Information <==

  There are 0 frozen orbitals.
  There are 7 active orbitals.

  ==> Calculation Information <==

  -----------------------------------------------------------------
    Multiplicity                             1    
    Symmetry                                 0    
    Number of roots                          1    
    Root used for properties                 0    
    Sigma (Eh)                               0.00e+00
    Gamma (Eh^(-1))                          1.00e+00
    Convergence threshold                    1.00e-09
    Ms                                       0
    Diagonalization algorithm                SPARSE
    Excited Algorithm                        NONE
    Project out spin contaminants            True
    Enforce spin completeness of basis       True
    Enforce complete aimed selection         True
  -----------------------------------------------------------------
  Number of active alpha electrons: 5
  Number of active beta electrons: 5
  Maximum reference space size: 1000
  The maximum number of electrons in GAS1 is 1
  The minimum number of electrons in GAS1 is 0
  The maximum number of electrons in GAS2 is 10 
  The minimum number of electrons in GAS2 is 0
  
  Possible electron occupations in the GAS 
  GAS1_A  GAS1_B  GAS2_A  GAS2_B  
     1       0       4       5    
     0       1       5       4    
     0       0       5       5    

  GAS Orbital Energies
  GAS   Energies    Orb 
  1  -20.568999574  0 
  2  -1.320609273  1 
  2  -0.563930450  2 
  2   0.202465902  3 
  2  -0.495003944  4 
  2  -0.678724187  5 
  2   0.292719335  6 

  ==> Diagonalizing the Hamiltonian in the P + Q space <==

  Number of reference roots: 1

  ==> Computing Coupling Lists <==
  --------------------------------
        α          0.000138 s
        β          0.000140 s
        αα         0.000217 s
        ββ         0.000220 s
        αβ         0.000538 s
  --------------------------------

  Davidson-Liu solver algorithm using SigmaVectorSparseList sigma algorithm

  Performing diagonalization of the H matrix
  Found 33 roots with 2S+1 = 1 *
  Found 31 roots with 2S+1 = 3
  Found 4 roots with 2S+1 = 5
  Total time spent diagonalizing H:   0.002553 s

    PQ-space CI Energy Root   0        = -56.291988402560 Eh =   0.0000 eV, S^2 = 0.000000
    PQ-space CI Energy + EPT2 Root   0 = -56.291988402560 Eh =   0.0000 eV

  
  GAS Contribution Analysis  
  GAS contributions root 0: 
  GAS1_A    GASI_B    GAS2_A    GAS2_B        Cont  
     1         0         4         5        0.499969935  
     0         1         5         4        0.499969935  
     0         0         5         5        0.000060131  

           0                  10            0.000060131  
           1                  9            0.999939869  


  ==> ACI Natural Orbitals <==


  ==> Computing Coupling Lists <==
  --------------------------------
        α          0.000136 s
        β          0.000139 s
        1B1     1.999887      1A1     1.999480      2A1     1.996577  
        1B2     1.971537      3A1     1.011202      4A1     0.989619  
        2B2     0.031697  

  ==> Excited state solver summary <==

  Iterations required:                         0
  Dimension of optimized determinant space:    68

  * Selected-CI Energy Root   0        = -56.291988402560 Eh =   0.0000 eV
  * Selected-CI Energy Root   0 + EPT2 = -56.291988402560 Eh =   0.0000 eV

  ==> Wavefunction Information <==

  Most important contributions to root   0:
    0  -0.663460 0.440179511          53 |-22+220>
    1  -0.663460 0.440179511          23 |+22-220>
    2  -0.162041 0.026257232          52 |-22+2+->
    3  -0.162041 0.026257232          21 |+22-2-+>
    4  -0.105561 0.011143173          47 |-22+2-+>
    5  -0.105561 0.011143173          22 |+22-2+->
    6   0.098174 0.009638218          51 |-2+2220>
    7   0.098174 0.009638218          18 |+2-2220>
    8   0.079506 0.006321142          49 |-+22220>
    9   0.079506 0.006321142          10 |+-22220>

  Saving information for root: 0

  ==> Energy Summary <==

    Multi.(2ms)  Irrep.  No.               Energy
    ---------------------------------------------
       1  (  0)    A1     0      -56.291988402560
    ---------------------------------------------

  ==> Computing Coupling Lists <==
  --------------------------------
        α          0.000000 s
        β          0.000000 s
        αα         0.000000 s
        ββ         0.000000 s
        αβ         0.000000 s
  --------------------------------

  ==> Computing Coupling Lists <==
  --------------------------------
        α          0.000136 s
        β          0.000138 s
  1-RDM  took 0.000457 s (determinant)
        αα         0.000212 s
        ββ         0.000215 s
        αβ         0.000535 s
  --------------------------------
  2-RDMS took 0.001200 s (determinant)

 CAS took 0.005859 seconds.

 FormFockIntermediates took 0.00067769 s.

 FormOrbitalGradient took 0.00011248 s.

 FormDiagHessian took 0.00016094 s.

 Update function takes 0.00097051 s
   25 0.000000476136    -0.000000000510   -56.291988402560    0.0 s  DIIS ~

  Transform Integrals takes 0.00597713 s.

  Performing a CAS with ACI

  ==> Summary of Active Space Solver Input <==

    Irrep.  Multi.(2ms)      N
    --------------------------
       A1      1  (  0)      1
    --------------------------
    N: number of roots
    ms: spin z component
    Total number of roots:   1
    --------------------------


-------------------------------------------------------------------------------
               Selected Configuration Interaction Excited States
  written by Jeffrey B. Schriber, Tianyuan Zhang and Francesco A. Evangelista
-------------------------------------------------------------------------------

  ==> Reference Information <==

  ==> Calculation Information <==

  -----------------------------------------------------------------
    Multiplicity                             1    
    Symmetry                                 0    
    Number of roots                          1    
    Ms                                       0
    Excited Algorithm                        NONE
  -----------------------------------------------------------------
  Using 1 threads
  Computing wavefunction for root 0

        ---------------------------------------------------------------
                      Adaptive Configuration Interaction
          written by Jeffrey B. Schriber and Francesco A. Evangelista
        ---------------------------------------------------------------

  ==> Reference Information <==

  There are 0 frozen orbitals.
  There are 7 active orbitals.

  ==> Calculation Information <==

  -----------------------------------------------------------------
    Multiplicity                             1    
    Symmetry                                 0    
    Number of roots                          1    
    Root used for properties                 0    
    Sigma (Eh)                               0.00e+00
    Gamma (Eh^(-1))                          1.00e+00
    Convergence threshold                    1.00e-09
    Ms                                       0
    Diagonalization algorithm                SPARSE
    Excited Algorithm                        NONE
    Project out spin contaminants            True
    Enforce spin completeness of basis       True
    Enforce complete aimed selection         True
  -----------------------------------------------------------------
  Number of active alpha electrons: 5
  Number of active beta electrons: 5
  Maximum reference space size: 1000
  The maximum number of electrons in GAS1 is 1
  The minimum number of electrons in GAS1 is 0
  The maximum number of electrons in GAS2 is 10 
  The minimum number of electrons in GAS2 is 0
  
  Possible electron occupations in the GAS 
  GAS1_A  GAS1_B  GAS2_A  GAS2_B  
     1       0       4       5    
     0       1       5       4    
     0       0       5       5    

  GAS Orbital Energies
  GAS   Energies    Orb 
  1  -20.568999574  0 
  2  -1.320609273  1 
  2  -0.563930450  2 
  2   0.202465902  3 
  2  -0.495003944  4 
  2  -0.678724187  5 
  2   0.292719335  6 

  ==> Diagonalizing the Hamiltonian in the P + Q space <==

  Number of reference roots: 1

  ==> Computing Coupling Lists <==
  --------------------------------
        α          0.000136 s
        β          0.000139 s
        αα         0.000217 s
        ββ         0.000220 s
        αβ         0.000540 s
  --------------------------------

  Davidson-Liu solver algorithm using SigmaVectorSparseList sigma algorithm

  Performing diagonalization of the H matrix
  Found 33 roots with 2S+1 = 1 *
  Found 31 roots with 2S+1 = 3
  Found 4 roots with 2S+1 = 5
  Total time spent diagonalizing H:   0.002551 s

    PQ-space CI Energy Root   0        = -56.291988402564 Eh =   0.0000 eV, S^2 = 0.000000
    PQ-space CI Energy + EPT2 Root   0 = -56.291988402564 Eh =   0.0000 eV

  
  GAS Contribution Analysis  
  GAS contributions root 0: 
  GAS1_A    GASI_B    GAS2_A    GAS2_B        Cont  
     1         0         4         5        0.499969935  
     0         1         5         4        0.499969935  
     0         0         5         5        0.000060131  

           0                  10            0.000060131  
           1                  9            0.999939869  


  ==> ACI Natural Orbitals <==


  ==> Computing Coupling Lists <==
  --------------------------------
        α          0.000136 s
        β          0.000139 s
        1B1     1.999887      1A1     1.999480      2A1     1.996577  
        1B2     1.971538      3A1     1.011202      4A1     0.989619  
        2B2     0.031697  

  ==> Excited state solver summary <==

  Iterations required:                         0
  Dimension of optimized determinant space:    68

  * Selected-CI Energy Root   0        = -56.291988402564 Eh =   0.0000 eV
  * Selected-CI Energy Root   0 + EPT2 = -56.291988402564 Eh =   0.0000 eV

  ==> Wavefunction Information <==

  Most important contributions to root   0:
    0  -0.663460 0.440179162          53 |-22+220>
    1  -0.663460 0.440179162          23 |+22-220>
    2  -0.162042 0.026257471          52 |-22+2+->
    3  -0.162042 0.026257471          21 |+22-2-+>
    4  -0.105562 0.011143363          47 |-22+2-+>
    5  -0.105562 0.011143363          22 |+22-2+->
    6   0.098174 0.009638205          51 |-2+2220>
    7   0.098174 0.009638205          18 |+2-2220>
    8   0.079506 0.006321137          49 |-+22220>
    9   0.079506 0.006321137          10 |+-22220>

  Saving information for root: 0

  ==> Energy Summary <==

    Multi.(2ms)  Irrep.  No.               Energy
    ---------------------------------------------
       1  (  0)    A1     0      -56.291988402564
    ---------------------------------------------

  ==> Computing Coupling Lists <==
  --------------------------------
        α          0.000000 s
        β          0.000000 s
        αα         0.000000 s
        ββ         0.000000 s
        αβ         0.000000 s
  --------------------------------

  ==> Computing Coupling Lists <==
  --------------------------------
        α          0.000136 s
        β          0.000139 s
  1-RDM  took 0.000459 s (determinant)
        αα         0.000212 s
        ββ         0.000216 s
        αβ         0.000533 s
  --------------------------------
  2-RDMS took 0.001199 s (determinant)

 CAS took 0.005838 seconds.

 FormFockIntermediates took 0.00064910 s.

 FormOrbitalGradient took 0.00011211 s.

 FormDiagHessian took 0.00016229 s.

 Update function takes 0.00094285 s
    26   0.000000175018   -0.000000000004   -56.291988402564    0.012919 s

  A miracle has come to pass: CASSCF iterations have converged.

 @ Final CASSCF Energy =  -56.291988402563767


  ==> Semi-canonicalize CASSCF Orbitals <==

    Building Fock matrix  ... Done.
    Diagonalizing block 0 ... Done.
    Diagonalizing block 1 ... Done.
    Diagonalizing block 2 ... Done.

  Time to prepare integrals:        0.063 seconds
  Time to run job          :        0.365 seconds
  Total                    :        0.365 seconds    GASSCF energy.........................................................................PASSED

    Psi4 stopped on: Thursday, 12 November 2020 09:11PM
    Psi4 wall time for execution: 0:00:00.73

*** Psi4 exiting successfully. Buy a developer a beer!
