    -----------------------------------------------------------------------
          Psi4: An Open-Source Ab Initio Electronic Structure Package
                              Psi4 1.0rc6 Driver

                          Git: Rev {cholesky_improvements} 1da7458 dirty

    J. M. Turney, A. C. Simmonett, R. M. Parrish, E. G. Hohenstein,
    F. A. Evangelista, J. T. Fermann, B. J. Mintz, L. A. Burns, J. J. Wilke,
    M. L. Abrams, N. J. Russ, M. L. Leininger, C. L. Janssen, E. T. Seidl,
    W. D. Allen, H. F. Schaefer, R. A. King, E. F. Valeev, C. D. Sherrill,
    and T. D. Crawford, WIREs Comput. Mol. Sci. 2, 556-565 (2012)
    (doi: 10.1002/wcms.93)

                         Additional Contributions by
    A. E. DePrince, U. Bozkaya, A. Yu. Sokolov, D. G. A. Smith, R. Di Remigio,
    R. M. Richard, J. F. Gonthier, H. R. McAlexander, M. Saitow, and
    B. P. Pritchard
    -----------------------------------------------------------------------


    Psi4 started on: Fri May 27 11:54:03 2016

    Process ID:  54701
    PSI4DATADIR: /Users/kevinhannon/Programs/psi4/psi4src/share
    Memory level set to 256.000 MB

  ==> Input File <==

--------------------------------------------------------------------------
import forte

fci_ref = -75.882960895972374

molecule H2O {
 0 3
   O   0.000000000   0.00   0.000000000
   H   0.790689766   0.00   0.612217330
   H  -0.790689766   0.00   0.612217330
 units angstrom
}


set basis          cc-pVDZ
set reference      rohf
set scf_type       direct
set e_convergence  1e-13
set d_convergence  1e-13
set ints_tolerance 0.0

set forte{
    root_sym            0
    multiplicity        3
    restricted_docc      [ 1 , 0 , 0 , 0 ]
    active               [ 5 , 0 , 4 , 2 ]
    dmrg_states          [  200,  500, 1000, 1000 ]
    dmrg_econv           [ 1e-8, 1e-8, 1e-8, 1e-8 ]
    dmrg_maxsweeps       [    5,    5,    5,  100 ]
    dmrg_noiseprefactors [ 0.03, 0.03, 0.03,  0.0 ]
    dmrg_print_corr      true
    mps_chkpt            false
    int_type             conventional
    cas_type             dmrg
    job_type             dsrg-mrpt2
    dsrg_s               0.5
 }

refscf, refwfn = energy('scf', return_wfn=True)
dmrg_dsrg = energy('forte', ref_wfn=refwfn)

compare_values(dmrg_dsrg, fci_ref, 8,"DMRG CI Energy")

--------------------------------------------------------------------------
/Users/kevinhannon/Programs/forte/forte.so loaded.

*** tstart() called on Kevins-MacBook-Pro.local
*** at Fri May 27 11:54:04 2016


         ---------------------------------------------------------
                                   SCF
            by Justin Turney, Rob Parrish, and Andy Simmonett
                             ROHF Reference
                        1 Threads,    256 MiB Core
         ---------------------------------------------------------

  ==> Geometry <==

    Molecular point group: c2v
    Full point group: C2v

    Geometry (in Angstrom), charge = 0, multiplicity = 3:

       Center              X                  Y                   Z               Mass       
    ------------   -----------------  -----------------  -----------------  -----------------
           O          0.000000000000     0.000000000000    -0.068516224902    15.994914619560
           H          0.790689766000     0.000000000000     0.543701105098     1.007825032070
           H         -0.790689766000    -0.000000000000     0.543701105098     1.007825032070

  Running in c2v symmetry.

  Rotational constants: A =     25.12555  B =     13.37732  C =      8.72954 [cm^-1]
  Rotational constants: A = 753244.94291  B = 401041.96904  C = 261705.15489 [MHz]
  Nuclear repulsion =    8.801463902522988

  Charge       = 0
  Multiplicity = 3
  Electrons    = 10
  Nalpha       = 6
  Nbeta        = 4

  ==> Algorithm <==

  SCF Algorithm Type is DIRECT.
  DIIS enabled.
  MOM disabled.
  Fractional occupation disabled.
  Guess Type is CORE.
  Energy threshold   = 1.00e-13
  Density threshold  = 1.00e-13
  Integral threshold = 0.00e+00

  ==> Primary Basis <==

  Basis Set: CC-PVDZ
    Number of shells: 12
    Number of basis function: 24
    Number of Cartesian functions: 25
    Spherical Harmonics?: true
    Max angular momentum: 2

  ==> Pre-Iterations <==

   -------------------------------------------------------
    Irrep   Nso     Nmo     Nalpha   Nbeta   Ndocc  Nsocc
   -------------------------------------------------------
     A1        11      11       0       0       0       0
     A2         2       2       0       0       0       0
     B1         7       7       0       0       0       0
     B2         4       4       0       0       0       0
   -------------------------------------------------------
    Total      24      24       6       4       4       2
   -------------------------------------------------------

  Starting with a DF guess...

  ==> Integral Setup <==

  ==> DFJK: Density-Fitted J/K Matrices <==

    J tasked:                  Yes
    K tasked:                  Yes
    wK tasked:                  No
    OpenMP threads:              1
    Integrals threads:           1
    Memory (MB):               183
    Algorithm:                Core
    Integral Cache:           NONE
    Schwarz Cutoff:          0E+00
    Fitting Condition:       1E-12

   => Auxiliary Basis Set <=

  Basis Set: 
    Number of shells: 42
    Number of basis function: 116
    Number of Cartesian functions: 131
    Spherical Harmonics?: true
    Max angular momentum: 3

  Minimum eigenvalue in the overlap matrix is 3.7382455573E-02.
  Using Symmetric Orthogonalization.
  SCF Guess: Core (One-Electron) Hamiltonian.

  ==> Iterations <==

                           Total Energy        Delta E     RMS |[F,P]|

    Occupation by irrep:
             A1    A2    B1    B2 
    DOCC [     3,    0,    1,    0 ]
    SOCC [     0,    0,    1,    1 ]

   @DF-ROHF iter   1:   -69.40984086790080   -6.94098e+01   1.83394e-01 
    Occupation by irrep:
             A1    A2    B1    B2 
    DOCC [     2,    0,    1,    1 ]
    SOCC [     2,    0,    0,    0 ]

   @DF-ROHF iter   2:   -71.76473092589455   -2.35489e+00   1.36772e-01 DIIS
   @DF-ROHF iter   3:   -75.55345659944243   -3.78873e+00   3.38938e-02 DIIS
   @DF-ROHF iter   4:   -75.69171861917380   -1.38262e-01   7.34183e-03 DIIS
   @DF-ROHF iter   5:   -75.69940731914274   -7.68870e-03   1.48948e-03 DIIS
   @DF-ROHF iter   6:   -75.69981492963441   -4.07610e-04   2.56551e-04 DIIS
   @DF-ROHF iter   7:   -75.69982978557913   -1.48559e-05   3.81149e-05 DIIS
   @DF-ROHF iter   8:   -75.69983012876143   -3.43182e-07   5.76203e-06 DIIS
   @DF-ROHF iter   9:   -75.69983013842797   -9.66654e-09   1.01989e-06 DIIS
   @DF-ROHF iter  10:   -75.69983013874057   -3.12596e-10   1.80084e-07 DIIS
   @DF-ROHF iter  11:   -75.69983013874798   -7.41807e-12   3.08867e-08 DIIS
   @DF-ROHF iter  12:   -75.69983013874820   -2.13163e-13   3.92254e-09 DIIS
   @DF-ROHF iter  13:   -75.69983013874815    4.26326e-14   5.17325e-10 DIIS
   @DF-ROHF iter  14:   -75.69983013874814    1.42109e-14   4.43592e-11 DIIS
   @DF-ROHF iter  15:   -75.69983013874820   -5.68434e-14   5.89713e-12 DIIS
   @DF-ROHF iter  16:   -75.69983013874813    7.10543e-14   8.21778e-13 DIIS
   @DF-ROHF iter  17:   -75.69983013874817   -4.26326e-14   1.69561e-13 DIIS
   @DF-ROHF iter  18:   -75.69983013874815    1.42109e-14   2.20829e-14 DIIS

  DF guess converged.

  ==> Integral Setup <==

  ==> DirectJK: Integral-Direct J/K Matrices <==

    J tasked:                  Yes
    K tasked:                  Yes
    wK tasked:                  No
    Integrals threads:           1
    Schwarz Cutoff:          0E+00

   @ROHF iter  19:   -75.69984141788956   -1.12791e-05   1.03029e-05 DIIS
   @ROHF iter  20:   -75.69984143040080   -1.25112e-08   1.74701e-06 DIIS
   @ROHF iter  21:   -75.69984143086842   -4.67622e-10   7.92428e-07 DIIS
   @ROHF iter  22:   -75.69984143094106   -7.26459e-11   1.39801e-07 DIIS
   @ROHF iter  23:   -75.69984143094587   -4.80327e-12   2.62729e-08 DIIS
   @ROHF iter  24:   -75.69984143094608   -2.13163e-13   7.71329e-09 DIIS
   @ROHF iter  25:   -75.69984143094601    7.10543e-14   1.13661e-09 DIIS
   @ROHF iter  26:   -75.69984143094607   -5.68434e-14   1.95050e-10 DIIS
   @ROHF iter  27:   -75.69984143094608   -1.42109e-14   3.18765e-11 DIIS
   @ROHF iter  28:   -75.69984143094607    1.42109e-14   2.83060e-12 DIIS
   @ROHF iter  29:   -75.69984143094609   -2.84217e-14   3.89868e-13 DIIS
   @ROHF iter  30:   -75.69984143094614   -4.26326e-14   7.44013e-14 DIIS

  ==> Post-Iterations <==

    Orbital Energies (a.u.)
    -----------------------

    Doubly Occupied:                                                      

       1A1   -20.722613     2A1    -1.444542     1B1    -0.807977  
       1B2    -0.642495  

    Singly Occupied:                                                      

       3A1    -0.442029     4A1     0.017647  

    Virtual:                                                              

       2B1     0.199970     3B1     0.696365     5A1     0.746078  
       6A1     1.040642     2B2     1.069950     4B1     1.145498  
       7A1     1.363445     1A2     1.404235     3B2     1.600848  
       8A1     1.765227     5B1     1.827483     6B1     2.263947  
       9A1     2.299060     4B2     3.090531     2A2     3.150132  
      10A1     3.291432    11A1     3.680212     7B1     3.943347  

    Final Occupation by Irrep:
             A1    A2    B1    B2 
    DOCC [     2,    0,    1,    1 ]
    SOCC [     2,    0,    0,    0 ]

  Energy converged.

  @ROHF Final Energy:   -75.69984143094614

   => Energetics <=

    Nuclear Repulsion Energy =              8.8014639025229879
    One-Electron Energy =                -120.7531034694017933
    Two-Electron Energy =                  36.2517981359326811
    DFT Exchange-Correlation Energy =       0.0000000000000000
    Empirical Dispersion Energy =           0.0000000000000000
    PCM Polarization Energy =               0.0000000000000000
    EFP Energy =                            0.0000000000000000
    Total Energy =                        -75.6998414309461225


  Saving occupied orbitals to File 180.

*** tstop() called on Kevins-MacBook-Pro.local at Fri May 27 11:54:05 2016
Module time:
	user time   =       1.18 seconds =       0.02 minutes
	system time =       0.01 seconds =       0.00 minutes
	total time  =          1 seconds =       0.02 minutes
Total time:
	user time   =       1.18 seconds =       0.02 minutes
	system time =       0.01 seconds =       0.00 minutes
	total time  =          1 seconds =       0.02 minutes


Properties will be evaluated at   0.000000,   0.000000,   0.000000 Bohr

Properties computed using the SCF density matrix

  Nuclear Dipole Moment: (a.u.)
     X:     0.0000      Y:     0.0000      Z:     1.0191

  Electronic Dipole Moment: (a.u.)
     X:     0.0000      Y:     0.0000      Z:    -1.2916

  Dipole Moment: (a.u.)
     X:     0.0000      Y:     0.0000      Z:    -0.2726     Total:     0.2726

  Dipole Moment: (Debye)
     X:     0.0000      Y:     0.0000      Z:    -0.6928     Total:     0.6928


Reading options from the FORTE block
Calling plugin /Users/kevinhannon/Programs/forte/forte.so.




  ==> MO Space Information <==

  Read options for space RESTRICTED_DOCC
  Read options for space ACTIVE
  -------------------------------------------------
                       A1    A2    B1    B2   Sum
  -------------------------------------------------
    FROZEN_DOCC         0     0     0     0     0
    RESTRICTED_DOCC     1     0     0     0     1
    ACTIVE              5     0     4     2    11
    RESTRICTED_UOCC     5     2     3     2    12
    FROZEN_UOCC         0     0     0     0     0
    Total              11     2     7     4    24
  -------------------------------------------------  ---------------------------------------
    Atomic Orbital Subspace
    written by Francesco A. Evangelista
  ---------------------------------------

  List of subspaces:

  Subspace contains AOs:


  Minimal basis:
    ==================================
       AO    Atom    Label  AO type   
    ----------------------------------
        1     1       O  1     1S
        2     1       O  1     2S
        3     1       O  1     2PZ
        4     1       O  1     2PX
        5     1       O  1     2PY
        6     2       H  1     1S
        7     3       H  2     1S
    ==================================

  Orbital overlap with ao subspace:
    ========================
    Irrep   MO   <phi|P|phi>
    ------------------------
      0      1    0.000000
      0      2    0.000000
      0      3    0.000000
      0      4    0.000000
      0      5    0.000000
      0      6    0.000000
      0      7    0.000000
      0      8    0.000000
      0      9    0.000000
      0     10    0.000000
      0     11    0.000000
      1      1    0.000000
      1      2    0.000000
      2      1    0.000000
      2      2    0.000000
      2      3    0.000000
      2      4    0.000000
      2      5    0.000000
      2      6    0.000000
      2      7    0.000000
      3      1    0.000000
      3      2    0.000000
      3      3    0.000000
      3      4    0.000000
    ========================


  ==> Integral Transformation <==

  Number of molecular orbitals:               24
  Number of correlated molecular orbitals:    24
  Number of frozen occupied orbitals:          0
  Number of frozen unoccupied orbitals:        0


  Overall Conventional Integrals timings

	Presorting SO-basis two-electron integrals.
	Sorting File: SO Ints (nn|nn) nbuckets = 1
	Transforming the one-electron integrals and constructing Fock matrices
	Starting first half-transformation.
	Sorting half-transformed integrals.
	First half integral transformation complete.
	Starting second half-transformation.
	Two-electron integral transformation complete.

  Integral transformation done. 0.02208900 s
  Reading the two-electron integrals from disk
  Size of two-electron integrals:   0.007416 GB
  Conventional integrals take 0.11984100 s

                  --------------------------------------------
                    Density Matrix Renormalization Group SCF
                               Sebastian Wouters
                  --------------------------------------------
Psi4 symmetry group was found to be <c2v>.
nElectrons  = 10
nEl. active = 8

 OneBody integrals (though one_body_operator) takes 0.11871 s
 Overall DMRG Solver took 6.29117 s.
 Overall DMRG RDM computation took 0.25861 s.
 @DMRG Energy = -75.784197011783

                          ----------------------------
                            Semi-Canonical Orbitals
                            Francesco A. Evangelista
                          ----------------------------

 Took 0.002302 s to build fock matrix

  ==> Integral transformation <==
	Presorting SO-basis two-electron integrals.
	Sorting File: SO Ints (nn|nn) nbuckets = 1
	Transforming the one-electron integrals and constructing Fock matrices
	Starting first half-transformation.
	Sorting half-transformed integrals.
	First half integral transformation complete.
	Starting second half-transformation.
	Two-electron integral transformation complete.

  Integral transformation done. 0.01831600 s
  Reading the two-electron integrals from disk
  Size of two-electron integrals:   0.007416 GB
  Frozen Orbitals takes     0.000 s.
 SemiCanonicalize takes 0.136978 s.

                  --------------------------------------------
                    Density Matrix Renormalization Group SCF
                               Sebastian Wouters
                  --------------------------------------------
Psi4 symmetry group was found to be <c2v>.
nElectrons  = 10
nEl. active = 8

 OneBody integrals (though one_body_operator) takes 0.12181 s
 Overall DMRG Solver took 5.81598 s.
 Overall DMRG RDM computation took 0.52387 s.
 @DMRG Energy = -75.784197011784

              ----------------------------------------------------
                 Driven Similarity Renormalization Group MBPT2
                Chenyang Li, Kevin Hannon, Francesco Evangelista
              ----------------------------------------------------

    Reference:
      J. Chem. Theory Comput. 2015, 11, 2097-2108.

  ==> Checking Orbitals <==

    Checking if orbitals are semi-canonicalized ...     OK.
    Orbitals are semi-canonicalized.

  ==> Calculation Information <==

    ntamp                                           15
    flow parameter                           5.000e-01
    taylor expansion threshold               1.000e-03
    intruder_tamp                            1.000e-01
    int_type                                CONVENTIONAL
    source operator                           STANDARD
    reference relaxation                          NONE

  ==> Computing DSRG-MRPT2 ... <==

    Computing T2 amplitudes                  ...  Done. Timing        0.053584 s
    Computing T1 amplitudes                  ...  Done. Timing        0.008159 s
    Renormalizing two-electron integrals     ...  Done. Timing        0.043957 s
    Renormalizing Fock matrix elements       ...  Done. Timing        0.009068 s
    Computing <[F, T1]>                      ...  Done. Timing        0.001952 s
    Computing <[F, T2]>                      ...  Done. Timing        0.010026 s
    Computing <[V, T1]>                      ...  Done. Timing        0.010073 s
    Computing <[V, T2]> (C_2)^4              ...  Done. Timing        0.048769 s
    Computing <[V, T2]> C_4 (C_2)^2 HH       ...  Done. Timing        0.008491 s
    Computing <[V, T2]> C_4 (C_2)^2 PP       ...  Done. Timing        0.014861 s
    Computing <[V, T2]> C_4 (C_2)^2 PH       ...  Done. Timing        0.060001 s
    Computing <[V, T2]> C_6 C_2              ...  Done. Timing        3.095343 s

  ==> Excitation Amplitudes Summary <==

    Active Indices:    1    2    3    4    5   13   14   15   16   20 
                      21 
    Largest T1 amplitudes for spin case A:
       i       a                  i       a                  i       a               
    --------------------------------------------------------------------------------
    [  2       8    ]-0.009951 [  2       7    ] 0.008059 [  2       9    ]-0.006879 
    [  3       7    ]-0.003405 [  2      10    ] 0.002874 [  3       6    ]-0.002792 
    [  3       9    ] 0.002728 [  2       6    ] 0.002577 [ 15      18    ]-0.002290 
    [ 16      18    ] 0.002041 [  4       8    ]-0.001908 [  3       8    ]-0.001650 
    [ 16      19    ] 0.001451 [ 14      18    ]-0.001365 [  5      10    ] 0.000949 
    --------------------------------------------------------------------------------
    Norm of T1A vector: (nonzero elements: 51)                    0.016644754619418.
    --------------------------------------------------------------------------------
    Largest T1 amplitudes for spin case B:
       _       _                  _       _                  _       _               
       i       a                  i       a                  i       a               
    --------------------------------------------------------------------------------
    [  2       8    ]-0.009951 [  2       7    ] 0.008059 [  2       9    ]-0.006879 
    [  3       7    ]-0.003405 [  2      10    ] 0.002874 [  3       6    ]-0.002792 
    [  3       9    ] 0.002728 [  2       6    ] 0.002577 [ 15      18    ]-0.002290 
    [ 16      18    ] 0.002041 [  4       8    ]-0.001908 [  3       8    ]-0.001650 
    [ 16      19    ] 0.001451 [ 14      18    ]-0.001365 [  5      10    ] 0.000949 
    --------------------------------------------------------------------------------
    Norm of T1B vector: (nonzero elements: 51)                    0.016644754619418.
    --------------------------------------------------------------------------------
    Largest T2 amplitudes for spin case AA:
       i   j   a   b              i   j   a   b              i   j   a   b           
    --------------------------------------------------------------------------------
    [ 15  20  18  20] 0.048765 [  4  20   8  20] 0.047041 [  1   4   1   8] 0.045710 
    [  1  15   1  18] 0.044941 [  2   4   2   8] 0.040594 [  4  21   8  21] 0.038905 
    [  2  15   2  18] 0.038178 [ 15  21  18  21] 0.036694 [  4  13   8  13] 0.036451 
    [  1  20   7  20] 0.035616 [  5  15   5  18] 0.034270 [  4  16   8  16] 0.033737 
    [ 16  20  18  20]-0.033694 [  1  16   1  19]-0.033377 [ 16  20  19  20]-0.032935 
    --------------------------------------------------------------------------------
    Norm of T2AA vector: (nonzero elements: 14628)                0.620146316552541.
    --------------------------------------------------------------------------------
    Largest T2 amplitudes for spin case AB:
           _       _                  _       _                  _       _           
       i   j   a   b              i   j   a   b              i   j   a   b           
    --------------------------------------------------------------------------------
    [  1   4   1   8] 0.059530 [  4  20   8  20] 0.058889 [  1  15   1  18] 0.055157 
    [  2  15   2  18] 0.051334 [ 15  20  18  20] 0.050951 [  4  13   8  13] 0.047864 
    [  2   4   2   8] 0.047757 [ 13  15  13  18] 0.047397 [  4  21   8  21] 0.043431 
    [  1  16   1  19]-0.040869 [ 15  21  18  21] 0.037743 [  5  15   5  18] 0.036683 
    [  1   3   1   7]-0.036070 [ 16  20  18  20]-0.036011 [ 13  16  13  19]-0.035227 
    --------------------------------------------------------------------------------
    Norm of T2AB vector: (nonzero elements: 16799)                0.652511147656086.
    --------------------------------------------------------------------------------
    Largest T2 amplitudes for spin case BB:
       _   _   _   _              _   _   _   _              _   _   _   _           
       i   j   a   b              i   j   a   b              i   j   a   b           
    --------------------------------------------------------------------------------
    [ 15  20  18  20] 0.048765 [  4  20   8  20] 0.047041 [  1   4   1   8] 0.045710 
    [  1  15   1  18] 0.044941 [  2   4   2   8] 0.040594 [  4  21   8  21] 0.038905 
    [  2  15   2  18] 0.038178 [ 15  21  18  21] 0.036694 [  4  13   8  13] 0.036451 
    [  1  20   7  20] 0.035616 [  5  15   5  18] 0.034270 [  4  16   8  16] 0.033737 
    [ 16  20  18  20]-0.033694 [  1  16   1  19]-0.033377 [ 16  20  19  20]-0.032935 
    --------------------------------------------------------------------------------
    Norm of T2BB vector: (nonzero elements: 14628)                0.620146316552541.
    --------------------------------------------------------------------------------

  ==> Possible Intruders <==

    T1 amplitudes larger than 0.1000 for spin case A: NULL
    T1 amplitudes larger than 0.1000 for spin case B: NULL
    T2 amplitudes larger than 0.1000 for spin case AA: NULL
    T2 amplitudes larger than 0.1000 for spin case AB: NULL
    T2 amplitudes larger than 0.1000 for spin case BB: NULL

  ==> DSRG-MRPT2 Energy Summary <==

    E0 (reference)                 =    -75.784197011783604
    <[F, T1]>                      =     -0.000813046672338
    <[F, T2]>                      =      0.000691996687322
    <[V, T1]>                      =      0.000912729707086
    <[V, T2]> (C_2)^4              =     -0.118659409618690
    <[V, T2]> C_4 (C_2)^2 HH       =      0.000066194337264
    <[V, T2]> C_4 (C_2)^2 PP       =      0.012153558315019
    <[V, T2]> C_4 (C_2)^2 PH       =      0.007080912558721
    <[V, T2]> C_6 C_2              =     -0.000196820256542
    <[V, T2]>                      =     -0.099555564664227
    DSRG-MRPT2 correlation energy  =     -0.098763884942157
    DSRG-MRPT2 total energy        =    -75.882960896725763
    max(T1)                        =      0.009950592001123
    max(T2)                        =      0.059529616631116
    ||T1||                         =      0.023539237725153
    ||T2||                         =      1.572337781499007

  Energy took 3.42244600 s

  ==> Total Timings (s) for Computing Commutators <==

             [H1, T1]    [H1, T2]    [H2, T1]    [H2, T2]
    -----------------------------------------------------
    -> C0       0.002       0.010       0.010       3.228
    -> C1       0.000       0.000       0.000       0.000
    -> C2                   0.000       0.000       0.000
    -----------------------------------------------------


  Your calculation took 19.34307800 seconds
	DMRG CI Energy....................................................PASSED

*** Psi4 exiting successfully. Buy a developer a beer!
