
    -----------------------------------------------------------------------
          Psi4: An Open-Source Ab Initio Electronic Structure Package
                               Psi4 undefined 

                         Git: Rev {master} 4dde4d8 


    D. G. A. Smith, L. A. Burns, A. C. Simmonett, R. M. Parrish,
    M. C. Schieber, R. Galvelis, P. Kraus, H. Kruse, R. Di Remigio,
    A. Alenaizan, A. M. James, S. Lehtola, J. P. Misiewicz, M. Scheurer,
    R. A. Shaw, J. B. Schriber, Y. Xie, Z. L. Glick, D. A. Sirianni,
    J. S. O'Brien, J. M. Waldrop, A. Kumar, E. G. Hohenstein,
    B. P. Pritchard, B. R. Brooks, H. F. Schaefer III, A. Yu. Sokolov,
    K. Patkowski, A. E. DePrince III, U. Bozkaya, R. A. King,
    F. A. Evangelista, J. M. Turney, T. D. Crawford, C. D. Sherrill,
    J. Chem. Phys. 152(18) 184108 (2020). https://doi.org/10.1063/5.0006002

                            Additional Code Authors
    E. T. Seidl, C. L. Janssen, E. F. Valeev, M. L. Leininger,
    J. F. Gonthier, R. M. Richard, H. R. McAlexander, M. Saitow, X. Wang,
    P. Verma, and M. H. Lechner

             Previous Authors, Complete List of Code Contributors,
                       and Citations for Specific Modules
    https://github.com/psi4/psi4/blob/master/codemeta.json
    https://github.com/psi4/psi4/graphs/contributors
    http://psicode.org/psi4manual/master/introduction.html#citing-psifour

    -----------------------------------------------------------------------


    Psi4 started on: Thursday, 10 December 2020 09:52AM

    Process ID: 1882
    Host:       Yorks-Mac.local
    PSIDATADIR: /Users/york/src/psi4new/psi4/share/psi4
    Memory:     500.0 MiB
    Threads:    8
    
  ==> Input File <==

--------------------------------------------------------------------------
import forte

memory 2 gb

escf = -304.9057795504939463
eacidsrg = -305.39002965581

molecule ene2{
0 1

    C            0.335863347908    -0.638024351991     0.000000000207
    H            1.432938644893    -0.620850793123     0.000000000280
    C           -0.296842800370    -1.839541056853     0.000000000164
    H           -1.393739522764    -1.860704439495     0.000000000280
    C            0.383204758655    -3.118962138239     0.000000000233
    H            1.479554406702    -3.087254985300     0.000000001289
    C           -0.237579194060    -4.313790051647    -0.000000000740
    H            0.325161338012    -5.249189944735    -0.000000000503
    H           -1.329245280272    -4.386987205251    -0.000000001655
    C           -0.335863360640     0.638024352182     0.000000000468
    H           -1.432938656420     0.620850793004     0.000000000922
    C            0.296842792408     1.839541055584     0.000000000041
    H            1.393739512934     1.860704430863    -0.000000000539
    C           -0.383204755743     3.118962141979     0.000000000141
    H           -1.479554404938     3.087254999541     0.000000000472
    C            0.237579209937     4.313790049182    -0.000000000431
    H            1.329245296894     4.386987192215    -0.000000001010
    H           -0.325161312367     5.249189949931    -0.000000000534

units angstrom
symmetry c1
}

set {
  basis sto-3g
  df_basis_mp2 cc-pvdz-ri
  df_basis_scf cc-pvdz-jkfit
  scf_type df
  guess sad
  maxiter 500
  e_convergence 10
  d_convergence 10
  r_convergence 10
  reference rhf
  ints_tolerance 0.0
}

set forte {
  multiplicity 1
  int_type df
  correlation_solver three-dsrg-mrpt2
  active_space_solver  aci
  frozen_docc      [8]
  restricted_docc  [17]
  active           [8]
  sigma 0.001
  diag_algorithm dynamic
  sci_direct_rdms true
  aci_screen_alg batch_hash
  aci_nbatch 4
  nroot 1
  root_sym 0
  charge 0
}

set_num_threads(8)

e, scf_wfn = energy('scf', return_wfn=True)
compare_values(escf, variable("CURRENT ENERGY"), 9, "SCF energy")

energy('forte', ref_wfn=scf_wfn)
compare_values(eacidsrg, variable("CURRENT ENERGY"), 9, "ACI-DSRG-MRPT2 energy")
--------------------------------------------------------------------------

  Memory set to   1.863 GiB by Python driver.
  Threads set to 8 by Python driver.

Scratch directory: /Users/york/scratch/psi4/

*** tstart() called on Yorks-Mac.local
*** at Thu Dec 10 09:52:40 2020

   => Loading Basis Set <=

    Name: STO-3G
    Role: ORBITAL
    Keyword: BASIS
    atoms 1, 3, 5, 7, 10, 12, 14, 16      entry C          line    61 file /Users/york/src/psi4new/psi4/share/psi4/basis/sto-3g.gbs 
    atoms 2, 4, 6, 8-9, 11, 13, 15, 17-18 entry H          line    19 file /Users/york/src/psi4new/psi4/share/psi4/basis/sto-3g.gbs 


         ---------------------------------------------------------
                                   SCF
               by Justin Turney, Rob Parrish, Andy Simmonett
                          and Daniel G. A. Smith
                              RHF Reference
                        8 Threads,   1907 MiB Core
         ---------------------------------------------------------

  ==> Geometry <==

    Molecular point group: c1
    Full point group: Cs

    Geometry (in Angstrom), charge = 0, multiplicity = 1:

       Center              X                  Y                   Z               Mass       
    ------------   -----------------  -----------------  -----------------  -----------------
         C            0.335863347908    -0.638024351991     0.000000000207    12.000000000000
         H            1.432938644893    -0.620850793123     0.000000000280     1.007825032230
         C           -0.296842800370    -1.839541056853     0.000000000164    12.000000000000
         H           -1.393739522764    -1.860704439495     0.000000000280     1.007825032230
         C            0.383204758655    -3.118962138239     0.000000000233    12.000000000000
         H            1.479554406702    -3.087254985300     0.000000001289     1.007825032230
         C           -0.237579194060    -4.313790051647    -0.000000000740    12.000000000000
         H            0.325161338012    -5.249189944735    -0.000000000503     1.007825032230
         H           -1.329245280272    -4.386987205251    -0.000000001655     1.007825032230
         C           -0.335863360640     0.638024352182     0.000000000468    12.000000000000
         H           -1.432938656420     0.620850793004     0.000000000922     1.007825032230
         C            0.296842792408     1.839541055584     0.000000000041    12.000000000000
         H            1.393739512934     1.860704430863    -0.000000000539     1.007825032230
         C           -0.383204755743     3.118962141979     0.000000000141    12.000000000000
         H           -1.479554404938     3.087254999541     0.000000000472     1.007825032230
         C            0.237579209937     4.313790049182    -0.000000000431    12.000000000000
         H            1.329245296894     4.386987192215    -0.000000001010     1.007825032230
         H           -0.325161312367     5.249189949931    -0.000000000534     1.007825032230

  Running in c1 symmetry.

  Rotational constants: A =      0.65101  B =      0.01889  C =      0.01836 [cm^-1]
  Rotational constants: A =  19516.70371  B =    566.30750  C =    550.33857 [MHz]
  Nuclear repulsion =  296.638713598584559

  Charge       = 0
  Multiplicity = 1
  Electrons    = 58
  Nalpha       = 29
  Nbeta        = 29

  ==> Algorithm <==

  SCF Algorithm Type is DF.
  DIIS enabled.
  MOM disabled.
  Fractional occupation disabled.
  Guess Type is SAD.
  Energy threshold   = 1.00e-10
  Density threshold  = 1.00e-10
  Integral threshold = 0.00e+00

  ==> Primary Basis <==

  Basis Set: STO-3G
    Blend: STO-3G
    Number of shells: 34
    Number of basis function: 50
    Number of Cartesian functions: 50
    Spherical Harmonics?: true
    Max angular momentum: 1

   => Loading Basis Set <=

    Name: CC-PVDZ-JKFIT
    Role: JKFIT
    Keyword: DF_BASIS_SCF
    atoms 1, 3, 5, 7, 10, 12, 14, 16      entry C          line   121 file /Users/york/src/psi4new/psi4/share/psi4/basis/cc-pvdz-jkfit.gbs 
    atoms 2, 4, 6, 8-9, 11, 13, 15, 17-18 entry H          line    51 file /Users/york/src/psi4new/psi4/share/psi4/basis/cc-pvdz-jkfit.gbs 

  ==> Integral Setup <==

  DFHelper Memory: AOs need 0.020 GiB; user supplied 1.397 GiB. Using in-core AOs.

  ==> MemDFJK: Density-Fitted J/K Matrices <==

    J tasked:                   Yes
    K tasked:                   Yes
    wK tasked:                   No
    OpenMP threads:               8
    Memory [MiB]:              1430
    Algorithm:                 Core
    Schwarz Cutoff:           0E+00
    Mask sparsity (%):       0.0000
    Fitting Condition:        1E-10

   => Auxiliary Basis Set <=

  Basis Set: CC-PVDZ-JKFIT
    Blend: CC-PVDZ-JKFIT
    Number of shells: 282
    Number of basis function: 790
    Number of Cartesian functions: 898
    Spherical Harmonics?: true
    Max angular momentum: 3

  Minimum eigenvalue in the overlap matrix is 1.8898432078E-01.
  Reciprocal condition number of the overlap matrix is 7.8991957051E-02.
    Using symmetric orthogonalization.

  ==> Pre-Iterations <==

  SCF Guess: Superposition of Atomic Densities via on-the-fly atomic UHF (no occupation information).

   -------------------------
    Irrep   Nso     Nmo    
   -------------------------
     A         50      50 
   -------------------------
    Total      50      50
   -------------------------

  ==> Iterations <==

                           Total Energy        Delta E     RMS |[F,P]|

   @DF-RHF iter SAD:  -298.84537634274886   -2.98845e+02   0.00000e+00 
   @DF-RHF iter   1:  -304.88498515496792   -6.03961e+00   2.57412e-03 DIIS
   @DF-RHF iter   2:  -304.90316313953355   -1.81780e-02   7.56006e-04 DIIS
   @DF-RHF iter   3:  -304.90539663846613   -2.23350e-03   3.32911e-04 DIIS
   @DF-RHF iter   4:  -304.90573394101335   -3.37303e-04   8.71046e-05 DIIS
   @DF-RHF iter   5:  -304.90577838977958   -4.44488e-05   1.42895e-05 DIIS
   @DF-RHF iter   6:  -304.90577953948770   -1.14971e-06   1.89821e-06 DIIS
   @DF-RHF iter   7:  -304.90577954968654   -1.01988e-08   4.96180e-07 DIIS
   @DF-RHF iter   8:  -304.90577955024395   -5.57407e-10   1.92489e-07 DIIS
   @DF-RHF iter   9:  -304.90577955032148   -7.75344e-11   6.81505e-08 DIIS
   @DF-RHF iter  10:  -304.90577955033581   -1.43245e-11   1.25982e-08 DIIS
   @DF-RHF iter  11:  -304.90577955033586   -5.68434e-14   1.52489e-09 DIIS
   @DF-RHF iter  12:  -304.90577955033581    5.68434e-14   2.06578e-10 DIIS
   @DF-RHF iter  13:  -304.90577955033575    5.68434e-14   2.74669e-11 DIIS
  Energy and wave function converged.


  ==> Post-Iterations <==

    Orbital Energies [Eh]
    ---------------------

    Doubly Occupied:                                                      

       1A    -11.031463     2A    -11.031463     3A    -11.030022  
       4A    -11.029944     5A    -11.029029     6A    -11.029029  
       7A    -11.017273     8A    -11.017272     9A     -1.054452  
      10A     -1.022461    11A     -0.972841    12A     -0.910398  
      13A     -0.799624    14A     -0.726577    15A     -0.712392  
      16A     -0.696778    17A     -0.608018    18A     -0.592151  
      19A     -0.566877    20A     -0.529785    21A     -0.507590  
      22A     -0.482012    23A     -0.466177    24A     -0.448857  
      25A     -0.431943    26A     -0.427940    27A     -0.379530  
      28A     -0.302489    29A     -0.205538  

    Virtual:                                                              

      30A      0.178749    31A      0.294211    32A      0.396674  
      33A      0.465433    34A      0.552373    35A      0.608844  
      36A      0.656945    37A      0.676380    38A      0.678211  
      39A      0.689426    40A      0.689961    41A      0.695974  
      42A      0.697874    43A      0.824020    44A      0.831403  
      45A      0.912966    46A      0.929715    47A      1.002591  
      48A      1.014854    49A      1.076008    50A      1.109031  

    Final Occupation by Irrep:
              A 
    DOCC [    29 ]

  @DF-RHF Final Energy:  -304.90577955033575

   => Energetics <=

    Nuclear Repulsion Energy =            296.6387135985845589
    One-Electron Energy =               -1000.9691385410869771
    Two-Electron Energy =                 399.4246453921666671
    Total Energy =                       -304.9057795503357511

Computation Completed


Properties will be evaluated at   0.000000,   0.000000,   0.000000 [a0]

Properties computed using the SCF density matrix

  Nuclear Dipole Moment: [e a0]
     X:     0.0000      Y:    -0.0000      Z:    -0.0000

  Electronic Dipole Moment: [e a0]
     X:    -0.0000      Y:     0.0000      Z:     0.0000

  Dipole Moment: [e a0]
     X:     0.0000      Y:     0.0000      Z:     0.0000     Total:     0.0000

  Dipole Moment: [D]
     X:     0.0000      Y:     0.0000      Z:     0.0000     Total:     0.0000


*** tstop() called on Yorks-Mac.local at Thu Dec 10 09:52:41 2020
Module time:
	user time   =       3.00 seconds =       0.05 minutes
	system time =       0.10 seconds =       0.00 minutes
	total time  =          1 seconds =       0.02 minutes
Total time:
	user time   =       3.00 seconds =       0.05 minutes
	system time =       0.10 seconds =       0.00 minutes
	total time  =          1 seconds =       0.02 minutes
    SCF energy............................................................................PASSED

Scratch directory: /Users/york/scratch/psi4/

  Forte
  ----------------------------------------------------------------------------
  A suite of quantum chemistry methods for strongly correlated electrons

    git branch: mcscf_rotation_printing - git commit: 87e7ba05

  Developed by:
    Francesco A. Evangelista, Chenyang Li, Kevin P. Hannon,
    Jeffrey B. Schriber, Tianyuan Zhang, Chenxi Cai,
    Nan He, Nicholas Stair, Shuhe Wang, Renke Huang
  ----------------------------------------------------------------------------

  Size of Determinant class: 256 bits
  Preparing forte objects from a psi4 Wavefunction object
  Read options for space FROZEN_DOCC
  Read options for space RESTRICTED_DOCC
  Read options for space ACTIVE
  Read options for space FROZEN_DOCC
  Read options for space RESTRICTED_DOCC

  ==> MO Space Information <==

  -------------------------------
                        A   Sum
  -------------------------------
    FROZEN_DOCC         8     8
    RESTRICTED_DOCC    17    17
    GAS1                8     8
    GAS2                0     0
    GAS3                0     0
    GAS4                0     0
    GAS5                0     0
    GAS6                0     0
    RESTRICTED_UOCC    17    17
    FROZEN_UOCC         0     0
    Total              50    50
  -------------------------------

  Forte Testing Orbital Orthonormality ...   => Loading Basis Set <=

    Name: STO-3G
    Role: ORBITAL
    Keyword: BASIS
    atoms 1, 3, 5, 7, 10, 12, 14, 16      entry C          line    61 file /Users/york/src/psi4new/psi4/share/psi4/basis/sto-3g.gbs 
    atoms 2, 4, 6, 8-9, 11, 13, 15, 17-18 entry H          line    19 file /Users/york/src/psi4new/psi4/share/psi4/basis/sto-3g.gbs 


  Done checking orbital orthonormality (OK).   => Loading Basis Set <=

    Name: CC-PVDZ-RI
    Role: RIFIT
    Keyword: DF_BASIS_MP2
    atoms 1, 3, 5, 7, 10, 12, 14, 16      entry C          line   159 file /Users/york/src/psi4new/psi4/share/psi4/basis/cc-pvdz-ri.gbs 
    atoms 2, 4, 6, 8-9, 11, 13, 15, 17-18 entry H          line    19 file /Users/york/src/psi4new/psi4/share/psi4/basis/cc-pvdz-ri.gbs 

   => Loading Basis Set <=

    Name: STO-3G
    Role: ORBITAL
    Keyword: MINAO_BASIS
    atoms 1, 3, 5, 7, 10, 12, 14, 16      entry C          line    61 file /Users/york/src/psi4new/psi4/share/psi4/basis/sto-3g.gbs 
    atoms 2, 4, 6, 8-9, 11, 13, 15, 17-18 entry H          line    19 file /Users/york/src/psi4new/psi4/share/psi4/basis/sto-3g.gbs 


  Forte will use psi4 integrals

  ==> Primary Basis Set Summary <==

  Basis Set: STO-3G
    Blend: STO-3G
    Number of shells: 34
    Number of basis function: 50
    Number of Cartesian functions: 50
    Spherical Harmonics?: true
    Max angular momentum: 1


  JK created using MemDF integrals
  DFHelper Memory: AOs need 0.013 GiB; user supplied 1.490 GiB. Using in-core AOs.

  ==> MemDFJK: Density-Fitted J/K Matrices <==

    J tasked:                   Yes
    K tasked:                   Yes
    wK tasked:                   No
    OpenMP threads:               8
    Memory [MiB]:              1525
    Algorithm:                 Core
    Schwarz Cutoff:           1E-12
    Mask sparsity (%):       9.0400
    Fitting Condition:        1E-10

   => Auxiliary Basis Set <=

  Basis Set: CC-PVDZ-RI
    Blend: CC-PVDZ-RI
    Number of shells: 204
    Number of basis function: 588
    Number of Cartesian functions: 678
    Spherical Harmonics?: true
    Max angular momentum: 3



  ==> Integral Transformation <==

  Number of molecular orbitals:                         50
  Number of correlated molecular orbitals:              42
  Number of frozen occupied orbitals:                    8
  Number of frozen unoccupied orbitals:                  0
  Two-electron integral type:              Density fitting


  Computing density fitted integrals 

  Number of auxiliary basis functions:  588
  Need 11.76 MB to store DF integrals
  DFHelper Memory: AOs need 0.013 GiB; user supplied 1.663 GiB. Using in-core AOs.

  ==> DFHelper <==
    NBF:                              50
    NAux:                            588
    Schwarz Cutoff:                1E-12
    Mask sparsity (%):                 9
    DFH Avail. Memory [GiB]:       1.663
    OpenMP threads:                    8
    Algorithm:                     STORE
    AO Core:                        True
    MO Core:                       False
    Hold Metric:                   False
    Metric Power:                 -0.500
    Fitting Condition:             1E-12
    Q Shell Max:                       7



  Transforming DF Integrals
  Timing for density-fitting transformation:                  0.050 s.

  Frozen-core energy        -397.044912338560778 a.u.
  Timing for frozen one-body operator:                        0.002 s.
  Resorting integrals after freezing core.
  Timing for resorting DF integrals:                          0.017 s.
  Timing for freezing core and virtual orbitals:              0.019 s.
  Timing for computing density-fitted integrals:              0.182 s.

  ==> Summary of Active Space Solver Input <==

    Irrep.  Multi.(2ms)      N
    --------------------------
        A      1  (  0)      1
    --------------------------
    N: number of roots
    ms: spin z component
    Total number of roots:   1
    --------------------------


-------------------------------------------------------------------------------
               Selected Configuration Interaction Excited States
  written by Jeffrey B. Schriber, Tianyuan Zhang and Francesco A. Evangelista
-------------------------------------------------------------------------------

  ==> Reference Information <==

  ==> Calculation Information <==

  -----------------------------------------------------------------
    Multiplicity                             1    
    Symmetry                                 0    
    Number of roots                          1    
    Ms                                       0
    Excited Algorithm                        NONE
  -----------------------------------------------------------------
  Using 8 threads
  Computing wavefunction for root 0

        ---------------------------------------------------------------
                      Adaptive Configuration Interaction
          written by Jeffrey B. Schriber and Francesco A. Evangelista
        ---------------------------------------------------------------

  ==> Reference Information <==

  There are 25 frozen orbitals.
  There are 8 active orbitals.

  ==> Calculation Information <==

  -----------------------------------------------------------------
    Multiplicity                             1    
    Symmetry                                 0    
    Number of roots                          1    
    Root used for properties                 0    
    Sigma (Eh)                               1.00e-03
    Gamma (Eh^(-1))                          1.00e+00
    Convergence threshold                    1.00e-09
    Ms                                       0
    Diagonalization algorithm                DYNAMIC
    Excited Algorithm                        NONE
    Project out spin contaminants            True
    Enforce spin completeness of basis       True
    Enforce complete aimed selection         True
  -----------------------------------------------------------------
  Number of active alpha electrons: 4
  Number of active beta electrons: 4
  Maximum reference space size: 1000
  Number of reference determinants: 225
  Reference generated from 7 MOs

  ---------------------------------- Cycle 0 -----------------------------------


  ==> Diagonalizing the Hamiltonian in the P space <==

  Initial P space dimension: 225
  Spin-complete dimension of the P space: 225 determinants

 SigmaVectorDynamic:
 Maximum memory   : 67108864 double
 Number of threads: 8


  Davidson-Liu solver algorithm using SigmaVectorDynamic sigma algorithm
  Initial guess determinants:         50

  Spin-adaptation of the initial guess based on minimum spin-complete subset
  Initial guess determinants do not form a spin-complete set. 8 determinants are missing

  Guess determinants after screening: 46

  Initial guess solutions
  ========================
  Number   2S+1   Selected
  ------------------------
    23       1       *
    21       3        
     2       5        
  ========================

  Setting initial guess and roots to project
  Adding guess 0        2S+1 = 1    E = -405.486296
  Adding guess 1        2S+1 = 1    E = -405.222499
  Projecting out guess  2S+1 = 3    E = -405.373273
  Projecting out guess  2S+1 = 3    E = -405.294236

  Projecting out 2 solutions

  ==> Diagonalizing Hamiltonian <==

  Energy   convergence: 1.00e-10
  Residual convergence: 1.00e-10
  -----------------------------------------------------
    Iter.      Avg. Energy       Delta_E     Res. Norm
  -----------------------------------------------------
      1     -405.486296194490  -4.055e+02  +1.302e-01
      2     -405.503714274497  -1.742e-02  +3.083e-02
      3     -405.504423818899  -7.095e-04  +1.104e-02
      4     -405.504527631774  -1.038e-04  +3.057e-03
      5     -405.504536783701  -9.152e-06  +1.381e-03
      6     -405.504538614842  -1.831e-06  +6.111e-04
      7     -405.504538939783  -3.249e-07  +1.619e-04
      8     -405.504538960269  -2.049e-08  +4.783e-05
      9     -405.504538962267  -1.998e-09  +1.757e-05
     10     -405.504538962548  -2.806e-10  +6.929e-06
     11     -405.504538962592  -4.468e-11  +3.273e-06
     12     -405.504538962602  -1.017e-11  +1.226e-06
     13     -405.504538962604  -1.535e-12  +4.279e-07
     14     -405.504538962604  -1.137e-13  +1.493e-07
     15     -405.504538962604  -5.684e-14  +5.799e-08
     16     -405.504538962604  -5.684e-14  +2.745e-08
     17     -405.504538962604  +0.000e+00  +1.208e-08
     18     -405.504538962604  +0.000e+00  +4.963e-09
     19     -405.504538962604  +5.684e-14  +2.267e-09
     20     -405.504538962604  +0.000e+00  +8.106e-10
     21     -405.504538962604  +0.000e+00  +3.180e-10
     22     -405.504538962604  +5.684e-14  +1.703e-10
     23     -405.504538962604  +0.000e+00  +7.242e-11
  -----------------------------------------------------
  The Davidson-Liu algorithm converged in 24 iterations.
  Davidson-Liu procedure took  0.019655 s
  Time spent diagonalizing H:   0.461295 s

    P-space  CI Energy Root   0        = -304.961117486830 Eh =   0.0000 eV, S^2 = 0.000000


  ==> Finding the Q space <==

  Using BATCH_HASH screening algorithm
  Setting nbin to 1 based on estimated memory ( 2.621 MB)
  Overwriting nbin to 4 based on user input
 -----------------------------------------
                Bin 0
  Build: 0.000339
  Merge: 0.000220
    Build F                  0.000766 
    Build criteria vector    0.000080
    Sort vector              0.000046
    Screening                0.000003
    Added 75 dets of 700 from bin 0
                Bin 1
  Build: 0.000309
  Merge: 0.000204
    Build F                  0.000719 
    Build criteria vector    0.000085
    Sort vector              0.000044
    Screening                0.000002
    Added 178 dets of 704 from bin 1
                Bin 2
  Build: 0.000319
  Merge: 0.000176
    Build F                  0.000685 
    Build criteria vector    0.000072
    Sort vector              0.000045
    Screening                0.000002
    Added 260 dets of 678 from bin 2
                Bin 3
  Build: 0.000273
  Merge: 0.000198
    Build F                  0.000658 
    Build criteria vector    0.000072
    Sort vector              0.000041
    Screening                0.000001
    Added 344 dets of 672 from bin 3
 ------------------------------------
  Screened out 0.0004927680 Eh of correlation
  Added 1 missing determinants in aimed selection.
  Time spent building the model space: 0.003524
  Spin-complete dimension of the PQ space: 620

  ==> Diagonalizing the Hamiltonian in the P + Q space <==

  Number of reference roots: 1

 SigmaVectorDynamic:
 Maximum memory   : 67108864 double
 Number of threads: 8


  Davidson-Liu solver algorithm using SigmaVectorDynamic sigma algorithm
  Initial guess determinants:         50

  Spin-adaptation of the initial guess based on minimum spin-complete subset
  Initial guess determinants do not form a spin-complete set. 6 determinants are missing

  Guess determinants after screening: 44

  Initial guess solutions
  ========================
  Number   2S+1   Selected
  ------------------------
    23       1       *
    20       3        
     1       5        
  ========================

  Setting initial guess and roots to project
  Adding guess 0        2S+1 = 1    E = -405.487550
  Adding guess 1        2S+1 = 1    E = -405.234096
  Projecting out guess  2S+1 = 3    E = -405.359247
  Projecting out guess  2S+1 = 3    E = -405.329245
  Projecting out guess  2S+1 = 3    E = -405.263369

  Projecting out 3 solutions

  ==> Diagonalizing Hamiltonian <==

  Energy   convergence: 1.00e-10
  Residual convergence: 1.00e-10
  -----------------------------------------------------
    Iter.      Avg. Energy       Delta_E     Res. Norm
  -----------------------------------------------------
      1     -405.487550295352  -4.055e+02  +3.153e-01
      2     -405.597755035087  -1.102e-01  +1.246e-01
      3     -405.609819530757  -1.206e-02  +5.197e-02
      4     -405.611583462825  -1.764e-03  +1.786e-02
      5     -405.611785201049  -2.017e-04  +9.370e-03
      6     -405.611867594777  -8.239e-05  +4.622e-03
      7     -405.611885867799  -1.827e-05  +1.658e-03
      8     -405.611888153556  -2.286e-06  +7.971e-04
      9     -405.611888682997  -5.294e-07  +2.632e-04
     10     -405.611888728345  -4.535e-08  +9.999e-05
     11     -405.611888736001  -7.656e-09  +5.730e-05
     12     -405.611888739032  -3.032e-09  +2.586e-05
     13     -405.611888739600  -5.679e-10  +1.078e-05
     14     -405.611888739687  -8.652e-11  +4.614e-06
     15     -405.611888739709  -2.206e-11  +2.273e-06
     16     -405.611888739713  -4.377e-12  +1.271e-06
     17     -405.611888739714  -1.137e-12  +6.512e-07
     18     -405.611888739715  -3.411e-13  +3.300e-07
     19     -405.611888739714  +1.705e-13  +1.794e-07
     20     -405.611888739715  -5.684e-14  +7.694e-08
     21     -405.611888739715  +0.000e+00  +4.150e-08
     22     -405.611888739715  +0.000e+00  +2.709e-08
     23     -405.611888739715  +0.000e+00  +1.407e-08
     24     -405.611888739715  +0.000e+00  +7.240e-09
     25     -405.611888739715  -1.705e-13  +4.441e-09
     26     -405.611888739715  +0.000e+00  +1.960e-09
     27     -405.611888739715  -5.684e-14  +1.061e-09
     28     -405.611888739715  +2.274e-13  +7.111e-10
     29     -405.611888739715  +0.000e+00  +3.777e-10
     30     -405.611888739715  +0.000e+00  +1.888e-10
     31     -405.611888739714  +2.842e-13  +1.201e-10
     32     -405.611888739714  +0.000e+00  +5.364e-11
  -----------------------------------------------------
  The Davidson-Liu algorithm converged in 33 iterations.
  Davidson-Liu procedure took  0.030609 s
  Total time spent diagonalizing H:   0.473404 s

    PQ-space CI Energy Root   0        = -305.068467263940 Eh =   0.0000 eV, S^2 = 0.000000
    PQ-space CI Energy + EPT2 Root   0 = -305.069462402993 Eh =   0.0000 eV


  ==> Pruning the Q space <==

  Cycle 0 took: 1.044402 s

  ---------------------------------- Cycle 1 -----------------------------------


  ==> Diagonalizing the Hamiltonian in the P space <==

  Initial P space dimension: 282
  Spin-complete dimension of the P space: 384 determinants

 SigmaVectorDynamic:
 Maximum memory   : 67108864 double
 Number of threads: 8


  Davidson-Liu solver algorithm using SigmaVectorDynamic sigma algorithm
  Initial guess determinants:         50

  Spin-adaptation of the initial guess based on minimum spin-complete subset
  Initial guess determinants do not form a spin-complete set. 8 determinants are missing

  Guess determinants after screening: 46

  Initial guess solutions
  ========================
  Number   2S+1   Selected
  ------------------------
    20       1       *
    21       3        
     5       5        
  ========================

  Setting initial guess and roots to project
  Adding guess 0        2S+1 = 1    E = -405.504195
  Adding guess 1        2S+1 = 1    E = -405.259524
  Projecting out guess  2S+1 = 3    E = -405.306320

  Projecting out 1 solutions

  ==> Diagonalizing Hamiltonian <==

  Energy   convergence: 1.00e-10
  Residual convergence: 1.00e-10
  -----------------------------------------------------
    Iter.      Avg. Energy       Delta_E     Res. Norm
  -----------------------------------------------------
      1     -405.504195014913  -4.055e+02  +3.029e-01
      2     -405.600932736817  -9.674e-02  +1.138e-01
      3     -405.609952382838  -9.020e-03  +4.247e-02
      4     -405.611124466196  -1.172e-03  +1.375e-02
      5     -405.611260681318  -1.362e-04  +7.101e-03
      6     -405.611309943372  -4.926e-05  +3.418e-03
      7     -405.611319012232  -9.069e-06  +1.109e-03
      8     -405.611319963748  -9.515e-07  +5.177e-04
      9     -405.611320183629  -2.199e-07  +1.829e-04
     10     -405.611320208641  -2.501e-08  +7.151e-05
     11     -405.611320212961  -4.320e-09  +3.922e-05
     12     -405.611320214521  -1.560e-09  +1.788e-05
     13     -405.611320214777  -2.561e-10  +6.976e-06
     14     -405.611320214814  -3.661e-11  +2.945e-06
     15     -405.611320214821  -7.333e-12  +1.202e-06
     16     -405.611320214823  -1.592e-12  +6.238e-07
     17     -405.611320214823  -3.411e-13  +3.305e-07
     18     -405.611320214823  -1.705e-13  +1.630e-07
     19     -405.611320214823  +7.390e-13  +7.636e-08
     20     -405.611320214823  +0.000e+00  +3.495e-08
     21     -405.611320214823  -5.684e-14  +1.837e-08
     22     -405.611320214823  -3.411e-13  +1.161e-08
     23     -405.611320214823  -5.684e-14  +5.785e-09
     24     -405.611320214823  +5.684e-14  +3.181e-09
     25     -405.611320214823  +0.000e+00  +1.890e-09
     26     -405.611320214823  +0.000e+00  +8.792e-10
     27     -405.611320214823  +0.000e+00  +4.563e-10
     28     -405.611320214823  -2.842e-13  +2.940e-10
     29     -405.611320214823  +0.000e+00  +1.511e-10
     30     -405.611320214823  +0.000e+00  +8.131e-11
  -----------------------------------------------------
  The Davidson-Liu algorithm converged in 31 iterations.
  Davidson-Liu procedure took  0.026169 s
  Time spent diagonalizing H:   0.476926 s

    P-space  CI Energy Root   0        = -305.067898739049 Eh =   0.0000 eV, S^2 = 0.000000


  ==> Finding the Q space <==

  Using BATCH_HASH screening algorithm
  Setting nbin to 1 based on estimated memory ( 4.473 MB)
  Overwriting nbin to 4 based on user input
 -----------------------------------------
                Bin 0
  Build: 0.000828
  Merge: 0.000109
    Build F                  0.001525 
    Build criteria vector    0.000136
    Sort vector              0.000086
    Screening                0.000005
    Added 156 dets of 1011 from bin 0
                Bin 1
  Build: 0.000741
  Merge: 0.000192
    Build F                  0.001322 
    Build criteria vector    0.000096
    Sort vector              0.000078
    Screening                0.000003
    Added 324 dets of 967 from bin 1
                Bin 2
  Build: 0.000580
  Merge: 0.000385
    Build F                  0.001371 
    Build criteria vector    0.000102
    Sort vector              0.000075
    Screening                0.000002
    Added 471 dets of 974 from bin 2
                Bin 3
  Build: 0.000566
  Merge: 0.000399
    Build F                  0.001348 
    Build criteria vector    0.000102
    Sort vector              0.000077
    Screening                0.000003
    Added 624 dets of 980 from bin 3
 ------------------------------------
  Screened out 0.0004949257 Eh of correlation
  Time spent building the model space: 0.006578
  Spin-complete dimension of the PQ space: 1207

  ==> Diagonalizing the Hamiltonian in the P + Q space <==

  Number of reference roots: 1

 SigmaVectorDynamic:
 Maximum memory   : 67108864 double
 Number of threads: 8


  Davidson-Liu solver algorithm using SigmaVectorDynamic sigma algorithm
  Initial guess determinants:         50

  Spin-adaptation of the initial guess based on minimum spin-complete subset
  Initial guess determinants do not form a spin-complete set. 10 determinants are missing

  Guess determinants after screening: 42

  Initial guess solutions
  ========================
  Number   2S+1   Selected
  ------------------------
    19       1       *
    19       3        
     4       5        
  ========================

  Setting initial guess and roots to project
  Adding guess 0        2S+1 = 1    E = -405.502051
  Adding guess 1        2S+1 = 1    E = -405.257803
  Projecting out guess  2S+1 = 3    E = -405.309079

  Projecting out 1 solutions

  ==> Diagonalizing Hamiltonian <==

  Energy   convergence: 1.00e-10
  Residual convergence: 1.00e-10
  -----------------------------------------------------
    Iter.      Avg. Energy       Delta_E     Res. Norm
  -----------------------------------------------------
      1     -405.502050581967  -4.055e+02  +3.064e-01
      2     -405.602415596786  -1.004e-01  +1.498e-01
      3     -405.617980698610  -1.557e-02  +6.985e-02
      4     -405.620600016935  -2.619e-03  +2.138e-02
      5     -405.620821499452  -2.215e-04  +8.362e-03
      6     -405.620861304573  -3.981e-05  +3.139e-03
      7     -405.620867937709  -6.633e-06  +1.315e-03
      8     -405.620868821608  -8.839e-07  +7.944e-04
      9     -405.620869267926  -4.463e-07  +4.139e-04
     10     -405.620869378695  -1.108e-07  +1.552e-04
     11     -405.620869391565  -1.287e-08  +6.228e-05
     12     -405.620869394102  -2.537e-09  +3.122e-05
     13     -405.620869394783  -6.809e-10  +1.949e-05
     14     -405.620869394970  -1.868e-10  +1.077e-05
     15     -405.620869395053  -8.299e-11  +6.737e-06
     16     -405.620869395087  -3.331e-11  +3.522e-06
     17     -405.620869395093  -6.821e-12  +1.532e-06
     18     -405.620869395095  -1.705e-12  +9.022e-07
     19     -405.620869395096  -7.390e-13  +6.277e-07
     20     -405.620869395096  -2.842e-13  +3.316e-07
     21     -405.620869395096  -5.684e-14  +1.998e-07
     22     -405.620869395095  +1.251e-12  +1.140e-07
     23     -405.620869395095  +0.000e+00  +5.084e-08
     24     -405.620869395095  +0.000e+00  +3.000e-08
     25     -405.620869395096  -9.663e-13  +2.171e-08
     26     -405.620869395096  +5.684e-14  +1.153e-08
     27     -405.620869395096  -5.684e-14  +6.856e-09
     28     -405.620869395096  -6.253e-13  +4.197e-09
     29     -405.620869395096  +0.000e+00  +1.945e-09
     30     -405.620869395097  -5.684e-14  +1.154e-09
     31     -405.620869395096  +9.095e-13  +8.483e-10
     32     -405.620869395096  +0.000e+00  +4.551e-10
     33     -405.620869395096  +0.000e+00  +2.656e-10
     34     -405.620869395096  -5.116e-13  +1.660e-10
     35     -405.620869395096  -5.684e-14  +7.982e-11
  -----------------------------------------------------
  The Davidson-Liu algorithm converged in 36 iterations.
  Davidson-Liu procedure took  0.035989 s
  Total time spent diagonalizing H:   0.473118 s

    PQ-space CI Energy Root   0        = -305.077447919322 Eh =   0.0000 eV, S^2 = 0.000000
    PQ-space CI Energy + EPT2 Root   0 = -305.078444697787 Eh =   0.0000 eV


  ==> Pruning the Q space <==

  Cycle 1 took: 1.063644 s

  ---------------------------------- Cycle 2 -----------------------------------


  ==> Diagonalizing the Hamiltonian in the P space <==

  Initial P space dimension: 686
  Spin-complete dimension of the P space: 1038 determinants

 SigmaVectorDynamic:
 Maximum memory   : 67108864 double
 Number of threads: 8


  Davidson-Liu solver algorithm using SigmaVectorDynamic sigma algorithm
  Initial guess determinants:         50

  Spin-adaptation of the initial guess based on minimum spin-complete subset
  Initial guess determinants do not form a spin-complete set. 10 determinants are missing

  Guess determinants after screening: 42

  Initial guess solutions
  ========================
  Number   2S+1   Selected
  ------------------------
    19       1       *
    19       3        
     4       5        
  ========================

  Setting initial guess and roots to project
  Adding guess 0        2S+1 = 1    E = -405.502051
  Adding guess 1        2S+1 = 1    E = -405.257803
  Projecting out guess  2S+1 = 3    E = -405.309079

  Projecting out 1 solutions

  ==> Diagonalizing Hamiltonian <==

  Energy   convergence: 1.00e-10
  Residual convergence: 1.00e-10
  -----------------------------------------------------
    Iter.      Avg. Energy       Delta_E     Res. Norm
  -----------------------------------------------------
      1     -405.502050581967  -4.055e+02  +3.060e-01
      2     -405.602433909085  -1.004e-01  +1.463e-01
      3     -405.617470633036  -1.504e-02  +6.512e-02
      4     -405.619795967892  -2.325e-03  +1.982e-02
      5     -405.619997352474  -2.014e-04  +7.672e-03
      6     -405.620034554098  -3.720e-05  +3.017e-03
      7     -405.620041355633  -6.802e-06  +1.236e-03
      8     -405.620042415982  -1.060e-06  +7.995e-04
      9     -405.620042850596  -4.346e-07  +3.986e-04
     10     -405.620042939491  -8.890e-08  +1.315e-04
     11     -405.620042949479  -9.987e-09  +6.001e-05
     12     -405.620042951508  -2.029e-09  +2.767e-05
     13     -405.620042951939  -4.313e-10  +1.239e-05
     14     -405.620042952030  -9.089e-11  +6.803e-06
     15     -405.620042952062  -3.217e-11  +3.982e-06
     16     -405.620042952073  -1.091e-11  +1.955e-06
     17     -405.620042952075  -2.217e-12  +9.713e-07
     18     -405.620042952076  -8.527e-13  +6.321e-07
     19     -405.620042952076  -4.547e-13  +3.881e-07
     20     -405.620042952076  -1.137e-13  +1.902e-07
     21     -405.620042952076  +5.684e-14  +1.083e-07
     22     -405.620042952076  +4.547e-13  +6.769e-08
     23     -405.620042952076  +0.000e+00  +3.545e-08
     24     -405.620042952076  -5.684e-14  +2.234e-08
     25     -405.620042952076  +2.842e-13  +1.408e-08
     26     -405.620042952076  -5.684e-14  +7.126e-09
     27     -405.620042952076  +5.684e-14  +4.015e-09
     28     -405.620042952076  -5.684e-14  +2.498e-09
     29     -405.620042952076  +0.000e+00  +1.347e-09
     30     -405.620042952076  +5.684e-14  +8.256e-10
     31     -405.620042952076  -5.684e-14  +5.282e-10
     32     -405.620042952076  -5.684e-14  +2.737e-10
     33     -405.620042952076  +5.684e-14  +1.526e-10
     34     -405.620042952076  +0.000e+00  +9.488e-11
  -----------------------------------------------------
  The Davidson-Liu algorithm converged in 35 iterations.
  Davidson-Liu procedure took  0.032200 s
  Time spent diagonalizing H:   0.473203 s

    P-space  CI Energy Root   0        = -305.076621476301 Eh =   0.0000 eV, S^2 = -0.000000


  ==> Finding the Q space <==

  Using BATCH_HASH screening algorithm
  Setting nbin to 1 based on estimated memory (12.091 MB)
  Overwriting nbin to 4 based on user input
 -----------------------------------------
                Bin 0
  Build: 0.001516
  Merge: 0.000615
    Build F                  0.002495 
    Build criteria vector    0.000098
    Sort vector              0.000042
    Screening                0.000003
    Added 82 dets of 913 from bin 0
                Bin 1
  Build: 0.001508
  Merge: 0.000773
    Build F                  0.002604 
    Build criteria vector    0.000095
    Sort vector              0.000037
    Screening                0.000002
    Added 151 dets of 835 from bin 1
                Bin 2
  Build: 0.001503
  Merge: 0.000712
    Build F                  0.002559 
    Build criteria vector    0.000095
    Sort vector              0.000038
    Screening                0.000001
    Added 214 dets of 854 from bin 2
                Bin 3
  Build: 0.001463
  Merge: 0.000732
    Build F                  0.002542 
    Build criteria vector    0.000099
    Sort vector              0.000037
    Screening                0.000002
    Added 282 dets of 874 from bin 3
 ------------------------------------
  Screened out 0.0004942354 Eh of correlation
  Added 1 missing determinants in aimed selection.
  Time spent building the model space: 0.010929
  Spin-complete dimension of the PQ space: 1286

  ==> Diagonalizing the Hamiltonian in the P + Q space <==

  Number of reference roots: 1

 SigmaVectorDynamic:
 Maximum memory   : 67108864 double
 Number of threads: 8


  Davidson-Liu solver algorithm using SigmaVectorDynamic sigma algorithm
  Initial guess determinants:         50

  Spin-adaptation of the initial guess based on minimum spin-complete subset
  Initial guess determinants do not form a spin-complete set. 10 determinants are missing

  Guess determinants after screening: 42

  Initial guess solutions
  ========================
  Number   2S+1   Selected
  ------------------------
    19       1       *
    19       3        
     4       5        
  ========================

  Setting initial guess and roots to project
  Adding guess 0        2S+1 = 1    E = -405.502051
  Adding guess 1        2S+1 = 1    E = -405.257803
  Projecting out guess  2S+1 = 3    E = -405.309079

  Projecting out 1 solutions

  ==> Diagonalizing Hamiltonian <==

  Energy   convergence: 1.00e-10
  Residual convergence: 1.00e-10
  -----------------------------------------------------
    Iter.      Avg. Energy       Delta_E     Res. Norm
  -----------------------------------------------------
      1     -405.502050581967  -4.055e+02  +3.066e-01
      2     -405.602370888340  -1.003e-01  +1.504e-01
      3     -405.618170737812  -1.580e-02  +7.212e-02
      4     -405.620995395725  -2.825e-03  +2.444e-02
      5     -405.621273108684  -2.777e-04  +9.693e-03
      6     -405.621324259249  -5.115e-05  +3.464e-03
      7     -405.621332061177  -7.802e-06  +1.336e-03
      8     -405.621332954558  -8.934e-07  +7.848e-04
      9     -405.621333379795  -4.252e-07  +4.218e-04
     10     -405.621333503487  -1.237e-07  +1.720e-04
     11     -405.621333519290  -1.580e-08  +6.831e-05
     12     -405.621333522325  -3.035e-09  +3.580e-05
     13     -405.621333523183  -8.573e-10  +2.184e-05
     14     -405.621333523429  -2.460e-10  +1.254e-05
     15     -405.621333523537  -1.085e-10  +7.906e-06
     16     -405.621333523585  -4.758e-11  +4.286e-06
     17     -405.621333523594  -9.720e-12  +1.835e-06
     18     -405.621333523596  -2.160e-12  +1.050e-06
     19     -405.621333523597  -3.979e-13  +6.775e-07
     20     -405.621333523597  -1.705e-13  +3.822e-07
     21     -405.621333523597  -1.137e-13  +2.288e-07
     22     -405.621333523598  -4.547e-13  +1.256e-07
     23     -405.621333523598  -5.684e-14  +5.397e-08
     24     -405.621333523598  +0.000e+00  +3.227e-08
     25     -405.621333523598  +1.137e-13  +2.308e-08
     26     -405.621333523597  +1.137e-13  +1.239e-08
     27     -405.621333523598  -1.137e-13  +7.456e-09
     28     -405.621333523597  +1.705e-13  +4.696e-09
     29     -405.621333523597  +0.000e+00  +2.099e-09
     30     -405.621333523597  +0.000e+00  +1.269e-09
     31     -405.621333523597  -5.684e-14  +9.338e-10
     32     -405.621333523597  +0.000e+00  +4.999e-10
     33     -405.621333523597  +0.000e+00  +2.985e-10
     34     -405.621333523598  -1.705e-13  +1.929e-10
     35     -405.621333523598  +0.000e+00  +8.847e-11
  -----------------------------------------------------
  The Davidson-Liu algorithm converged in 36 iterations.
  Davidson-Liu procedure took  0.035681 s
  Total time spent diagonalizing H:   0.470498 s

    PQ-space CI Energy Root   0        = -305.077912047823 Eh =   0.0000 eV, S^2 = -0.000000
    PQ-space CI Energy + EPT2 Root   0 = -305.078907543216 Eh =   0.0000 eV


  ==> Pruning the Q space <==

  Cycle 2 took: 1.057589 s

  ---------------------------------- Cycle 3 -----------------------------------


  ==> Diagonalizing the Hamiltonian in the P space <==

  Initial P space dimension: 733
  Spin-complete dimension of the P space: 1125 determinants

 SigmaVectorDynamic:
 Maximum memory   : 67108864 double
 Number of threads: 8


  Davidson-Liu solver algorithm using SigmaVectorDynamic sigma algorithm
  Initial guess determinants:         50

  Spin-adaptation of the initial guess based on minimum spin-complete subset
  Initial guess determinants do not form a spin-complete set. 10 determinants are missing

  Guess determinants after screening: 42

  Initial guess solutions
  ========================
  Number   2S+1   Selected
  ------------------------
    19       1       *
    19       3        
     4       5        
  ========================

  Setting initial guess and roots to project
  Adding guess 0        2S+1 = 1    E = -405.502051
  Adding guess 1        2S+1 = 1    E = -405.257803
  Projecting out guess  2S+1 = 3    E = -405.309079

  Projecting out 1 solutions

  ==> Diagonalizing Hamiltonian <==

  Energy   convergence: 1.00e-10
  Residual convergence: 1.00e-10
  -----------------------------------------------------
    Iter.      Avg. Energy       Delta_E     Res. Norm
  -----------------------------------------------------
      1     -405.502050581967  -4.055e+02  +3.063e-01
      2     -405.602373717756  -1.003e-01  +1.482e-01
      3     -405.617615107070  -1.524e-02  +6.942e-02
      4     -405.620224675501  -2.610e-03  +2.239e-02
      5     -405.620467091746  -2.424e-04  +9.044e-03
      6     -405.620514358054  -4.727e-05  +3.512e-03
      7     -405.620522903489  -8.545e-06  +1.490e-03
      8     -405.620524164670  -1.261e-06  +9.340e-04
      9     -405.620524765511  -6.008e-07  +4.589e-04
     10     -405.620524895463  -1.300e-07  +1.659e-04
     11     -405.620524910119  -1.466e-08  +6.697e-05
     12     -405.620524912888  -2.769e-09  +3.144e-05
     13     -405.620524913501  -6.138e-10  +1.697e-05
     14     -405.620524913652  -1.510e-10  +9.356e-06
     15     -405.620524913713  -6.077e-11  +5.506e-06
     16     -405.620524913734  -2.132e-11  +2.795e-06
     17     -405.620524913739  -4.320e-12  +1.265e-06
     18     -405.620524913740  -1.251e-12  +8.238e-07
     19     -405.620524913741  -5.684e-13  +5.480e-07
     20     -405.620524913741  -1.705e-13  +2.681e-07
     21     -405.620524913741  +0.000e+00  +1.531e-07
     22     -405.620524913741  -5.684e-14  +9.804e-08
     23     -405.620524913741  +5.684e-14  +4.555e-08
     24     -405.620524913741  -5.684e-14  +2.862e-08
     25     -405.620524913741  -5.684e-14  +1.981e-08
     26     -405.620524913741  +0.000e+00  +1.002e-08
     27     -405.620524913741  +0.000e+00  +5.656e-09
     28     -405.620524913741  -5.684e-14  +3.660e-09
     29     -405.620524913741  -5.684e-14  +1.758e-09
     30     -405.620524913741  +5.684e-14  +1.093e-09
     31     -405.620524913741  +2.274e-13  +7.677e-10
     32     -405.620524913741  +0.000e+00  +3.939e-10
     33     -405.620524913741  +0.000e+00  +2.176e-10
     34     -405.620524913741  -1.137e-13  +1.420e-10
     35     -405.620524913741  +0.000e+00  +7.099e-11
  -----------------------------------------------------
  The Davidson-Liu algorithm converged in 36 iterations.
  Davidson-Liu procedure took  0.036014 s
  Time spent diagonalizing H:   0.474619 s

    P-space  CI Energy Root   0        = -305.077103437966 Eh =   0.0000 eV, S^2 = -0.000000


  ==> Finding the Q space <==

  Using BATCH_HASH screening algorithm
  Setting nbin to 1 based on estimated memory (13.104 MB)
  Overwriting nbin to 4 based on user input
 -----------------------------------------
                Bin 0
  Build: 0.002218
  Merge: 0.000070
    Build F                  0.002818 
    Build criteria vector    0.000131
    Sort vector              0.000062
    Screening                0.000004
    Added 70 dets of 900 from bin 0
                Bin 1
  Build: 0.002208
  Merge: 0.000119
    Build F                  0.002638 
    Build criteria vector    0.000093
    Sort vector              0.000049
    Screening                0.000001
    Added 124 dets of 816 from bin 1
                Bin 2
  Build: 0.001828
  Merge: 0.000570
    Build F                  0.002886 
    Build criteria vector    0.000125
    Sort vector              0.000041
    Screening                0.000002
    Added 173 dets of 836 from bin 2
                Bin 3
  Build: 0.002170
  Merge: 0.000209
    Build F                  0.002847 
    Build criteria vector    0.000126
    Sort vector              0.000040
    Screening                0.000001
    Added 222 dets of 853 from bin 3
 ------------------------------------
  Screened out 0.0004947653 Eh of correlation
  Added 1 missing determinants in aimed selection.
  Time spent building the model space: 0.012052
  Spin-complete dimension of the PQ space: 1280

  ==> Diagonalizing the Hamiltonian in the P + Q space <==

  Number of reference roots: 1

 SigmaVectorDynamic:
 Maximum memory   : 67108864 double
 Number of threads: 8


  Davidson-Liu solver algorithm using SigmaVectorDynamic sigma algorithm
  Initial guess determinants:         50

  Spin-adaptation of the initial guess based on minimum spin-complete subset
  Initial guess determinants do not form a spin-complete set. 10 determinants are missing

  Guess determinants after screening: 42

  Initial guess solutions
  ========================
  Number   2S+1   Selected
  ------------------------
    19       1       *
    19       3        
     4       5        
  ========================

  Setting initial guess and roots to project
  Adding guess 0        2S+1 = 1    E = -405.502051
  Adding guess 1        2S+1 = 1    E = -405.257803
  Projecting out guess  2S+1 = 3    E = -405.309079

  Projecting out 1 solutions

  ==> Diagonalizing Hamiltonian <==

  Energy   convergence: 1.00e-10
  Residual convergence: 1.00e-10
  -----------------------------------------------------
    Iter.      Avg. Energy       Delta_E     Res. Norm
  -----------------------------------------------------
      1     -405.502050581967  -4.055e+02  +3.066e-01
      2     -405.602375990488  -1.003e-01  +1.502e-01
      3     -405.618130544104  -1.575e-02  +7.221e-02
      4     -405.620971316541  -2.841e-03  +2.478e-02
      5     -405.621257666440  -2.863e-04  +1.007e-02
      6     -405.621313034921  -5.537e-05  +3.650e-03
      7     -405.621321584997  -8.550e-06  +1.366e-03
      8     -405.621322547550  -9.626e-07  +8.152e-04
      9     -405.621323014172  -4.666e-07  +4.325e-04
     10     -405.621323144988  -1.308e-07  +1.737e-04
     11     -405.621323161397  -1.641e-08  +6.872e-05
     12     -405.621323164471  -3.075e-09  +3.536e-05
     13     -405.621323165307  -8.361e-10  +2.203e-05
     14     -405.621323165561  -2.538e-10  +1.291e-05
     15     -405.621323165678  -1.169e-10  +8.027e-06
     16     -405.621323165728  -4.951e-11  +4.379e-06
     17     -405.621323165738  -1.023e-11  +1.865e-06
     18     -405.621323165740  -2.274e-12  +1.034e-06
     19     -405.621323165741  -7.390e-13  +6.653e-07
     20     -405.621323165741  -2.274e-13  +3.775e-07
     21     -405.621323165741  +0.000e+00  +2.227e-07
     22     -405.621323165741  -1.705e-13  +1.224e-07
     23     -405.621323165741  +5.684e-14  +5.284e-08
     24     -405.621323165741  -1.705e-13  +3.141e-08
     25     -405.621323165741  +3.979e-13  +2.266e-08
     26     -405.621323165741  +5.684e-14  +1.194e-08
     27     -405.621323165741  -5.684e-14  +7.204e-09
     28     -405.621323165741  -1.705e-13  +4.598e-09
     29     -405.621323165741  +0.000e+00  +2.044e-09
     30     -405.621323165741  -5.684e-14  +1.223e-09
     31     -405.621323165741  +5.116e-13  +9.121e-10
     32     -405.621323165741  -5.684e-14  +4.782e-10
     33     -405.621323165741  +0.000e+00  +2.890e-10
     34     -405.621323165741  -3.979e-13  +1.872e-10
     35     -405.621323165741  +0.000e+00  +8.477e-11
  -----------------------------------------------------
  The Davidson-Liu algorithm converged in 36 iterations.
  Davidson-Liu procedure took  0.036686 s
  Total time spent diagonalizing H:   0.475142 s

    PQ-space CI Energy Root   0        = -305.077901689967 Eh =   0.0000 eV, S^2 = -0.000000
    PQ-space CI Energy + EPT2 Root   0 = -305.078896686870 Eh =   0.0000 eV


  ==> Pruning the Q space <==

  Cycle 3 took: 1.066978 s

  ---------------------------------- Cycle 4 -----------------------------------


  ==> Diagonalizing the Hamiltonian in the P space <==

  Initial P space dimension: 733
  Spin-complete dimension of the P space: 1125 determinants

 SigmaVectorDynamic:
 Maximum memory   : 67108864 double
 Number of threads: 8


  Davidson-Liu solver algorithm using SigmaVectorDynamic sigma algorithm
  Initial guess determinants:         50

  Spin-adaptation of the initial guess based on minimum spin-complete subset
  Initial guess determinants do not form a spin-complete set. 10 determinants are missing

  Guess determinants after screening: 42

  Initial guess solutions
  ========================
  Number   2S+1   Selected
  ------------------------
    19       1       *
    19       3        
     4       5        
  ========================

  Setting initial guess and roots to project
  Adding guess 0        2S+1 = 1    E = -405.502051
  Adding guess 1        2S+1 = 1    E = -405.257803
  Projecting out guess  2S+1 = 3    E = -405.309079

  Projecting out 1 solutions

  ==> Diagonalizing Hamiltonian <==

  Energy   convergence: 1.00e-10
  Residual convergence: 1.00e-10
  -----------------------------------------------------
    Iter.      Avg. Energy       Delta_E     Res. Norm
  -----------------------------------------------------
      1     -405.502050581967  -4.055e+02  +3.063e-01
      2     -405.602373717756  -1.003e-01  +1.482e-01
      3     -405.617615107070  -1.524e-02  +6.942e-02
      4     -405.620224675501  -2.610e-03  +2.239e-02
      5     -405.620467091746  -2.424e-04  +9.044e-03
      6     -405.620514358054  -4.727e-05  +3.512e-03
      7     -405.620522903489  -8.545e-06  +1.490e-03
      8     -405.620524164670  -1.261e-06  +9.340e-04
      9     -405.620524765511  -6.008e-07  +4.589e-04
     10     -405.620524895462  -1.300e-07  +1.659e-04
     11     -405.620524910119  -1.466e-08  +6.697e-05
     12     -405.620524912887  -2.769e-09  +3.144e-05
     13     -405.620524913501  -6.137e-10  +1.697e-05
     14     -405.620524913652  -1.510e-10  +9.356e-06
     15     -405.620524913713  -6.082e-11  +5.506e-06
     16     -405.620524913735  -2.166e-11  +2.795e-06
     17     -405.620524913739  -4.263e-12  +1.265e-06
     18     -405.620524913740  -1.307e-12  +8.238e-07
     19     -405.620524913741  -6.253e-13  +5.480e-07
     20     -405.620524913741  -1.705e-13  +2.681e-07
     21     -405.620524913741  +0.000e+00  +1.531e-07
     22     -405.620524913741  +1.705e-13  +9.804e-08
     23     -405.620524913741  +5.684e-14  +4.555e-08
     24     -405.620524913741  +0.000e+00  +2.862e-08
     25     -405.620524913740  +2.274e-13  +1.981e-08
     26     -405.620524913740  -5.684e-14  +1.002e-08
     27     -405.620524913740  +5.684e-14  +5.656e-09
     28     -405.620524913741  -3.979e-13  +3.660e-09
     29     -405.620524913741  +0.000e+00  +1.759e-09
     30     -405.620524913741  +0.000e+00  +1.093e-09
     31     -405.620524913741  +1.705e-13  +7.677e-10
     32     -405.620524913741  -5.684e-14  +3.938e-10
     33     -405.620524913741  +5.684e-14  +2.175e-10
     34     -405.620524913741  +0.000e+00  +1.419e-10
     35     -405.620524913741  +0.000e+00  +7.094e-11
  -----------------------------------------------------
  The Davidson-Liu algorithm converged in 36 iterations.
  Davidson-Liu procedure took  0.035200 s
  Time spent diagonalizing H:   0.479348 s

    P-space  CI Energy Root   0        = -305.077103437966 Eh =   0.0000 eV, S^2 = -0.000000


  ==> Finding the Q space <==

  Using BATCH_HASH screening algorithm
  Setting nbin to 1 based on estimated memory (13.104 MB)
  Overwriting nbin to 4 based on user input
 -----------------------------------------
                Bin 0
  Build: 0.001625
  Merge: 0.000687
    Build F                  0.002669 
    Build criteria vector    0.000096
    Sort vector              0.000040
    Screening                0.000003
    Added 70 dets of 900 from bin 0
                Bin 1
  Build: 0.001590
  Merge: 0.000696
    Build F                  0.002734 
    Build criteria vector    0.000119
    Sort vector              0.000037
    Screening                0.000001
    Added 124 dets of 816 from bin 1
                Bin 2
  Build: 0.002202
  Merge: 0.000039
    Build F                  0.002721 
    Build criteria vector    0.000116
    Sort vector              0.000045
    Screening                0.000002
    Added 173 dets of 836 from bin 2
                Bin 3
  Build: 0.002186
  Merge: 0.000049
    Build F                  0.002696 
    Build criteria vector    0.000127
    Sort vector              0.000039
    Screening                0.000001
    Added 222 dets of 853 from bin 3
 ------------------------------------
  Screened out 0.0004947653 Eh of correlation
  Added 1 missing determinants in aimed selection.
  Time spent building the model space: 0.011632
  Spin-complete dimension of the PQ space: 1280

  ==> Diagonalizing the Hamiltonian in the P + Q space <==

  Number of reference roots: 1

 SigmaVectorDynamic:
 Maximum memory   : 67108864 double
 Number of threads: 8


  Davidson-Liu solver algorithm using SigmaVectorDynamic sigma algorithm
  Initial guess determinants:         50

  Spin-adaptation of the initial guess based on minimum spin-complete subset
  Initial guess determinants do not form a spin-complete set. 10 determinants are missing

  Guess determinants after screening: 42

  Initial guess solutions
  ========================
  Number   2S+1   Selected
  ------------------------
    19       1       *
    19       3        
     4       5        
  ========================

  Setting initial guess and roots to project
  Adding guess 0        2S+1 = 1    E = -405.502051
  Adding guess 1        2S+1 = 1    E = -405.257803
  Projecting out guess  2S+1 = 3    E = -405.309079

  Projecting out 1 solutions

  ==> Diagonalizing Hamiltonian <==

  Energy   convergence: 1.00e-10
  Residual convergence: 1.00e-10
  -----------------------------------------------------
    Iter.      Avg. Energy       Delta_E     Res. Norm
  -----------------------------------------------------
      1     -405.502050581967  -4.055e+02  +3.066e-01
      2     -405.602375990488  -1.003e-01  +1.502e-01
      3     -405.618130544104  -1.575e-02  +7.221e-02
      4     -405.620971316541  -2.841e-03  +2.478e-02
      5     -405.621257666440  -2.863e-04  +1.007e-02
      6     -405.621313034921  -5.537e-05  +3.650e-03
      7     -405.621321584997  -8.550e-06  +1.366e-03
      8     -405.621322547550  -9.626e-07  +8.152e-04
      9     -405.621323014172  -4.666e-07  +4.325e-04
     10     -405.621323144987  -1.308e-07  +1.737e-04
     11     -405.621323161397  -1.641e-08  +6.872e-05
     12     -405.621323164471  -3.075e-09  +3.536e-05
     13     -405.621323165308  -8.362e-10  +2.203e-05
     14     -405.621323165561  -2.539e-10  +1.291e-05
     15     -405.621323165678  -1.168e-10  +8.027e-06
     16     -405.621323165728  -4.957e-11  +4.379e-06
     17     -405.621323165738  -1.023e-11  +1.865e-06
     18     -405.621323165740  -2.274e-12  +1.034e-06
     19     -405.621323165741  -7.958e-13  +6.653e-07
     20     -405.621323165741  -2.274e-13  +3.775e-07
     21     -405.621323165741  +0.000e+00  +2.227e-07
     22     -405.621323165741  +2.842e-13  +1.224e-07
     23     -405.621323165741  -5.684e-14  +5.284e-08
     24     -405.621323165741  +0.000e+00  +3.141e-08
     25     -405.621323165741  +3.411e-13  +2.266e-08
     26     -405.621323165741  +5.684e-14  +1.194e-08
     27     -405.621323165741  -5.684e-14  +7.204e-09
     28     -405.621323165741  -4.547e-13  +4.598e-09
     29     -405.621323165741  +0.000e+00  +2.044e-09
     30     -405.621323165741  +0.000e+00  +1.223e-09
     31     -405.621323165741  +3.411e-13  +9.120e-10
     32     -405.621323165741  +0.000e+00  +4.782e-10
     33     -405.621323165741  +0.000e+00  +2.891e-10
     34     -405.621323165741  -3.411e-13  +1.872e-10
     35     -405.621323165741  +0.000e+00  +8.478e-11
  -----------------------------------------------------
  The Davidson-Liu algorithm converged in 36 iterations.
  Davidson-Liu procedure took  0.036712 s
  Total time spent diagonalizing H:   0.471552 s

    PQ-space CI Energy Root   0        = -305.077901689967 Eh =   0.0000 eV, S^2 = 0.000000
    PQ-space CI Energy + EPT2 Root   0 = -305.078896686870 Eh =   0.0000 eV

  ***** Calculation Converged *****

  ==> ACI Natural Orbitals <==


  ==> Computing Coupling Lists <==
  --------------------------------
                  0.001901 s
                  0.001858 s
        1A      1.922094      2A      1.902605      3A      1.860986  
        4A      1.779351      5A      0.224868      6A      0.139354  
        7A      0.095540      8A      0.075201  

  ==> Excited state solver summary <==

  Iterations required:                         4
  Dimension of optimized determinant space:    1280

  * Selected-CI Energy Root   0        = -305.077901689967 Eh =   0.0000 eV
  * Selected-CI Energy Root   0 + EPT2 = -305.078896686870 Eh =   0.0000 eV

  ==> Wavefunction Information <==

  Most important contributions to root   0:
    0   0.867976 0.753383188         732 |22220000>
    1  -0.194299 0.037752133         731 |22202000>
    2   0.103938 0.010803204         730 |22+--+00>
    3   0.103938 0.010803204         729 |22-++-00>
    4  -0.093057 0.008659655         728 |22020200>
    5   0.079812 0.006369943         727 |+22--00+>
    6   0.079812 0.006369943         726 |-22++00->
    7  -0.078982 0.006238123         725 |2-2++0-0>
    8  -0.078982 0.006238123         724 |2+2--0+0>
    9   0.075613 0.005717252         723 |22-+-+00>

  Saving information for root: 0

  ==> Energy Summary <==

    Multi.(2ms)  Irrep.  No.               Energy
    ---------------------------------------------
       1  (  0)     A     0     -305.077901689967
    ---------------------------------------------
  Diag takes 0.002293
 all alpha takes 0.005482
 all beta takes 0.005240
  2dif: 0.009904  
  4dif: 0.005824
 all alpha/beta takes 0.015931

       -----------------------------------------------------------------
                            Semi-Canonical Orbitals
         Chenyang Li, Jeffrey B. Schriber and Francesco A. Evangelista
       -----------------------------------------------------------------

  Took 0.006548 s to build Fock matrix

  ==> Checking Fock Matrix Diagonal Blocks <==

    Off-Diag. Elements       Max           2-Norm
    ------------------------------------------------
    FROZEN_DOCC          0.0000451765   0.0001283287
    FROZEN_UOCC          0.0000000000   0.0000000000
    GAS1                 0.0042944310   0.0114922887
    GAS2                 0.0000000000   0.0000000000
    GAS3                 0.0000000000   0.0000000000
    GAS4                 0.0000000000   0.0000000000
    GAS5                 0.0000000000   0.0000000000
    GAS6                 0.0000000000   0.0000000000
    RESTRICTED_DOCC      0.0007210775   0.0031843373
    RESTRICTED_UOCC      0.0011085633   0.0048236950
    ------------------------------------------------
  Integrals are about to be updated.
  Computing density fitted integrals 

  Number of auxiliary basis functions:  588
  Need 11.76 MB to store DF integrals
  DFHelper Memory: AOs need 0.013 GiB; user supplied 1.663 GiB. Using in-core AOs.

  ==> DFHelper <==
    NBF:                              50
    NAux:                            588
    Schwarz Cutoff:                1E-12
    Mask sparsity (%):                 9
    DFH Avail. Memory [GiB]:       1.663
    OpenMP threads:                    8
    Algorithm:                     STORE
    AO Core:                        True
    MO Core:                       False
    Hold Metric:                   False
    Metric Power:                 -0.500
    Fitting Condition:             1E-12
    Q Shell Max:                       7



  Transforming DF Integrals
  Timing for density-fitting transformation:                  0.042 s.

  Frozen-core energy        -397.044912338560948 a.u.
  Timing for frozen one-body operator:                        0.002 s.
  Resorting integrals after freezing core.
  Timing for resorting DF integrals:                          0.015 s.
  Timing for freezing core and virtual orbitals:              0.017 s.
  Integrals update took     0.173 s.

  ==> RDMs Transformation to Semicanonical Basis <==

    Transformed 1 RDMs.
    Transformed 2 RDMs.
    Transformed 3 RDMs.
  Timing for semi-canonicalization:                           0.517 s.

  ==> Multireference Driven Similarity Renormalization Group <==

    Computing Fock matrix and cleaning JK ........... Done
    Reading DSRG options ............................ Done
    Setting ambit MO space .......................... Done
    Preparing tensors for density cumulants ......... Done
    Filling Fock matrix from ForteIntegrals ......... Done

                  --------------------------------------------
                      Density Fitted / Cholesky Decomposed
                    MR-DSRG Second-Order Perturbation Theory
                      Kevin Hannon and Chenyang (York) Li
                                8 threads (OMP)
                  --------------------------------------------

    References:
      u-DSRG-MRPT2:      J. Chem. Theory Comput. 2015, 11, 2097.
      DF/CD-DSRG-MRPT2:  J. Chem. Phys. 2016, 144, 204111.
      (pr-)DSRG-MRPT2:   J. Chem. Phys. 2017, 146, 124132.


  ==> Calculation Information <==

    Psi4 ref_type                                        RHF
    Integral type                                         DF
    Source operator                                 STANDARD
    CCVV algorithm                                 FLY_AMBIT
    CCVV source                                       NORMAL
    Reference relaxation                                NONE
    State type                                STATE-SPECIFIC
    form Hbar3                                         FALSE
    Flow parameter                                 1.000e+10
    Taylor expansion threshold                     1.000e-03
    Cholesky tolerance                             1.000e-06


  ==> Checking Semicanonical Orbitals <==

    Block             Fa Max         Fa Mean           Fb Max         Fb Mean
    -------------------------------------------------------------------------
    CORE        0.0000000000    0.0000000000     0.0000000000    0.0000000000
    VIRTUAL     0.0000000000    0.0000000000     0.0000000000    0.0000000000
    GAS1        0.0000000000    0.0000000000     0.0000000000    0.0000000000
    -------------------------------------------------------------------------
    Orbitals are semi-canonicalized.

  ==> Computing DSRG-MRPT2 Energy <==

  Reference Energy = -305.077901689966154
    Computing T2                             ...... Done. Timing        0.063720 s
    Renormalizing V                          ...... Done. Timing        0.063970 s
    Computing T1                             ...... Done. Timing        0.002651 s
    Renormalizing F                          ...... Done. Timing        0.002494 s
    Computing <[F, T1]>                      ...... Done. Timing        0.000707 s
    Computing <[F, T2]>                      ...... Done. Timing        0.002082 s
    Computing <[V, T1]>                      ...... Done. Timing        0.001963 s
    Computing <[V, T2]> 4HH                  ...... Done. Timing        0.002851 s
    Computing <V, T2]> 4PP                   ...... Done. Timing        0.003224 s
    Computing [V, T2] 4PH                    ...... Done. Timing        0.015304 s
    Computing [V, T2] 3                     ...... Done. Timing        0.065581 s
    Computing <[V, T2]> (C_2)^4 (no ccvv)    ...... Done. Timing        0.012056 s
    Computing <[V, T2]> (C_2)^4 ccvv         ...... Done. Timing        0.007754 s
  Eccvv: -0.2177086582

  ==> DSRG-MRPT2 (DF/CD) Energy Summary <==

    E0 (reference)                 =   -305.077901689966154
    <[F, T1]>                      =     -0.000016917217985
    <[F, T2]>                      =      0.000000000000000
    <[V, T1]>                      =     -0.000000000000000
    <[V, T2]> C_4 (C_2)^2 HH       =      0.005491705723245
    <[V, T2]> C_4 (C_2)^2 PP       =      0.004395539798014
    <[V, T2]> C_4 (C_2)^2 PH       =      0.100267871898375
    <[V, T2]> C_6 C_2              =     -0.000000000000000
    <[V, T2]> (C_2)^4              =     -0.422266166075994
    <[V, T2]>                      =     -0.312111048656360
    DSRG-MRPT2 correlation energy  =     -0.312127965874346
    DSRG-MRPT2 total energy        =   -305.390029655840522
    max(T1)                        =      0.000645016090987
    ||T1||                         =      0.003322540874263

  ==> Total Timings (s) for Computing Commutators <==

             [H1, T1]    [H1, T2]    [H2, T1]    [H2, T2]
    -----------------------------------------------------
    -> C0       0.001       0.002       0.002       0.041
    -> C1       0.000       0.000       0.000       0.000
    -> C2                   0.000       0.000       0.000
    -----------------------------------------------------


  Time to prepare integrals:        0.286 seconds
  Time to run job          :        6.217 seconds
  Total                    :        6.217 seconds    ACI-DSRG-MRPT2 energy.................................................................PASSED

    Psi4 stopped on: Thursday, 10 December 2020 09:52AM
    Psi4 wall time for execution: 0:00:07.69

*** Psi4 exiting successfully. Buy a developer a beer!
