
    -----------------------------------------------------------------------
          Psi4: An Open-Source Ab Initio Electronic Structure Package
                               Psi4 1.2rc2.dev6 

                         Git: Rev {master} ce9c78d dirty


    R. M. Parrish, L. A. Burns, D. G. A. Smith, A. C. Simmonett,
    A. E. DePrince III, E. G. Hohenstein, U. Bozkaya, A. Yu. Sokolov,
    R. Di Remigio, R. M. Richard, J. F. Gonthier, A. M. James,
    H. R. McAlexander, A. Kumar, M. Saitow, X. Wang, B. P. Pritchard,
    P. Verma, H. F. Schaefer III, K. Patkowski, R. A. King, E. F. Valeev,
    F. A. Evangelista, J. M. Turney, T. D. Crawford, and C. D. Sherrill,
    J. Chem. Theory Comput. 13(7) pp 3185--3197 (2017).
    (doi: 10.1021/acs.jctc.7b00174)

    -----------------------------------------------------------------------


    Psi4 started on: Wednesday, 30 May 2018 11:20AM

    Process ID: 11497
    Host:       jeffs-mbp-2.wireless.emory.edu
    PSIDATADIR: /Users/jeffschriber/src/psi4-debug-install/share/psi4
    Memory:     500.0 MiB
    Threads:    1
    
  ==> Input File <==

--------------------------------------------------------------------------
import forte

memory 2 gb

escf = -304.9057795487569251
eaci = -305.390029670098386 

molecule ene2{
0 1

    C            0.335863347908    -0.638024351991     0.000000000207
    H            1.432938644893    -0.620850793123     0.000000000280
    C           -0.296842800370    -1.839541056853     0.000000000164
    H           -1.393739522764    -1.860704439495     0.000000000280
    C            0.383204758655    -3.118962138239     0.000000000233
    H            1.479554406702    -3.087254985300     0.000000001289
    C           -0.237579194060    -4.313790051647    -0.000000000740
    H            0.325161338012    -5.249189944735    -0.000000000503
    H           -1.329245280272    -4.386987205251    -0.000000001655
    C           -0.335863360640     0.638024352182     0.000000000468
    H           -1.432938656420     0.620850793004     0.000000000922
    C            0.296842792408     1.839541055584     0.000000000041
    H            1.393739512934     1.860704430863    -0.000000000539
    C           -0.383204755743     3.118962141979     0.000000000141
    H           -1.479554404938     3.087254999541     0.000000000472
    C            0.237579209937     4.313790049182    -0.000000000431
    H            1.329245296894     4.386987192215    -0.000000001010
    H           -0.325161312367     5.249189949931    -0.000000000534

units angstrom
symmetry c1
}

set {
  basis sto-3g 
  df_basis_mp2 cc-pvdz-ri 
  df_basis_scf cc-pvdz-jkfit 
  scf_type df
  guess sad
  maxiter 500
  e_convergence 10
  d_convergence 10
  r_convergence 10
  reference rhf
}

set forte {
  multiplicity 1
  int_type df
  job_type three-dsrg-mrpt2
  frozen_docc      [8]
  restricted_docc  [17]
  active           [8]
  cas_type aci
  sigma 0.001
  diag_algorithm dynamic
  aci_direct_rdms true
  aci_batched_screening true
  aci_nbatch 4
  nroot 1
  root_sym 0
  charge 0
  print_no true
}

set_num_threads(8)

e, scf_wfn = energy('scf', return_wfn=True)

compare_values(escf,get_variable("CURRENT ENERGY"), 9, "SCF energy") 

energy('forte', ref_wfn=scf_wfn)
compare_values(eaci,get_variable("CURRENT ENERGY"), 9, "ACI-DSRG-MRPT2 energy") 



--------------------------------------------------------------------------

  Memory set to   1.863 GiB by Python driver.
  Threads set to 8 by Python driver.

*** tstart() called on jeffs-mbp-2.wireless.emory.edu
*** at Wed May 30 11:20:14 2018

   => Loading Basis Set <=

    Name: STO-3G
    Role: ORBITAL
    Keyword: BASIS
    atoms 1, 3, 5, 7, 10, 12, 14, 16      entry C          line    61 file /Users/jeffschriber/src/psi4-debug-install/share/psi4/basis/sto-3g.gbs 
    atoms 2, 4, 6, 8-9, 11, 13, 15, 17-18 entry H          line    19 file /Users/jeffschriber/src/psi4-debug-install/share/psi4/basis/sto-3g.gbs 


         ---------------------------------------------------------
                                   SCF
            by Justin Turney, Rob Parrish, Andy Simmonett
                             and Daniel Smith
                              RHF Reference
                        8 Threads,   1907 MiB Core
         ---------------------------------------------------------

  ==> Geometry <==

    Molecular point group: c1
    Full point group: Cs

    Geometry (in Angstrom), charge = 0, multiplicity = 1:

       Center              X                  Y                   Z               Mass       
    ------------   -----------------  -----------------  -----------------  -----------------
           C          0.335863347908    -0.638024351991     0.000000000207    12.000000000000
           H          1.432938644893    -0.620850793123     0.000000000280     1.007825032070
           C         -0.296842800370    -1.839541056853     0.000000000164    12.000000000000
           H         -1.393739522764    -1.860704439495     0.000000000280     1.007825032070
           C          0.383204758655    -3.118962138239     0.000000000233    12.000000000000
           H          1.479554406702    -3.087254985300     0.000000001289     1.007825032070
           C         -0.237579194060    -4.313790051647    -0.000000000740    12.000000000000
           H          0.325161338012    -5.249189944735    -0.000000000503     1.007825032070
           H         -1.329245280272    -4.386987205251    -0.000000001655     1.007825032070
           C         -0.335863360640     0.638024352182     0.000000000468    12.000000000000
           H         -1.432938656420     0.620850793004     0.000000000922     1.007825032070
           C          0.296842792408     1.839541055584     0.000000000041    12.000000000000
           H          1.393739512934     1.860704430863    -0.000000000539     1.007825032070
           C         -0.383204755743     3.118962141979     0.000000000141    12.000000000000
           H         -1.479554404938     3.087254999541     0.000000000472     1.007825032070
           C          0.237579209937     4.313790049182    -0.000000000431    12.000000000000
           H          1.329245296894     4.386987192215    -0.000000001010     1.007825032070
           H         -0.325161312367     5.249189949931    -0.000000000534     1.007825032070

  Running in c1 symmetry.

  Rotational constants: A =      0.65101  B =      0.01889  C =      0.01836 [cm^-1]
  Rotational constants: A =  19516.70357  B =    566.30750  C =    550.33857 [MHz]
  Nuclear repulsion =  296.638712432607065

  Charge       = 0
  Multiplicity = 1
  Electrons    = 58
  Nalpha       = 29
  Nbeta        = 29

  ==> Algorithm <==

  SCF Algorithm Type is DF.
  DIIS enabled.
  MOM disabled.
  Fractional occupation disabled.
  Guess Type is SAD.
  Energy threshold   = 1.00e-10
  Density threshold  = 1.00e-10
  Integral threshold = 0.00e+00

  ==> Primary Basis <==

  Basis Set: STO-3G
    Blend: STO-3G
    Number of shells: 34
    Number of basis function: 50
    Number of Cartesian functions: 50
    Spherical Harmonics?: true
    Max angular momentum: 1

   => Loading Basis Set <=

    Name: CC-PVDZ-JKFIT
    Role: JKFIT
    Keyword: DF_BASIS_SCF
    atoms 1, 3, 5, 7, 10, 12, 14, 16      entry C          line   121 file /Users/jeffschriber/src/psi4-debug-install/share/psi4/basis/cc-pvdz-jkfit.gbs 
    atoms 2, 4, 6, 8-9, 11, 13, 15, 17-18 entry H          line    51 file /Users/jeffschriber/src/psi4-debug-install/share/psi4/basis/cc-pvdz-jkfit.gbs 

  ==> Pre-Iterations <==

   -------------------------------------------------------
    Irrep   Nso     Nmo     Nalpha   Nbeta   Ndocc  Nsocc
   -------------------------------------------------------
     A         50      50       0       0       0       0
   -------------------------------------------------------
    Total      50      50      29      29      29       0
   -------------------------------------------------------

  ==> Integral Setup <==

  ==> MemDFJK: Density-Fitted J/K Matrices <==

    J tasked:                   Yes
    K tasked:                   Yes
    wK tasked:                   No
    OpenMP threads:               8
    Memory (MB):               1430
    Algorithm:                 Core
    Schwarz Cutoff:           1E-12
    Mask sparsity (%):       9.0400
    Fitting Condition:        1E-12

   => Auxiliary Basis Set <=

  Basis Set: CC-PVDZ-JKFIT
    Blend: CC-PVDZ-JKFIT
    Number of shells: 282
    Number of basis function: 790
    Number of Cartesian functions: 898
    Spherical Harmonics?: true
    Max angular momentum: 3

  Minimum eigenvalue in the overlap matrix is 1.8898432374E-01.
  Using Symmetric Orthogonalization.

  SCF Guess: Superposition of Atomic Densities via on-the-fly atomic UHF.

  ==> Iterations <==

                           Total Energy        Delta E     RMS |[F,P]|

   @DF-RHF iter   0:  -306.82071885816373   -3.06821e+02   9.80756e-02 
   @DF-RHF iter   1:  -304.85489123903699    1.96583e+00   4.78660e-03 
   @DF-RHF iter   2:  -304.89930687989806   -4.44156e-02   1.74667e-03 DIIS
   @DF-RHF iter   3:  -304.90450375538370   -5.19688e-03   6.71369e-04 DIIS
   @DF-RHF iter   4:  -304.90567141661484   -1.16766e-03   1.72686e-04 DIIS
   @DF-RHF iter   5:  -304.90577298667415   -1.01570e-04   4.43963e-05 DIIS
   @DF-RHF iter   6:  -304.90577918352085   -6.19685e-06   9.76326e-06 DIIS
   @DF-RHF iter   7:  -304.90577950020577   -3.16685e-07   4.19324e-06 DIIS
   @DF-RHF iter   8:  -304.90577954043016   -4.02244e-08   1.60513e-06 DIIS
   @DF-RHF iter   9:  -304.90577954861635   -8.18619e-09   2.06597e-07 DIIS
   @DF-RHF iter  10:  -304.90577954877449   -1.58138e-10   3.67410e-08 DIIS
   @DF-RHF iter  11:  -304.90577954877932   -4.83169e-12   7.92717e-09 DIIS
   @DF-RHF iter  12:  -304.90577954877961   -2.84217e-13   2.24232e-09 DIIS
   @DF-RHF iter  13:  -304.90577954877961    0.00000e+00   3.67708e-10 DIIS
   @DF-RHF iter  14:  -304.90577954877949    1.13687e-13   5.32610e-11 DIIS

  ==> Post-Iterations <==

    Orbital Energies [Eh]
    ---------------------

    Doubly Occupied:                                                      

       1A    -11.031463     2A    -11.031463     3A    -11.030022  
       4A    -11.029944     5A    -11.029029     6A    -11.029029  
       7A    -11.017273     8A    -11.017272     9A     -1.054452  
      10A     -1.022461    11A     -0.972841    12A     -0.910398  
      13A     -0.799624    14A     -0.726577    15A     -0.712392  
      16A     -0.696778    17A     -0.608018    18A     -0.592151  
      19A     -0.566877    20A     -0.529785    21A     -0.507590  
      22A     -0.482012    23A     -0.466177    24A     -0.448857  
      25A     -0.431943    26A     -0.427940    27A     -0.379530  
      28A     -0.302489    29A     -0.205538  

    Virtual:                                                              

      30A      0.178749    31A      0.294211    32A      0.396674  
      33A      0.465433    34A      0.552373    35A      0.608844  
      36A      0.656945    37A      0.676380    38A      0.678211  
      39A      0.689426    40A      0.689961    41A      0.695974  
      42A      0.697874    43A      0.824020    44A      0.831403  
      45A      0.912966    46A      0.929715    47A      1.002591  
      48A      1.014854    49A      1.076008    50A      1.109031  

    Final Occupation by Irrep:
              A 
    DOCC [    29 ]

  Energy converged.

  @DF-RHF Final Energy:  -304.90577954877949

   => Energetics <=

    Nuclear Repulsion Energy =            296.6387124326070648
    One-Electron Energy =               -1000.9691362933247092
    Two-Electron Energy =                 399.4246443119382093
    Total Energy =                       -304.9057795487794920



Properties will be evaluated at   0.000000,   0.000000,   0.000000 [a0]

Properties computed using the SCF density matrix

  Nuclear Dipole Moment: [e a0]
     X:     0.0000      Y:    -0.0000      Z:    -0.0000

  Electronic Dipole Moment: [e a0]
     X:    -0.0000      Y:     0.0000      Z:     0.0000

  Dipole Moment: [e a0]
     X:     0.0000      Y:     0.0000      Z:     0.0000     Total:     0.0000

  Dipole Moment: [D]
     X:     0.0000      Y:     0.0000      Z:     0.0000     Total:     0.0000


*** tstop() called on jeffs-mbp-2.wireless.emory.edu at Wed May 30 11:20:18 2018
Module time:
	user time   =       5.64 seconds =       0.09 minutes
	system time =       2.72 seconds =       0.05 minutes
	total time  =          4 seconds =       0.07 minutes
Total time:
	user time   =       5.64 seconds =       0.09 minutes
	system time =       2.72 seconds =       0.05 minutes
	total time  =          4 seconds =       0.07 minutes
	SCF energy........................................................PASSED
   => Loading Basis Set <=

    Name: CC-PVDZ-RI
    Role: RIFIT
    Keyword: DF_BASIS_MP2
    atoms 1, 3, 5, 7, 10, 12, 14, 16      entry C          line   159 file /Users/jeffschriber/src/psi4-debug-install/share/psi4/basis/cc-pvdz-ri.gbs 
    atoms 2, 4, 6, 8-9, 11, 13, 15, 17-18 entry H          line    19 file /Users/jeffschriber/src/psi4-debug-install/share/psi4/basis/cc-pvdz-ri.gbs 

   => Loading Basis Set <=

    Name: STO-3G
    Role: ORBITAL
    Keyword: MINAO_BASIS
    atoms 1, 3, 5, 7, 10, 12, 14, 16      entry C          line    61 file /Users/jeffschriber/src/psi4-debug-install/share/psi4/basis/sto-3g.gbs 
    atoms 2, 4, 6, 8-9, 11, 13, 15, 17-18 entry H          line    19 file /Users/jeffschriber/src/psi4-debug-install/share/psi4/basis/sto-3g.gbs 


Reading options from the FORTE block
Calling plugin forte.so.



  Forte
  ----------------------------------------------------------------------------
  A suite of quantum chemistry methods for strongly correlated electrons

    git branch: det64 - git commit: ef75a956

  Developed by:
    Francesco A. Evangelista, Chenyang Li, Kevin P. Hannon,
    Jeffrey B. Schriber, Tianyuan Zhang, Chenxi Cai
  ----------------------------------------------------------------------------

  Size of Determinant class: 16

  ==> MO Space Information <==

  Read options for space FROZEN_DOCC
  Read options for space RESTRICTED_DOCC
  Read options for space ACTIVE
 Removing orbital 0
 Removing orbital 1
 Removing orbital 2
 Removing orbital 3
 Removing orbital 4
 Removing orbital 5
 Removing orbital 6
 Removing orbital 7
  -------------------------------
                        A   Sum
  -------------------------------
    FROZEN_DOCC         8     8
    RESTRICTED_DOCC    17    17
    ACTIVE              8     8
    RESTRICTED_UOCC    17    17
    FROZEN_UOCC         0     0
    Total              50    50
  -------------------------------

  ==> Integral Transformation <==

  Number of molecular orbitals:               50
  Number of correlated molecular orbitals:    42
  Number of frozen occupied orbitals:          8
  Number of frozen unoccupied orbitals:        0

    Molecular point group: c1
    Full point group: Cs

    Geometry (in Angstrom), charge = 0, multiplicity = 1:

       Center              X                  Y                   Z               Mass       
    ------------   -----------------  -----------------  -----------------  -----------------
           C          0.335863347908    -0.638024351991     0.000000000207    12.000000000000
           H          1.432938644893    -0.620850793123     0.000000000280     1.007825032070
           C         -0.296842800370    -1.839541056853     0.000000000164    12.000000000000
           H         -1.393739522764    -1.860704439495     0.000000000280     1.007825032070
           C          0.383204758655    -3.118962138239     0.000000000233    12.000000000000
           H          1.479554406702    -3.087254985300     0.000000001289     1.007825032070
           C         -0.237579194060    -4.313790051647    -0.000000000740    12.000000000000
           H          0.325161338012    -5.249189944735    -0.000000000503     1.007825032070
           H         -1.329245280272    -4.386987205251    -0.000000001655     1.007825032070
           C         -0.335863360640     0.638024352182     0.000000000468    12.000000000000
           H         -1.432938656420     0.620850793004     0.000000000922     1.007825032070
           C          0.296842792408     1.839541055584     0.000000000041    12.000000000000
           H          1.393739512934     1.860704430863    -0.000000000539     1.007825032070
           C         -0.383204755743     3.118962141979     0.000000000141    12.000000000000
           H         -1.479554404938     3.087254999541     0.000000000472     1.007825032070
           C          0.237579209937     4.313790049182    -0.000000000431    12.000000000000
           H          1.329245296894     4.386987192215    -0.000000001010     1.007825032070
           H         -0.325161312367     5.249189949931    -0.000000000534     1.007825032070

  -AO BASIS SET INFORMATION:
    Name                   = STO-3G
    Blend                  = STO-3G
    Total number of shells = 34
    Number of primitives   = 102
    Number of AO           = 50
    Number of SO           = 50
    Maximum AM             = 1
    Spherical Harmonics    = TRUE

  -Contraction Scheme:
    Atom   Type   All Primitives // Shells:
   ------ ------ --------------------------
       1     C     6s 3p // 2s 1p 
       2     H     3s // 1s 
       3     C     6s 3p // 2s 1p 
       4     H     3s // 1s 
       5     C     6s 3p // 2s 1p 
       6     H     3s // 1s 
       7     C     6s 3p // 2s 1p 
       8     H     3s // 1s 
       9     H     3s // 1s 
      10     C     6s 3p // 2s 1p 
      11     H     3s // 1s 
      12     C     6s 3p // 2s 1p 
      13     H     3s // 1s 
      14     C     6s 3p // 2s 1p 
      15     H     3s // 1s 
      16     C     6s 3p // 2s 1p 
      17     H     3s // 1s 
      18     H     3s // 1s 

  ==> AO Basis Functions <==

    [ STO-3G ]
    spherical
    ****
    C   1
    S   3 1.00
                        71.61683700           0.15432897
                        13.04509600           0.53532814
                         3.53051220           0.44463454
    S   3 1.00
                         2.94124940          -0.09996723
                         0.68348310           0.39951283
                         0.22228990           0.70011547
    P   3 1.00
                         2.94124940           0.15591627
                         0.68348310           0.60768372
                         0.22228990           0.39195739
    ****
    H   2
    S   3 1.00
                         3.42525091           0.15432897
                         0.62391373           0.53532814
                         0.16885540           0.44463454
    ****
    C   3
    S   3 1.00
                        71.61683700           0.15432897
                        13.04509600           0.53532814
                         3.53051220           0.44463454
    S   3 1.00
                         2.94124940          -0.09996723
                         0.68348310           0.39951283
                         0.22228990           0.70011547
    P   3 1.00
                         2.94124940           0.15591627
                         0.68348310           0.60768372
                         0.22228990           0.39195739
    ****
    H   4
    S   3 1.00
                         3.42525091           0.15432897
                         0.62391373           0.53532814
                         0.16885540           0.44463454
    ****
    C   5
    S   3 1.00
                        71.61683700           0.15432897
                        13.04509600           0.53532814
                         3.53051220           0.44463454
    S   3 1.00
                         2.94124940          -0.09996723
                         0.68348310           0.39951283
                         0.22228990           0.70011547
    P   3 1.00
                         2.94124940           0.15591627
                         0.68348310           0.60768372
                         0.22228990           0.39195739
    ****
    H   6
    S   3 1.00
                         3.42525091           0.15432897
                         0.62391373           0.53532814
                         0.16885540           0.44463454
    ****
    C   7
    S   3 1.00
                        71.61683700           0.15432897
                        13.04509600           0.53532814
                         3.53051220           0.44463454
    S   3 1.00
                         2.94124940          -0.09996723
                         0.68348310           0.39951283
                         0.22228990           0.70011547
    P   3 1.00
                         2.94124940           0.15591627
                         0.68348310           0.60768372
                         0.22228990           0.39195739
    ****
    H   8
    S   3 1.00
                         3.42525091           0.15432897
                         0.62391373           0.53532814
                         0.16885540           0.44463454
    ****
    H   9
    S   3 1.00
                         3.42525091           0.15432897
                         0.62391373           0.53532814
                         0.16885540           0.44463454
    ****
    C  10
    S   3 1.00
                        71.61683700           0.15432897
                        13.04509600           0.53532814
                         3.53051220           0.44463454
    S   3 1.00
                         2.94124940          -0.09996723
                         0.68348310           0.39951283
                         0.22228990           0.70011547
    P   3 1.00
                         2.94124940           0.15591627
                         0.68348310           0.60768372
                         0.22228990           0.39195739
    ****
    H  11
    S   3 1.00
                         3.42525091           0.15432897
                         0.62391373           0.53532814
                         0.16885540           0.44463454
    ****
    C  12
    S   3 1.00
                        71.61683700           0.15432897
                        13.04509600           0.53532814
                         3.53051220           0.44463454
    S   3 1.00
                         2.94124940          -0.09996723
                         0.68348310           0.39951283
                         0.22228990           0.70011547
    P   3 1.00
                         2.94124940           0.15591627
                         0.68348310           0.60768372
                         0.22228990           0.39195739
    ****
    H  13
    S   3 1.00
                         3.42525091           0.15432897
                         0.62391373           0.53532814
                         0.16885540           0.44463454
    ****
    C  14
    S   3 1.00
                        71.61683700           0.15432897
                        13.04509600           0.53532814
                         3.53051220           0.44463454
    S   3 1.00
                         2.94124940          -0.09996723
                         0.68348310           0.39951283
                         0.22228990           0.70011547
    P   3 1.00
                         2.94124940           0.15591627
                         0.68348310           0.60768372
                         0.22228990           0.39195739
    ****
    H  15
    S   3 1.00
                         3.42525091           0.15432897
                         0.62391373           0.53532814
                         0.16885540           0.44463454
    ****
    C  16
    S   3 1.00
                        71.61683700           0.15432897
                        13.04509600           0.53532814
                         3.53051220           0.44463454
    S   3 1.00
                         2.94124940          -0.09996723
                         0.68348310           0.39951283
                         0.22228990           0.70011547
    P   3 1.00
                         2.94124940           0.15591627
                         0.68348310           0.60768372
                         0.22228990           0.39195739
    ****
    H  17
    S   3 1.00
                         3.42525091           0.15432897
                         0.62391373           0.53532814
                         0.16885540           0.44463454
    ****
    H  18
    S   3 1.00
                         3.42525091           0.15432897
                         0.62391373           0.53532814
                         0.16885540           0.44463454
    ****


  DFIntegrals overall time
 Computing Density fitted integrals 

 Number of auxiliary basis functions:  588
 Need 0.010952 GB to store DF integrals

  Computing DF Integrals               ......Done. Timing        0.071238 s
  Frozen-core energy           -397.044911783775 a.u.

  FrozenOneBody Operator takes  0.84588500 s
  Resorting integrals after freezing core.
 Done with resorting
 Resorting integrals takes   0.07096500s
  DFIntegrals take      2.04984700 s
  Number of active alpha electrons: 4
  Number of active beta electrons: 4
  Maximum reference space size: 1000
  Number of reference determinants: 225
  Reference generated from 7 MOs

        ---------------------------------------------------------------
                      Adaptive Configuration Interaction
          written by Jeffrey B. Schriber and Francesco A. Evangelista
        ---------------------------------------------------------------

  ==> Reference Information <==

  There are 25 frozen orbitals.
  There are 8 active orbitals.

  ==> Calculation Information <==

  -----------------------------------------------------------------
    Multiplicity                             1    
    Symmetry                                 0    
    Number of roots                          1    
    Root used for properties                 0    
    Sigma (Eh)                               1.00e-03
    Gamma (Eh^(-1))                          1.00e+00
    Convergence threshold                    1.00e-09
    Ms                                       0
    Diagonalization algorithm                DYNAMIC
    Determinant selection criterion          Second-order Energy
    Selection criterion                      Aimed selection
    Excited Algorithm                        ROOT_ORTHOGONALIZE
    Project out spin contaminants            True
    Enforce spin completeness of basis       True
    Enforce complete aimed selection         True
  -----------------------------------------------------------------
  Using 8 threads
  Computing wavefunction for root 0
  Using streamlined Q-space builder.

  ==> Cycle 0 <==

  Initial P space dimension: 225
  Spin-complete dimension of the P space: 225 determinants

  Davidson-Liu solver algorithm with dynamic sigma builds

 SigmaVectorDynamic:
 Maximum memory   : 10000000 double
 Number of threads: 8

  Initial guess space is incomplete!
  Trying to add 3 determinant(s).  3 determinant(s) added.
  Initial guess found 48 solutions with 2S+1 = 1 *
  Initial guess found 48 solutions with 2S+1 = 3  
  Initial guess found 7 solutions with 2S+1 = 5  
  Adding guess 0 (multiplicity = 1.000000)
  Adding guess 1 (multiplicity = 1.000000)

  ==> Diagonalizing Hamiltonian <==

  ----------------------------------------
    Iter.      Avg. Energy       Delta_E
  ----------------------------------------
      1     -405.500712151746  -4.055e+02
      2     -405.504332640863  -3.620e-03
      3     -405.504511926676  -1.793e-04
      4     -405.504532935923  -2.101e-05
      5     -405.504538003197  -5.067e-06
      6     -405.504538326823  -3.236e-07
      7     -405.504538365516  -3.869e-08
      8     -405.504538372878  -7.362e-09
      9     -405.504538374695  -1.817e-09
     10     -405.504538374923  -2.285e-10
     11     -405.504538374954  -3.035e-11
  ----------------------------------------
  The Davidson-Liu algorithm converged in 12 iterations.
  Davidson-Liu procedure took  0.035181 s
  Time spent diagonalizing H:   0.338998 s

    P-space  CI Energy Root   0        = -304.961117485447 Eh =   0.0000 eV

  Using batched Q_space algorithm
  Setting nbin to 1 based on estimated memory ( 1.331 MB)
  Overwriting nbin to 4 based on user input
 -----------------------------------------
                Bin 0
  Build: 0.003502
  Merge: 0.000975
  Correlation ignored: 0.000000000000
    Build F                  0.005801 
    Build criteria vector    0.000598
    Sort vector              0.000142
    Screening                0.000037
    Added 122 dets of 719 from bin 0
                Bin 1
  Build: 0.001866
  Merge: 0.001631
  Correlation ignored: 0.000000000000
    Build F                  0.004124 
    Build criteria vector    0.000395
    Sort vector              0.000077
    Screening                0.000011
    Added 205 dets of 560 from bin 1
                Bin 2
  Build: 0.001371
  Merge: 0.001929
  Correlation ignored: 0.000000000000
    Build F                  0.003680 
    Build criteria vector    0.000452
    Sort vector              0.000089
    Screening                0.000005
    Added 232 dets of 645 from bin 2
                Bin 3
  Build: 0.001357
  Merge: 0.001894
  Correlation ignored: 0.000000000000
    Build F                  0.003882 
    Build criteria vector    0.000605
    Sort vector              0.000117
    Screening                0.000014
    Added 347 dets of 838 from bin 3
 ------------------------------------
  Screened out 0.0004929198 Eh of correlation
  Dimension of the truncated SD space: 347 determinants
  Time spent building the external space (default): 0.020832 s

  Time spent sorting: 0.000057
  Added 1 missing determinants in aimed selection.
  Time spent selecting: 0.000095
  Dimension of the P + Q space: 464 determinants
  Time spent screening the model space: 0.000120 s
  Time spent building the model space: 0.021123
  Spin-complete dimension of the PQ space: 620

  Davidson-Liu solver algorithm with dynamic sigma builds

 SigmaVectorDynamic:
 Maximum memory   : 10000000 double
 Number of threads: 8

  Initial guess space is incomplete!
  Trying to add 14 determinant(s).  14 determinant(s) added.
  Initial guess found 50 solutions with 2S+1 = 1 *
  Initial guess found 54 solutions with 2S+1 = 3  
  Initial guess found 10 solutions with 2S+1 = 5  
  Adding guess 0 (multiplicity = 1.000000)
  Adding guess 1 (multiplicity = 1.000000)

  ==> Diagonalizing Hamiltonian <==

  ----------------------------------------
    Iter.      Avg. Energy       Delta_E
  ----------------------------------------
      1     -405.530960413988  -4.055e+02
      2     -405.605068835368  -7.411e-02
      3     -405.610719899194  -5.651e-03
      4     -405.611593227243  -8.733e-04
      5     -405.611849809777  -2.566e-04
      6     -405.611877262850  -2.745e-05
      7     -405.611885756598  -8.494e-06
      8     -405.611887539291  -1.783e-06
      9     -405.611888018514  -4.792e-07
     10     -405.611888116988  -9.847e-08
     11     -405.611888143615  -2.663e-08
     12     -405.611888150397  -6.782e-09
     13     -405.611888152557  -2.160e-09
     14     -405.611888153147  -5.895e-10
     15     -405.611888153313  -1.664e-10
     16     -405.611888153362  -4.934e-11
  ----------------------------------------
  The Davidson-Liu algorithm converged in 17 iterations.
  Davidson-Liu procedure took  0.078219 s
  Total time spent diagonalizing H:   0.375842 s

    PQ-space CI Energy Root   0        = -305.068467263855 Eh =   0.0000 eV
    PQ-space CI Energy + EPT2 Root   0 = -305.069462403910 Eh =   0.0000 eV


  Most important contributions to root   0:
    0   0.880772 0.775760112         224 |22220000>
    1  -0.199099 0.039640603         208 |22202000>
    2   0.105304 0.011088828         189 |22+--+00>
    3   0.105304 0.011088828         147 |22-++-00>
    4  -0.095393 0.009099914         128 |22020200>
    5  -0.077741 0.006043605         460 |2+2--0+0>
    6  -0.077741 0.006043605         459 |2-2++0-0>
    7   0.076980 0.005925963         462 |+22--00+>
    8   0.076980 0.005925963         461 |-22++00->
    9   0.073502 0.005402473         203 |22+-+-00>

  Spin state for root 0: S^2 = 0.000000, S = 0.000, singlet
  Cycle 0 took: 0.743429 s

  ==> Cycle 1 <==

  Initial P space dimension: 282
  Spin-complete dimension of the P space: 384 determinants

  Davidson-Liu solver algorithm with dynamic sigma builds

 SigmaVectorDynamic:
 Maximum memory   : 10000000 double
 Number of threads: 8

  Initial guess space is incomplete!
  Trying to add 23 determinant(s).  23 determinant(s) added.
  Initial guess found 51 solutions with 2S+1 = 1 *
  Initial guess found 57 solutions with 2S+1 = 3  
  Initial guess found 15 solutions with 2S+1 = 5  
  Adding guess 0 (multiplicity = 1.000000)
  Adding guess 1 (multiplicity = 1.000000)

  ==> Diagonalizing Hamiltonian <==

  ----------------------------------------
    Iter.      Avg. Energy       Delta_E
  ----------------------------------------
      1     -405.567693895566  -4.056e+02
      2     -405.606339824113  -3.865e-02
      3     -405.610520044305  -4.180e-03
      4     -405.611091678363  -5.716e-04
      5     -405.611294630274  -2.030e-04
      6     -405.611314979449  -2.035e-05
      7     -405.611318713608  -3.734e-06
      8     -405.611319396849  -6.832e-07
      9     -405.611319584303  -1.875e-07
     10     -405.611319618052  -3.375e-08
     11     -405.611319625761  -7.710e-09
     12     -405.611319627706  -1.945e-09
     13     -405.611319628310  -6.036e-10
     14     -405.611319628443  -1.333e-10
     15     -405.611319628474  -3.115e-11
  ----------------------------------------
  The Davidson-Liu algorithm converged in 16 iterations.
  Davidson-Liu procedure took  0.053611 s
  Time spent diagonalizing H:   0.347330 s

    P-space  CI Energy Root   0        = -305.067898738967 Eh =   0.0000 eV

  Using batched Q_space algorithm
  Setting nbin to 1 based on estimated memory ( 2.271 MB)
  Overwriting nbin to 4 based on user input
 -----------------------------------------
                Bin 0
  Build: 0.006624
  Merge: 0.000449
  Correlation ignored: 0.000000000000
    Build F                  0.007995 
    Build criteria vector    0.000632
    Sort vector              0.000128
    Screening                0.000023
    Added 153 dets of 991 from bin 0
                Bin 1
  Build: 0.002504
  Merge: 0.003487
  Correlation ignored: 0.000000000000
    Build F                  0.006944 
    Build criteria vector    0.000626
    Sort vector              0.000170
    Screening                0.000034
    Added 307 dets of 983 from bin 1
                Bin 2
  Build: 0.004729
  Merge: 0.002477
  Correlation ignored: 0.000000000000
    Build F                  0.008365 
    Build criteria vector    0.000617
    Sort vector              0.000123
    Screening                0.000013
    Added 469 dets of 972 from bin 2
                Bin 3
  Build: 0.002530
  Merge: 0.003736
  Correlation ignored: 0.000000000000
    Build F                  0.007306 
    Build criteria vector    0.000705
    Sort vector              0.000191
    Screening                0.000047
    Added 625 dets of 986 from bin 3
 ------------------------------------
  Screened out 0.0004954037 Eh of correlation
  Dimension of the truncated SD space: 625 determinants
  Time spent building the external space (default): 0.034801 s

  Time spent sorting: 0.000127
  Added 2 missing determinants in aimed selection.
  Time spent selecting: 0.000162
  Dimension of the P + Q space: 853 determinants
  Time spent screening the model space: 0.000197 s
  Time spent building the model space: 0.035229
  Spin-complete dimension of the PQ space: 1207

  Davidson-Liu solver algorithm with dynamic sigma builds

 SigmaVectorDynamic:
 Maximum memory   : 10000000 double
 Number of threads: 8

  Initial guess space is incomplete!
  Trying to add 18 determinant(s).  18 determinant(s) added.
  Initial guess found 49 solutions with 2S+1 = 1 *
  Initial guess found 55 solutions with 2S+1 = 3  
  Initial guess found 14 solutions with 2S+1 = 5  
  Adding guess 0 (multiplicity = 1.000000)
  Adding guess 1 (multiplicity = 1.000000)

  ==> Diagonalizing Hamiltonian <==

  ----------------------------------------
    Iter.      Avg. Energy       Delta_E
  ----------------------------------------
      1     -405.564289787053  -4.056e+02
      2     -405.611512798936  -4.722e-02
      3     -405.619321025110  -7.808e-03
      4     -405.620468264365  -1.147e-03
      5     -405.620808670825  -3.404e-04
      6     -405.620850617094  -4.195e-05
      7     -405.620863488096  -1.287e-05
      8     -405.620867084609  -3.597e-06
      9     -405.620868342261  -1.258e-06
     10     -405.620868664858  -3.226e-07
     11     -405.620868762206  -9.735e-08
     12     -405.620868791595  -2.939e-08
     13     -405.620868803203  -1.161e-08
     14     -405.620868806944  -3.741e-09
     15     -405.620868808262  -1.319e-09
     16     -405.620868808735  -4.732e-10
     17     -405.620868808927  -1.915e-10
     18     -405.620868808990  -6.338e-11
  ----------------------------------------
  The Davidson-Liu algorithm converged in 19 iterations.
  Davidson-Liu procedure took  0.126161 s
  Total time spent diagonalizing H:   0.424940 s

    PQ-space CI Energy Root   0        = -305.077447919483 Eh =   0.0000 eV
    PQ-space CI Energy + EPT2 Root   0 = -305.078444695952 Eh =   0.0000 eV


  Most important contributions to root   0:
    0   0.868754 0.754733290         281 |22220000>
    1  -0.194942 0.038002234         280 |22202000>
    2   0.103959 0.010807434         278 |22-++-00>
    3   0.103959 0.010807434         279 |22+--+00>
    4  -0.093449 0.008732773         277 |22020200>
    5   0.079629 0.006340719         274 |+22--00+>
    6   0.079629 0.006340719         273 |-22++00->
    7  -0.079087 0.006254695         275 |2-2++0-0>
    8  -0.079087 0.006254695         276 |2+2--0+0>
    9   0.075467 0.005695193         272 |22+-+-00>

  Spin state for root 0: S^2 = 0.000000, S = 0.000, singlet
  Cycle 1 took: 0.821912 s

  ==> Cycle 2 <==

  Initial P space dimension: 686
  Spin-complete dimension of the P space: 1038 determinants

  Davidson-Liu solver algorithm with dynamic sigma builds

 SigmaVectorDynamic:
 Maximum memory   : 10000000 double
 Number of threads: 8

  Initial guess space is incomplete!
  Trying to add 18 determinant(s).  18 determinant(s) added.
  Initial guess found 49 solutions with 2S+1 = 1 *
  Initial guess found 55 solutions with 2S+1 = 3  
  Initial guess found 14 solutions with 2S+1 = 5  
  Adding guess 0 (multiplicity = 1.000000)
  Adding guess 1 (multiplicity = 1.000000)

  ==> Diagonalizing Hamiltonian <==

  ----------------------------------------
    Iter.      Avg. Energy       Delta_E
  ----------------------------------------
      1     -405.564289787053  -4.056e+02
      2     -405.611044299603  -4.675e-02
      3     -405.618606915985  -7.563e-03
      4     -405.619663543234  -1.057e-03
      5     -405.619984119095  -3.206e-04
      6     -405.620025624426  -4.151e-05
      7     -405.620037972793  -1.235e-05
      8     -405.620041118563  -3.146e-06
      9     -405.620042063153  -9.446e-07
     10     -405.620042280080  -2.169e-07
     11     -405.620042341286  -6.121e-08
     12     -405.620042357738  -1.645e-08
     13     -405.620042363404  -5.666e-09
     14     -405.620042365115  -1.711e-09
     15     -405.620042365695  -5.793e-10
     16     -405.620042365884  -1.888e-10
     17     -405.620042365952  -6.798e-11
  ----------------------------------------
  The Davidson-Liu algorithm converged in 18 iterations.
  Davidson-Liu procedure took  0.100042 s
  Time spent diagonalizing H:   0.395786 s

    P-space  CI Energy Root   0        = -305.076621476445 Eh =   0.0000 eV

  Using batched Q_space algorithm
  Setting nbin to 1 based on estimated memory ( 6.138 MB)
  Overwriting nbin to 4 based on user input
 -----------------------------------------
                Bin 0
  Build: 0.007462
  Merge: 0.007536
  Correlation ignored: 0.000000000000
    Build F                  0.015899 
    Build criteria vector    0.000634
    Sort vector              0.000095
    Screening                0.000027
    Added 79 dets of 888 from bin 0
                Bin 1
  Build: 0.006480
  Merge: 0.008500
  Correlation ignored: 0.000000000000
    Build F                  0.015874 
    Build criteria vector    0.000592
    Sort vector              0.000093
    Screening                0.000026
    Added 163 dets of 887 from bin 1
                Bin 2
  Build: 0.006660
  Merge: 0.017421
  Correlation ignored: 0.000000000000
    Build F                  0.024962 
    Build criteria vector    0.000563
    Sort vector              0.000122
    Screening                0.000008
    Added 212 dets of 840 from bin 2
                Bin 3
  Build: 0.009045
  Merge: 0.006554
  Correlation ignored: 0.000000000000
    Build F                  0.016764 
    Build criteria vector    0.000704
    Sort vector              0.000096
    Screening                0.000015
    Added 281 dets of 873 from bin 3
 ------------------------------------
  Screened out 0.0004954566 Eh of correlation
  Dimension of the truncated SD space: 281 determinants
  Time spent building the external space (default): 0.077252 s

  Time spent sorting: 0.000047
  Added 1 missing determinants in aimed selection.
  Time spent selecting: 0.000054
  Dimension of the P + Q space: 1174 determinants
  Time spent screening the model space: 0.000081 s
  Time spent building the model space: 0.077556
  Spin-complete dimension of the PQ space: 1286

  Davidson-Liu solver algorithm with dynamic sigma builds

 SigmaVectorDynamic:
 Maximum memory   : 10000000 double
 Number of threads: 8

  Initial guess space is incomplete!
  Trying to add 18 determinant(s).  18 determinant(s) added.
  Initial guess found 49 solutions with 2S+1 = 1 *
  Initial guess found 55 solutions with 2S+1 = 3  
  Initial guess found 14 solutions with 2S+1 = 5  
  Adding guess 0 (multiplicity = 1.000000)
  Adding guess 1 (multiplicity = 1.000000)

  ==> Diagonalizing Hamiltonian <==

  ----------------------------------------
    Iter.      Avg. Energy       Delta_E
  ----------------------------------------
      1     -405.564289787053  -4.056e+02
      2     -405.611571942216  -4.728e-02
      3     -405.619614034955  -8.042e-03
      4     -405.620867573230  -1.254e-03
      5     -405.621267927701  -4.004e-04
      6     -405.621313896140  -4.597e-05
      7     -405.621326989846  -1.309e-05
      8     -405.621330856321  -3.866e-06
      9     -405.621332373890  -1.518e-06
     10     -405.621332766916  -3.930e-07
     11     -405.621332879707  -1.128e-07
     12     -405.621332915300  -3.559e-08
     13     -405.621332930287  -1.499e-08
     14     -405.621332934964  -4.677e-09
     15     -405.621332936550  -1.586e-09
     16     -405.621332937148  -5.979e-10
     17     -405.621332937411  -2.631e-10
     18     -405.621332937498  -8.703e-11
  ----------------------------------------
  The Davidson-Liu algorithm converged in 19 iterations.
  Davidson-Liu procedure took  0.135203 s
  Total time spent diagonalizing H:   0.440343 s

    PQ-space CI Energy Root   0        = -305.077912047991 Eh =   0.0000 eV
    PQ-space CI Energy + EPT2 Root   0 = -305.078907559684 Eh =   0.0000 eV


  Most important contributions to root   0:
    0   0.868036 0.753487338         685 |22220000>
    1  -0.194213 0.037718521         684 |22202000>
    2   0.103957 0.010807155         683 |22-++-00>
    3   0.103957 0.010807155         682 |22+--+00>
    4  -0.093189 0.008684220         681 |22020200>
    5   0.079809 0.006369459         680 |+22--00+>
    6   0.079809 0.006369459         679 |-22++00->
    7  -0.079011 0.006242783         678 |2-2++0-0>
    8  -0.079011 0.006242783         677 |2+2--0+0>
    9   0.075551 0.005707883         676 |22+-+-00>

  Spin state for root 0: S^2 = 0.000000, S = 0.000, singlet
  Cycle 2 took: 0.930912 s

  ==> Cycle 3 <==

  Initial P space dimension: 733
  Spin-complete dimension of the P space: 1125 determinants

  Davidson-Liu solver algorithm with dynamic sigma builds

 SigmaVectorDynamic:
 Maximum memory   : 10000000 double
 Number of threads: 8

  Initial guess space is incomplete!
  Trying to add 18 determinant(s).  18 determinant(s) added.
  Initial guess found 49 solutions with 2S+1 = 1 *
  Initial guess found 55 solutions with 2S+1 = 3  
  Initial guess found 14 solutions with 2S+1 = 5  
  Adding guess 0 (multiplicity = 1.000000)
  Adding guess 1 (multiplicity = 1.000000)

  ==> Diagonalizing Hamiltonian <==

  ----------------------------------------
    Iter.      Avg. Energy       Delta_E
  ----------------------------------------
      1     -405.564289787053  -4.056e+02
      2     -405.611256256025  -4.697e-02
      3     -405.618939738439  -7.683e-03
      4     -405.620096971430  -1.157e-03
      5     -405.620460465828  -3.635e-04
      6     -405.620506153191  -4.569e-05
      7     -405.620519152302  -1.300e-05
      8     -405.620522723057  -3.571e-06
      9     -405.620523930543  -1.207e-06
     10     -405.620524214305  -2.838e-07
     11     -405.620524292546  -7.824e-08
     12     -405.620524315174  -2.263e-08
     13     -405.620524323759  -8.585e-09
     14     -405.620524326345  -2.586e-09
     15     -405.620524327198  -8.530e-10
     16     -405.620524327492  -2.942e-10
     17     -405.620524327608  -1.157e-10
     18     -405.620524327644  -3.644e-11
  ----------------------------------------
  The Davidson-Liu algorithm converged in 19 iterations.
  Davidson-Liu procedure took  0.116129 s
  Time spent diagonalizing H:   0.411512 s

    P-space  CI Energy Root   0        = -305.077103438137 Eh =   0.0000 eV

  Using batched Q_space algorithm
  Setting nbin to 1 based on estimated memory ( 6.653 MB)
  Overwriting nbin to 4 based on user input
 -----------------------------------------
                Bin 0
  Build: 0.015485
  Merge: 0.000290
  Correlation ignored: 0.000000000000
    Build F                  0.016606 
    Build criteria vector    0.000658
    Sort vector              0.000139
    Screening                0.000016
    Added 63 dets of 864 from bin 0
                Bin 1
  Build: 0.008131
  Merge: 0.008983
  Correlation ignored: 0.000000000000
    Build F                  0.018466 
    Build criteria vector    0.000928
    Sort vector              0.000104
    Screening                0.000017
    Added 119 dets of 854 from bin 1
                Bin 2
  Build: 0.009903
  Merge: 0.011933
  Correlation ignored: 0.000000000000
    Build F                  0.026101 
    Build criteria vector    0.000570
    Sort vector              0.000082
    Screening                0.000013
    Added 160 dets of 834 from bin 2
                Bin 3
  Build: 0.009117
  Merge: 0.006931
  Correlation ignored: 0.000000000000
    Build F                  0.017347 
    Build criteria vector    0.001010
    Sort vector              0.000104
    Screening                0.000010
    Added 222 dets of 863 from bin 3
 ------------------------------------
  Screened out 0.0004952869 Eh of correlation
  Dimension of the truncated SD space: 222 determinants
  Time spent building the external space (default): 0.083213 s

  Time spent sorting: 0.000038
  Added 1 missing determinants in aimed selection.
  Time spent selecting: 0.000046
  Dimension of the P + Q space: 1212 determinants
  Time spent screening the model space: 0.000072 s
  Time spent building the model space: 0.083412
  Spin-complete dimension of the PQ space: 1280

  Davidson-Liu solver algorithm with dynamic sigma builds

 SigmaVectorDynamic:
 Maximum memory   : 10000000 double
 Number of threads: 8

  Initial guess space is incomplete!
  Trying to add 18 determinant(s).  18 determinant(s) added.
  Initial guess found 49 solutions with 2S+1 = 1 *
  Initial guess found 55 solutions with 2S+1 = 3  
  Initial guess found 14 solutions with 2S+1 = 5  
  Adding guess 0 (multiplicity = 1.000000)
  Adding guess 1 (multiplicity = 1.000000)

  ==> Diagonalizing Hamiltonian <==

  ----------------------------------------
    Iter.      Avg. Energy       Delta_E
  ----------------------------------------
      1     -405.564289787053  -4.056e+02
      2     -405.611496225624  -4.721e-02
      3     -405.619561715475  -8.065e-03
      4     -405.620837239245  -1.276e-03
      5     -405.621254235351  -4.170e-04
      6     -405.621302848960  -4.861e-05
      7     -405.621316406253  -1.356e-05
      8     -405.621320413937  -4.008e-06
      9     -405.621321996443  -1.583e-06
     10     -405.621322404662  -4.082e-07
     11     -405.621322520282  -1.156e-07
     12     -405.621322556886  -3.660e-08
     13     -405.621322572338  -1.545e-08
     14     -405.621322577105  -4.766e-09
     15     -405.621322578695  -1.591e-09
     16     -405.621322579294  -5.987e-10
     17     -405.621322579557  -2.632e-10
     18     -405.621322579643  -8.589e-11
  ----------------------------------------
  The Davidson-Liu algorithm converged in 19 iterations.
  Davidson-Liu procedure took  0.131513 s
  Total time spent diagonalizing H:   0.441106 s

    PQ-space CI Energy Root   0        = -305.077901690136 Eh =   0.0000 eV
    PQ-space CI Energy + EPT2 Root   0 = -305.078896689899 Eh =   0.0000 eV


  Most important contributions to root   0:
    0   0.867977 0.753384326         732 |22220000>
    1  -0.194298 0.037751748         731 |22202000>
    2   0.103938 0.010803116         730 |22-++-00>
    3   0.103938 0.010803116         729 |22+--+00>
    4  -0.093059 0.008660044         728 |22020200>
    5   0.079812 0.006369958         727 |+22--00+>
    6   0.079812 0.006369958         726 |-22++00->
    7  -0.078982 0.006238190         725 |2-2++0-0>
    8  -0.078982 0.006238190         724 |2+2--0+0>
    9   0.075611 0.005717071         723 |22+-+-00>

  Spin state for root 0: S^2 = 0.000000, S = 0.000, singlet
  Cycle 3 took: 0.954005 s

  ==> Cycle 4 <==

  Initial P space dimension: 733
  Spin-complete dimension of the P space: 1125 determinants

  Davidson-Liu solver algorithm with dynamic sigma builds

 SigmaVectorDynamic:
 Maximum memory   : 10000000 double
 Number of threads: 8

  Initial guess space is incomplete!
  Trying to add 18 determinant(s).  18 determinant(s) added.
  Initial guess found 49 solutions with 2S+1 = 1 *
  Initial guess found 55 solutions with 2S+1 = 3  
  Initial guess found 14 solutions with 2S+1 = 5  
  Adding guess 0 (multiplicity = 1.000000)
  Adding guess 1 (multiplicity = 1.000000)

  ==> Diagonalizing Hamiltonian <==

  ----------------------------------------
    Iter.      Avg. Energy       Delta_E
  ----------------------------------------
      1     -405.564289787053  -4.056e+02
      2     -405.611256256025  -4.697e-02
      3     -405.618939738439  -7.683e-03
      4     -405.620096971430  -1.157e-03
      5     -405.620460465828  -3.635e-04
      6     -405.620506153191  -4.569e-05
      7     -405.620519152302  -1.300e-05
      8     -405.620522723057  -3.571e-06
      9     -405.620523930543  -1.207e-06
     10     -405.620524214305  -2.838e-07
     11     -405.620524292546  -7.824e-08
     12     -405.620524315174  -2.263e-08
     13     -405.620524323759  -8.585e-09
     14     -405.620524326345  -2.586e-09
     15     -405.620524327198  -8.528e-10
     16     -405.620524327492  -2.943e-10
     17     -405.620524327608  -1.156e-10
     18     -405.620524327644  -3.644e-11
  ----------------------------------------
  The Davidson-Liu algorithm converged in 19 iterations.
  Davidson-Liu procedure took  0.134395 s
  Time spent diagonalizing H:   0.449224 s

    P-space  CI Energy Root   0        = -305.077103438137 Eh =   0.0000 eV

  Using batched Q_space algorithm
  Setting nbin to 1 based on estimated memory ( 6.653 MB)
  Overwriting nbin to 4 based on user input
 -----------------------------------------
                Bin 0
  Build: 0.017178
  Merge: 0.000071
  Correlation ignored: 0.000000000000
    Build F                  0.018092 
    Build criteria vector    0.000579
    Sort vector              0.000085
    Screening                0.000016
    Added 63 dets of 864 from bin 0
                Bin 1
  Build: 0.008885
  Merge: 0.007937
  Correlation ignored: 0.000000000000
    Build F                  0.018201 
    Build criteria vector    0.000837
    Sort vector              0.000093
    Screening                0.000014
    Added 119 dets of 854 from bin 1
                Bin 2
  Build: 0.018177
  Merge: 0.005816
  Correlation ignored: 0.000000000000
    Build F                  0.025517 
    Build criteria vector    0.000657
    Sort vector              0.000096
    Screening                0.000012
    Added 160 dets of 834 from bin 2
                Bin 3
  Build: 0.007067
  Merge: 0.007684
  Correlation ignored: 0.000000000000
    Build F                  0.015526 
    Build criteria vector    0.000574
    Sort vector              0.000096
    Screening                0.000009
    Added 222 dets of 863 from bin 3
 ------------------------------------
  Screened out 0.0004952869 Eh of correlation
  Dimension of the truncated SD space: 222 determinants
  Time spent building the external space (default): 0.081569 s

  Time spent sorting: 0.000048
  Added 1 missing determinants in aimed selection.
  Time spent selecting: 0.000066
  Dimension of the P + Q space: 1212 determinants
  Time spent screening the model space: 0.000119 s
  Time spent building the model space: 0.081887
  Spin-complete dimension of the PQ space: 1280

  Davidson-Liu solver algorithm with dynamic sigma builds

 SigmaVectorDynamic:
 Maximum memory   : 10000000 double
 Number of threads: 8

  Initial guess space is incomplete!
  Trying to add 18 determinant(s).  18 determinant(s) added.
  Initial guess found 49 solutions with 2S+1 = 1 *
  Initial guess found 55 solutions with 2S+1 = 3  
  Initial guess found 14 solutions with 2S+1 = 5  
  Adding guess 0 (multiplicity = 1.000000)
  Adding guess 1 (multiplicity = 1.000000)

  ==> Diagonalizing Hamiltonian <==

  ----------------------------------------
    Iter.      Avg. Energy       Delta_E
  ----------------------------------------
      1     -405.564289787053  -4.056e+02
      2     -405.611496225624  -4.721e-02
      3     -405.619561715475  -8.065e-03
      4     -405.620837239245  -1.276e-03
      5     -405.621254235351  -4.170e-04
      6     -405.621302848960  -4.861e-05
      7     -405.621316406253  -1.356e-05
      8     -405.621320413937  -4.008e-06
      9     -405.621321996443  -1.583e-06
     10     -405.621322404662  -4.082e-07
     11     -405.621322520282  -1.156e-07
     12     -405.621322556886  -3.660e-08
     13     -405.621322572339  -1.545e-08
     14     -405.621322577105  -4.766e-09
     15     -405.621322578695  -1.590e-09
     16     -405.621322579294  -5.988e-10
     17     -405.621322579557  -2.635e-10
     18     -405.621322579643  -8.589e-11
  ----------------------------------------
  The Davidson-Liu algorithm converged in 19 iterations.
  Davidson-Liu procedure took  0.131095 s
  Total time spent diagonalizing H:   0.436814 s

    PQ-space CI Energy Root   0        = -305.077901690137 Eh =   0.0000 eV
    PQ-space CI Energy + EPT2 Root   0 = -305.078896689900 Eh =   0.0000 eV

  ***** Calculation Converged *****
  Saving root 0, ref_root is 0
  Number of old roots: 1

  ==> ACI Summary <==

  Iterations required:                         4
  Dimension of optimized determinant space:    1280

  * Adaptive-CI Energy Root   0        = -305.077901690137 Eh =   0.0000 eV
  * Adaptive-CI Energy Root   0 + EPT2 = -305.078896689900 Eh =   0.0000 eV

  ==> Wavefunction Information <==

  Most important contributions to root   0:
    0   0.867977 0.753384326         732 |22220000>
    1  -0.194298 0.037751748         731 |22202000>
    2   0.103938 0.010803116         730 |22-++-00>
    3   0.103938 0.010803116         729 |22+--+00>
    4  -0.093059 0.008660044         728 |22020200>
    5   0.079812 0.006369958         727 |+22--00+>
    6   0.079812 0.006369958         726 |-22++00->
    7  -0.078982 0.006238190         725 |2-2++0-0>
    8  -0.078982 0.006238190         724 |2+2--0+0>
    9   0.075611 0.005717071         723 |22+-+-00>

  Spin state for root 0: S^2 = 0.000000, S = 0.000, singlet
  Diag takes 0.008680
 all alpha takes 0.031325
 all beta takes 0.027049
  2dif: 0.051735  
  4dif: 0.027854
 all alpha/beta takes 0.080040

  ==> NATURAL ORBITALS <==

        1A      1.922094      2A      1.902605      3A      1.860987  
        4A      1.779353      5A      0.224866      6A      0.139353  
        7A      0.095540      8A      0.075201  


  RDMS took 0.161796

  Adaptive-CI ran in : 4.600018 s

  Saving information for root: 0
  energy: -305.077901690

       -----------------------------------------------------------------
                            Semi-Canonical Orbitals
         Chenyang Li, Jeffrey B. Schriber and Francesco A. Evangelista
       -----------------------------------------------------------------

  Took 0.163578 s to build Fock matrix

  ==> Checking Fock Matrix Diagonal Blocks <==

    Off-Diag. Elements       Max           2-Norm
    ------------------------------------------------
    Fa actv              0.0042942368   0.0114917483
    Fb actv              0.0042942368   0.0114917483
    ------------------------------------------------
    Fa core              0.0007210754   0.0031844351
    Fb core              0.0007210754   0.0031844351
    ------------------------------------------------
    Fa virt              0.0011085142   0.0048237229
    Fb virt              0.0011085142   0.0048237229
    ------------------------------------------------

  ==> Integral Transformation to Semicanonical Basis <==
    Molecular point group: c1
    Full point group: Cs

    Geometry (in Angstrom), charge = 0, multiplicity = 1:

       Center              X                  Y                   Z               Mass       
    ------------   -----------------  -----------------  -----------------  -----------------
           C          0.335863347908    -0.638024351991     0.000000000207    12.000000000000
           H          1.432938644893    -0.620850793123     0.000000000280     1.007825032070
           C         -0.296842800370    -1.839541056853     0.000000000164    12.000000000000
           H         -1.393739522764    -1.860704439495     0.000000000280     1.007825032070
           C          0.383204758655    -3.118962138239     0.000000000233    12.000000000000
           H          1.479554406702    -3.087254985300     0.000000001289     1.007825032070
           C         -0.237579194060    -4.313790051647    -0.000000000740    12.000000000000
           H          0.325161338012    -5.249189944735    -0.000000000503     1.007825032070
           H         -1.329245280272    -4.386987205251    -0.000000001655     1.007825032070
           C         -0.335863360640     0.638024352182     0.000000000468    12.000000000000
           H         -1.432938656420     0.620850793004     0.000000000922     1.007825032070
           C          0.296842792408     1.839541055584     0.000000000041    12.000000000000
           H          1.393739512934     1.860704430863    -0.000000000539     1.007825032070
           C         -0.383204755743     3.118962141979     0.000000000141    12.000000000000
           H         -1.479554404938     3.087254999541     0.000000000472     1.007825032070
           C          0.237579209937     4.313790049182    -0.000000000431    12.000000000000
           H          1.329245296894     4.386987192215    -0.000000001010     1.007825032070
           H         -0.325161312367     5.249189949931    -0.000000000534     1.007825032070

  -AO BASIS SET INFORMATION:
    Name                   = STO-3G
    Blend                  = STO-3G
    Total number of shells = 34
    Number of primitives   = 102
    Number of AO           = 50
    Number of SO           = 50
    Maximum AM             = 1
    Spherical Harmonics    = TRUE

  -Contraction Scheme:
    Atom   Type   All Primitives // Shells:
   ------ ------ --------------------------
       1     C     6s 3p // 2s 1p 
       2     H     3s // 1s 
       3     C     6s 3p // 2s 1p 
       4     H     3s // 1s 
       5     C     6s 3p // 2s 1p 
       6     H     3s // 1s 
       7     C     6s 3p // 2s 1p 
       8     H     3s // 1s 
       9     H     3s // 1s 
      10     C     6s 3p // 2s 1p 
      11     H     3s // 1s 
      12     C     6s 3p // 2s 1p 
      13     H     3s // 1s 
      14     C     6s 3p // 2s 1p 
      15     H     3s // 1s 
      16     C     6s 3p // 2s 1p 
      17     H     3s // 1s 
      18     H     3s // 1s 

  ==> AO Basis Functions <==

    [ STO-3G ]
    spherical
    ****
    C   1
    S   3 1.00
                        71.61683700           0.15432897
                        13.04509600           0.53532814
                         3.53051220           0.44463454
    S   3 1.00
                         2.94124940          -0.09996723
                         0.68348310           0.39951283
                         0.22228990           0.70011547
    P   3 1.00
                         2.94124940           0.15591627
                         0.68348310           0.60768372
                         0.22228990           0.39195739
    ****
    H   2
    S   3 1.00
                         3.42525091           0.15432897
                         0.62391373           0.53532814
                         0.16885540           0.44463454
    ****
    C   3
    S   3 1.00
                        71.61683700           0.15432897
                        13.04509600           0.53532814
                         3.53051220           0.44463454
    S   3 1.00
                         2.94124940          -0.09996723
                         0.68348310           0.39951283
                         0.22228990           0.70011547
    P   3 1.00
                         2.94124940           0.15591627
                         0.68348310           0.60768372
                         0.22228990           0.39195739
    ****
    H   4
    S   3 1.00
                         3.42525091           0.15432897
                         0.62391373           0.53532814
                         0.16885540           0.44463454
    ****
    C   5
    S   3 1.00
                        71.61683700           0.15432897
                        13.04509600           0.53532814
                         3.53051220           0.44463454
    S   3 1.00
                         2.94124940          -0.09996723
                         0.68348310           0.39951283
                         0.22228990           0.70011547
    P   3 1.00
                         2.94124940           0.15591627
                         0.68348310           0.60768372
                         0.22228990           0.39195739
    ****
    H   6
    S   3 1.00
                         3.42525091           0.15432897
                         0.62391373           0.53532814
                         0.16885540           0.44463454
    ****
    C   7
    S   3 1.00
                        71.61683700           0.15432897
                        13.04509600           0.53532814
                         3.53051220           0.44463454
    S   3 1.00
                         2.94124940          -0.09996723
                         0.68348310           0.39951283
                         0.22228990           0.70011547
    P   3 1.00
                         2.94124940           0.15591627
                         0.68348310           0.60768372
                         0.22228990           0.39195739
    ****
    H   8
    S   3 1.00
                         3.42525091           0.15432897
                         0.62391373           0.53532814
                         0.16885540           0.44463454
    ****
    H   9
    S   3 1.00
                         3.42525091           0.15432897
                         0.62391373           0.53532814
                         0.16885540           0.44463454
    ****
    C  10
    S   3 1.00
                        71.61683700           0.15432897
                        13.04509600           0.53532814
                         3.53051220           0.44463454
    S   3 1.00
                         2.94124940          -0.09996723
                         0.68348310           0.39951283
                         0.22228990           0.70011547
    P   3 1.00
                         2.94124940           0.15591627
                         0.68348310           0.60768372
                         0.22228990           0.39195739
    ****
    H  11
    S   3 1.00
                         3.42525091           0.15432897
                         0.62391373           0.53532814
                         0.16885540           0.44463454
    ****
    C  12
    S   3 1.00
                        71.61683700           0.15432897
                        13.04509600           0.53532814
                         3.53051220           0.44463454
    S   3 1.00
                         2.94124940          -0.09996723
                         0.68348310           0.39951283
                         0.22228990           0.70011547
    P   3 1.00
                         2.94124940           0.15591627
                         0.68348310           0.60768372
                         0.22228990           0.39195739
    ****
    H  13
    S   3 1.00
                         3.42525091           0.15432897
                         0.62391373           0.53532814
                         0.16885540           0.44463454
    ****
    C  14
    S   3 1.00
                        71.61683700           0.15432897
                        13.04509600           0.53532814
                         3.53051220           0.44463454
    S   3 1.00
                         2.94124940          -0.09996723
                         0.68348310           0.39951283
                         0.22228990           0.70011547
    P   3 1.00
                         2.94124940           0.15591627
                         0.68348310           0.60768372
                         0.22228990           0.39195739
    ****
    H  15
    S   3 1.00
                         3.42525091           0.15432897
                         0.62391373           0.53532814
                         0.16885540           0.44463454
    ****
    C  16
    S   3 1.00
                        71.61683700           0.15432897
                        13.04509600           0.53532814
                         3.53051220           0.44463454
    S   3 1.00
                         2.94124940          -0.09996723
                         0.68348310           0.39951283
                         0.22228990           0.70011547
    P   3 1.00
                         2.94124940           0.15591627
                         0.68348310           0.60768372
                         0.22228990           0.39195739
    ****
    H  17
    S   3 1.00
                         3.42525091           0.15432897
                         0.62391373           0.53532814
                         0.16885540           0.44463454
    ****
    H  18
    S   3 1.00
                         3.42525091           0.15432897
                         0.62391373           0.53532814
                         0.16885540           0.44463454
    ****


 Integrals are about to be computed.
 Computing Density fitted integrals 

 Number of auxiliary basis functions:  588
 Need 0.010952 GB to store DF integrals

  Computing DF Integrals               ......Done. Timing        0.074610 s
 Integrals are about to be updated.
  Frozen-core energy           -397.044911783775 a.u.

  FrozenOneBody Operator takes  1.37131600 s
  Resorting integrals after freezing core.
 Done with resorting
 Resorting integrals takes   0.06399200s
  Frozen Orbitals takes     1.442 s.

  ==> Reference Transformation to Semicanonical Basis <==

    Transformed 1 cumulants.
    Transformed 2 cumulants and RDMs.
    Transformed 3 cumulants.
  SemiCanonicalize takes 3.350402 s.

  ==> Multireference Driven Similarity Renormalization Group <==

    Reading DSRG options ............................ Done
    Setting ambit MO space .......................... Done
    Preparing tensors for density cumulants ......... Done
    Building Fock matrix ............................ Done
    Checking reference energy ....................... Done

                  --------------------------------------------
                      Density Fitted / Cholesky Decomposed
                    MR-DSRG Second-Order Perturbation Theory
                      Kevin Hannon and Chenyang (York) Li
                                8 threads (OMP)
                  --------------------------------------------

    References:
      u-DSRG-MRPT2:      J. Chem. Theory Comput. 2015, 11, 2097.
      DF/CD-DSRG-MRPT2:  J. Chem. Phys. 2016, 144, 204111.
      (pr-)DSRG-MRPT2:   J. Chem. Phys. 2017, 146, 124132.


  ==> Calculation Information <==

    Flow parameter                                 1.000e+10
    Taylor expansion threshold                     1.000e-03
    Cholesky tolerance                             1.000e-06
    Psi4 ref_type                                        RHF
    Integral type                                         DF
    Source operator                                 STANDARD
    CCVV algorithm                                 FLY_AMBIT
    CCVV source                                       NORMAL
    Reference relaxation                                NONE
    State type                                STATE-SPECIFIC

  ==> Checking Semicanonical Orbitals <==

    Abs. max of Fock core, active, virtual blocks (Fij, i != j)
                  core          active         virtual
    --------------------------------------------------
    F    0.0000000000    0.0000000000    0.0000000000
    F    0.0000000000    0.0000000000    0.0000000000
    --------------------------------------------------

    1-Norm of Fock core, active, virtual blocks (Fij, i != j)
                  core          active         virtual
    --------------------------------------------------
    F    0.0000000000    0.0000000000    0.0000000000
    F    0.0000000000    0.0000000000    0.0000000000
    --------------------------------------------------

    Orbitals are semi-canonicalized.

  ==> Computing DSRG-MRPT2 Energy <==

  Reference Energy = -305.077901690136457
    Computing T2                             ...... Done. Timing        0.103849 s
    Renormalizing V                          ...... Done. Timing        0.091565 s
    Computing T1                             ...... Done. Timing        0.003131 s
    Renormalizing F                          ...... Done. Timing        0.004086 s
    Computing <[F, T1]>                      ...... Done. Timing        0.001319 s
    Computing <[F, T2]>                      ...... Done. Timing        0.004253 s
    Computing <[V, T1]>                      ...... Done. Timing        0.003257 s
    Computing <[V, T2]> 4HH                  ...... Done. Timing        0.005054 s
    Computing <V, T2]> 4PP                   ...... Done. Timing        0.004860 s
    Computing [V, T2] 4PH                    ...... Done. Timing        0.024219 s
    Computing [V, T2] 3                     ...... Done. Timing        0.064167 s
    Computing <[V, T2]> (C_2)^4 (no ccvv)    ...... Done. Timing        0.021672 s
    Computing <[V, T2]> (C_2)^4 ccvv         ...... Done. Timing        0.025268 s
  Eccvv: -0.2177086598

  ==> DSRG-MRPT2 (DF/CD) Energy Summary <==

    E0 (reference)                 =   -305.077901690136457
    <[F, T1]>                      =     -0.000016917489446
    <[F, T2]>                      =      0.000000000000000
    <[V, T1]>                      =     -0.000000000000000
    <[V, T2]> C_4 (C_2)^2 HH       =      0.005491706837688
    <[V, T2]> C_4 (C_2)^2 PP       =      0.004395539935200
    <[V, T2]> C_4 (C_2)^2 PH       =      0.100267708745157
    <[V, T2]> C_6 C_2              =     -0.000000000000000
    <[V, T2]> (C_2)^4              =     -0.422266017991998
    <[V, T2]>                      =     -0.312111062473953
    DSRG-MRPT2 correlation energy  =     -0.312127979963399
    DSRG-MRPT2 total energy        =   -305.390029670099864
    max(T1)                        =      0.000645008782010
    ||T1||                         =      0.003322586221213

  ==> Total Timings (s) for Computing Commutators <==

             [H1, T1]    [H1, T2]    [H2, T1]    [H2, T2]
    -----------------------------------------------------
    -> C0       0.001       0.004       0.003       0.081
    -> C1       0.000       0.000       0.000       0.000
    -> C2                   0.000       0.000       0.000
    -----------------------------------------------------

 CD/DF DSRG-MRPT2 took  9.03121 s.	ACI-DSRG-MRPT2 energy.............................................PASSED

    Psi4 stopped on: Wednesday, 30 May 2018 11:20AM
    Psi4 wall time for execution: 0:00:15.21

*** Psi4 exiting successfully. Buy a developer a beer!
