
    -----------------------------------------------------------------------
          Psi4: An Open-Source Ab Initio Electronic Structure Package
                               Psi4 1.2a1.dev388 

                         Git: Rev {parallel_timer} df084d7 dirty


    R. M. Parrish, L. A. Burns, D. G. A. Smith, A. C. Simmonett,
    A. E. DePrince III, E. G. Hohenstein, U. Bozkaya, A. Yu. Sokolov,
    R. Di Remigio, R. M. Richard, J. F. Gonthier, A. M. James,
    H. R. McAlexander, A. Kumar, M. Saitow, X. Wang, B. P. Pritchard,
    P. Verma, H. F. Schaefer III, K. Patkowski, R. A. King, E. F. Valeev,
    F. A. Evangelista, J. M. Turney, T. D. Crawford, and C. D. Sherrill,
    J. Chem. Theory Comput. in press (2017).
    (doi: 10.1021/acs.jctc.7b00174)

    -----------------------------------------------------------------------


    Psi4 started on: Monday, 10 July 2017 06:24PM

    Process ID:  56927
    PSIDATADIR: /Users/tianyuanzhang/Documents/Source/psi4_2017/psi4-bin-clang-debug/share/psi4
    Memory:     500.0 MiB
    Threads:    1
    
  ==> Input File <==

--------------------------------------------------------------------------
#! This tests the Adaptive Path-Integral FCI procedure with dynamic prescreening
#! Generated using commit GITCOMMIT

import forte

refscf = -108.3243829450626947 #TEST
refpci = -108.638029874900 #TEST

molecule N2{
   N
   N 1 2.0000
}

set {
  basis cc-pVDZ
  scf_type pk
  e_convergence 12
  guess core
}

set forte {
  job_type pci_hashvec
  frozen_docc [1,0,0,0,0,1,0,0]
  frozen_uocc [4,1,2,2,1,5,2,2]
  pci_nroot 1
  charge 0
  pci_spawning_threshold 0.0001
  pci_ENERGY_ESTIMATE_FREQ 1
  pci_FAST_EVAR true
  pci_USE_INTER_NORM true
  pci_GENERATOR WALL-CHEBYSHEV
  MP2_NOS true
  pci_maxbeta 100000.00
  pci_e_convergence 12
  pci_STOP_HIGHER_NEW_LOW true
}

energy('scf')
compare_values(refscf, get_variable("CURRENT ENERGY"), 11, "SCF energy") #TEST

energy('forte')
compare_values(refpci, get_variable("PCI ENERGY"), 9, "PCI energy") #TEST
--------------------------------------------------------------------------
/Users/tianyuanzhang/Documents/Source/psi4_2017/forte/forte.so loaded.

*** tstart() called on n-ac-90-21.wireless.emory.edu
*** at Mon Jul 10 18:24:37 2017

   => Loading Basis Set <=

    Name: CC-PVDZ
    Role: ORBITAL
    Keyword: BASIS
    atoms 1-2 entry N          line   168 file /Users/tianyuanzhang/Documents/Source/psi4_2017/psi4-bin-clang-debug/share/psi4/basis/cc-pvdz.gbs 

    There are an even number of electrons - assuming singlet.
    Specify the multiplicity in the molecule input block.


         ---------------------------------------------------------
                                   SCF
            by Justin Turney, Rob Parrish, Andy Simmonett
                             and Daniel Smith
                              RHF Reference
                        1 Threads,    500 MiB Core
         ---------------------------------------------------------

  ==> Geometry <==

    Molecular point group: d2h
    Full point group: D_inf_h

    Geometry (in Angstrom), charge = 0, multiplicity = 1:

       Center              X                  Y                   Z               Mass       
    ------------   -----------------  -----------------  -----------------  -----------------
           N          0.000000000000     0.000000000000    -1.000000000000    14.003074004780
           N          0.000000000000     0.000000000000     1.000000000000    14.003074004780

  Running in d2h symmetry.

  Rotational constants: A = ************  B =      0.60193  C =      0.60193 [cm^-1]
  Rotational constants: A = ************  B =  18045.28794  C =  18045.28794 [MHz]
  Nuclear repulsion =   12.964841610454998

  Charge       = 0
  Multiplicity = 1
  Electrons    = 14
  Nalpha       = 7
  Nbeta        = 7

  ==> Algorithm <==

  SCF Algorithm Type is PK.
  DIIS enabled.
  MOM disabled.
  Fractional occupation disabled.
  Guess Type is CORE.
  Energy threshold   = 1.00e-12
  Density threshold  = 1.00e-06
  Integral threshold = 0.00e+00

  ==> Primary Basis <==

  Basis Set: CC-PVDZ
    Blend: CC-PVDZ
    Number of shells: 12
    Number of basis function: 28
    Number of Cartesian functions: 30
    Spherical Harmonics?: true
    Max angular momentum: 2

  ==> Pre-Iterations <==

   -------------------------------------------------------
    Irrep   Nso     Nmo     Nalpha   Nbeta   Ndocc  Nsocc
   -------------------------------------------------------
     Ag         7       7       0       0       0       0
     B1g        1       1       0       0       0       0
     B2g        3       3       0       0       0       0
     B3g        3       3       0       0       0       0
     Au         1       1       0       0       0       0
     B1u        7       7       0       0       0       0
     B2u        3       3       0       0       0       0
     B3u        3       3       0       0       0       0
   -------------------------------------------------------
    Total      28      28       7       7       7       0
   -------------------------------------------------------

  ==> Integral Setup <==

  Using in-core PK algorithm.
   Calculation information:
      Number of atoms:                   2
      Number of AO shells:              12
      Number of primitives:             44
      Number of atomic orbitals:        30
      Number of basis functions:        28

      Integral cutoff                 1.00e-12
      Number of threads:                 1

  Performing in-core PK
  Using 165242 doubles for integral storage.
  We computed 3081 shell quartets total.
  Whereas there are 3081 unique shell quartets.
  ==> DiskJK: Disk-Based J/K Matrices <==

    J tasked:                  Yes
    K tasked:                  Yes
    wK tasked:                  No
    Memory (MB):               375
    Schwarz Cutoff:          1E-12

    OpenMP threads:              1
  Minimum eigenvalue in the overlap matrix is 7.6048492079E-02.
  Using Symmetric Orthogonalization.

  SCF Guess: Core (One-Electron) Hamiltonian.

  ==> Iterations <==

                        Total Energy        Delta E     RMS |[F,P]|

   @RHF iter   1:  -102.98708156702818   -1.02987e+02   2.00808e-01 
   @RHF iter   2:  -107.77761215001175   -4.79053e+00   9.33986e-02 DIIS
   @RHF iter   3:  -108.30541220118701   -5.27800e-01   1.42986e-02 DIIS
   @RHF iter   4:  -108.32360370311024   -1.81915e-02   2.56157e-03 DIIS
   @RHF iter   5:  -108.32436599817984   -7.62295e-04   3.68920e-04 DIIS
   @RHF iter   6:  -108.32438261139218   -1.66132e-05   6.07933e-05 DIIS
   @RHF iter   7:  -108.32438294179082   -3.30399e-07   5.63997e-06 DIIS
   @RHF iter   8:  -108.32438294490098   -3.11016e-09   1.29267e-06 DIIS
   @RHF iter   9:  -108.32438294506068   -1.59702e-10   1.28121e-07 DIIS
   @RHF iter  10:  -108.32438294506258   -1.90425e-12   1.29241e-08 DIIS
   @RHF iter  11:  -108.32438294506265   -7.10543e-14   1.06214e-09 DIIS

  ==> Post-Iterations <==

    Orbital Energies (a.u.)
    -----------------------

    Doubly Occupied:                                                      

       1Ag   -15.745320     1B1u  -15.745266     2Ag    -1.065138  
       2B1u   -0.943611     1B3u   -0.522205     1B2g   -0.457360  
       1B2u   -0.381132  

    Virtual:                                                              

       3Ag    -0.073125     1B3g   -0.062139     3B1u    0.156972  
       2B3u    0.867903     2B2u    0.900471     4B1u    0.920278  
       4Ag     0.967439     2B2g    0.988895     2B3g    1.011525  
       5Ag     1.117837     5B1u    1.351779     6Ag     1.793185  
       3B2u    1.887323     3B3u    1.903496     1B1g    2.000680  
       7Ag     2.001015     6B1u    2.032133     1Au     2.032133  
       3B3g    2.132699     3B2g    2.144277     7B1u    2.624643  

    Final Occupation by Irrep:
             Ag   B1g   B2g   B3g    Au   B1u   B2u   B3u 
    DOCC [     2,    0,    1,    0,    0,    2,    1,    1 ]

  Energy converged.

  @RHF Final Energy:  -108.32438294506265

   => Energetics <=

    Nuclear Repulsion Energy =             12.9648416104549984
    One-Electron Energy =                -172.8583850526089805
    Two-Electron Energy =                  51.5691604970913176
    Total Energy =                       -108.3243829450626521



Properties will be evaluated at   0.000000,   0.000000,   0.000000 Bohr

Properties computed using the SCF density matrix

  Nuclear Dipole Moment: (a.u.)
     X:     0.0000      Y:     0.0000      Z:     0.0000

  Electronic Dipole Moment: (a.u.)
     X:     0.0000      Y:     0.0000      Z:     0.0000

  Dipole Moment: (a.u.)
     X:     0.0000      Y:     0.0000      Z:     0.0000     Total:     0.0000

  Dipole Moment: (Debye)
     X:     0.0000      Y:     0.0000      Z:     0.0000     Total:     0.0000


*** tstop() called on n-ac-90-21.wireless.emory.edu at Mon Jul 10 18:24:37 2017
Module time:
	user time   =       0.38 seconds =       0.01 minutes
	system time =       0.01 seconds =       0.00 minutes
	total time  =          0 seconds =       0.00 minutes
Total time:
	user time   =       0.38 seconds =       0.01 minutes
	system time =       0.01 seconds =       0.00 minutes
	total time  =          0 seconds =       0.00 minutes
	SCF energy........................................................PASSED

*** tstart() called on n-ac-90-21.wireless.emory.edu
*** at Mon Jul 10 18:24:37 2017

   => Loading Basis Set <=

    Name: CC-PVDZ
    Role: ORBITAL
    Keyword: BASIS
    atoms 1-2 entry N          line   168 file /Users/tianyuanzhang/Documents/Source/psi4_2017/psi4-bin-clang-debug/share/psi4/basis/cc-pvdz.gbs 


         ---------------------------------------------------------
                                   SCF
            by Justin Turney, Rob Parrish, Andy Simmonett
                             and Daniel Smith
                              RHF Reference
                        1 Threads,    500 MiB Core
         ---------------------------------------------------------

  ==> Geometry <==

    Molecular point group: d2h
    Full point group: D_inf_h

    Geometry (in Angstrom), charge = 0, multiplicity = 1:

       Center              X                  Y                   Z               Mass       
    ------------   -----------------  -----------------  -----------------  -----------------
           N          0.000000000000     0.000000000000    -1.000000000000    14.003074004780
           N          0.000000000000     0.000000000000     1.000000000000    14.003074004780

  Running in d2h symmetry.

  Rotational constants: A = ************  B =      0.60193  C =      0.60193 [cm^-1]
  Rotational constants: A = ************  B =  18045.28794  C =  18045.28794 [MHz]
  Nuclear repulsion =   12.964841610454998

  Charge       = 0
  Multiplicity = 1
  Electrons    = 14
  Nalpha       = 7
  Nbeta        = 7

  ==> Algorithm <==

  SCF Algorithm Type is PK.
  DIIS enabled.
  MOM disabled.
  Fractional occupation disabled.
  Guess Type is CORE.
  Energy threshold   = 1.00e-12
  Density threshold  = 1.00e-08
  Integral threshold = 0.00e+00

  ==> Primary Basis <==

  Basis Set: CC-PVDZ
    Blend: CC-PVDZ
    Number of shells: 12
    Number of basis function: 28
    Number of Cartesian functions: 30
    Spherical Harmonics?: true
    Max angular momentum: 2

  ==> Pre-Iterations <==

   -------------------------------------------------------
    Irrep   Nso     Nmo     Nalpha   Nbeta   Ndocc  Nsocc
   -------------------------------------------------------
     Ag         7       7       0       0       0       0
     B1g        1       1       0       0       0       0
     B2g        3       3       0       0       0       0
     B3g        3       3       0       0       0       0
     Au         1       1       0       0       0       0
     B1u        7       7       0       0       0       0
     B2u        3       3       0       0       0       0
     B3u        3       3       0       0       0       0
   -------------------------------------------------------
    Total      28      28       7       7       7       0
   -------------------------------------------------------

  ==> Integral Setup <==

  Using in-core PK algorithm.
   Calculation information:
      Number of atoms:                   2
      Number of AO shells:              12
      Number of primitives:             44
      Number of atomic orbitals:        30
      Number of basis functions:        28

      Integral cutoff                 1.00e-12
      Number of threads:                 1

  Performing in-core PK
  Using 165242 doubles for integral storage.
  We computed 3081 shell quartets total.
  Whereas there are 3081 unique shell quartets.
  ==> DiskJK: Disk-Based J/K Matrices <==

    J tasked:                  Yes
    K tasked:                  Yes
    wK tasked:                  No
    Memory (MB):               375
    Schwarz Cutoff:          1E-12

    OpenMP threads:              1
  Minimum eigenvalue in the overlap matrix is 7.6048492079E-02.
  Using Symmetric Orthogonalization.

  SCF Guess: Core (One-Electron) Hamiltonian.

  ==> Iterations <==

                        Total Energy        Delta E     RMS |[F,P]|

   @RHF iter   1:  -102.98708156702818   -1.02987e+02   2.00808e-01 
   @RHF iter   2:  -107.77761215001175   -4.79053e+00   9.33986e-02 DIIS
   @RHF iter   3:  -108.30541220118701   -5.27800e-01   1.42986e-02 DIIS
   @RHF iter   4:  -108.32360370311024   -1.81915e-02   2.56157e-03 DIIS
   @RHF iter   5:  -108.32436599817984   -7.62295e-04   3.68920e-04 DIIS
   @RHF iter   6:  -108.32438261139218   -1.66132e-05   6.07933e-05 DIIS
   @RHF iter   7:  -108.32438294179082   -3.30399e-07   5.63997e-06 DIIS
   @RHF iter   8:  -108.32438294490098   -3.11016e-09   1.29267e-06 DIIS
   @RHF iter   9:  -108.32438294506068   -1.59702e-10   1.28121e-07 DIIS
   @RHF iter  10:  -108.32438294506258   -1.90425e-12   1.29241e-08 DIIS
   @RHF iter  11:  -108.32438294506265   -7.10543e-14   1.06214e-09 DIIS

  ==> Post-Iterations <==

    Orbital Energies (a.u.)
    -----------------------

    Doubly Occupied:                                                      

       1Ag   -15.745320     1B1u  -15.745266     2Ag    -1.065138  
       2B1u   -0.943611     1B3u   -0.522205     1B2g   -0.457360  
       1B2u   -0.381132  

    Virtual:                                                              

       3Ag    -0.073125     1B3g   -0.062139     3B1u    0.156972  
       2B3u    0.867903     2B2u    0.900471     4B1u    0.920278  
       4Ag     0.967439     2B2g    0.988895     2B3g    1.011525  
       5Ag     1.117837     5B1u    1.351779     6Ag     1.793185  
       3B2u    1.887323     3B3u    1.903496     1B1g    2.000680  
       7Ag     2.001015     6B1u    2.032133     1Au     2.032133  
       3B3g    2.132699     3B2g    2.144277     7B1u    2.624643  

    Final Occupation by Irrep:
             Ag   B1g   B2g   B3g    Au   B1u   B2u   B3u 
    DOCC [     2,    0,    1,    0,    0,    2,    1,    1 ]

  Energy converged.

  @RHF Final Energy:  -108.32438294506265

   => Energetics <=

    Nuclear Repulsion Energy =             12.9648416104549984
    One-Electron Energy =                -172.8583850526089805
    Two-Electron Energy =                  51.5691604970913176
    Total Energy =                       -108.3243829450626521



Properties will be evaluated at   0.000000,   0.000000,   0.000000 Bohr

Properties computed using the SCF density matrix

  Nuclear Dipole Moment: (a.u.)
     X:     0.0000      Y:     0.0000      Z:     0.0000

  Electronic Dipole Moment: (a.u.)
     X:     0.0000      Y:     0.0000      Z:     0.0000

  Dipole Moment: (a.u.)
     X:     0.0000      Y:     0.0000      Z:     0.0000     Total:     0.0000

  Dipole Moment: (Debye)
     X:     0.0000      Y:     0.0000      Z:     0.0000     Total:     0.0000


*** tstop() called on n-ac-90-21.wireless.emory.edu at Mon Jul 10 18:24:38 2017
Module time:
	user time   =       0.38 seconds =       0.01 minutes
	system time =       0.02 seconds =       0.00 minutes
	total time  =          1 seconds =       0.02 minutes
Total time:
	user time   =       0.79 seconds =       0.01 minutes
	system time =       0.03 seconds =       0.00 minutes
	total time  =          1 seconds =       0.02 minutes
   => Loading Basis Set <=

    Name: STO-3G
    Role: ORBITAL
    Keyword: MINAO_BASIS
    atoms 1-2 entry N          line    71 file /Users/tianyuanzhang/Documents/Source/psi4_2017/psi4-bin-clang-debug/share/psi4/basis/sto-3g.gbs 


Reading options from the FORTE block
Calling plugin forte.so.



  Forte
  ----------------------------------------------------------------------------
  A suite of quantum chemistry methods for strongly correlated electrons

    git branch: master - git commit: 63976f22

  Developed by:
    Francesco A. Evangelista, Chenyang Li, Kevin P. Hannon,
    Jeffrey B. Schriber, Tianyuan Zhang, Chenxi Cai
  ----------------------------------------------------------------------------


  ==> MO Space Information <==

  Read options for space FROZEN_DOCC
  Read options for space FROZEN_UOCC
 Removing orbital 0
 Removing orbital 15
  -------------------------------------------------------------------------
                       Ag   B1g   B2g   B3g    Au   B1u   B2u   B3u   Sum
  -------------------------------------------------------------------------
    FROZEN_DOCC         1     0     0     0     0     1     0     0     2
    RESTRICTED_DOCC     0     0     0     0     0     0     0     0     0
    ACTIVE              2     0     1     1     0     1     1     1     7
    RESTRICTED_UOCC     0     0     0     0     0     0     0     0     0
    FROZEN_UOCC         4     1     2     2     1     5     2     2    19
    Total               7     1     3     3     1     7     3     3    28
  -------------------------------------------------------------------------

  ==> Integral Transformation <==

  Number of molecular orbitals:               28
  Number of correlated molecular orbitals:     7
  Number of frozen occupied orbitals:          2
  Number of frozen unoccupied orbitals:       19

    Molecular point group: d2h
    Full point group: D_inf_h

    Geometry (in Angstrom), charge = 0, multiplicity = 1:

       Center              X                  Y                   Z               Mass       
    ------------   -----------------  -----------------  -----------------  -----------------
           N          0.000000000000     0.000000000000    -1.000000000000    14.003074004780
           N          0.000000000000     0.000000000000     1.000000000000    14.003074004780

  -AO BASIS SET INFORMATION:
    Name                   = CC-PVDZ
    Blend                  = CC-PVDZ
    Total number of shells = 12
    Number of primitives   = 44
    Number of AO           = 30
    Number of SO           = 28
    Maximum AM             = 2
    Spherical Harmonics    = TRUE

  -Contraction Scheme:
    Atom   Type   All Primitives // Shells:
   ------ ------ --------------------------
       1     N     17s 4p 1d // 3s 2p 1d 
       2     N     17s 4p 1d // 3s 2p 1d 

  ==> AO Basis Functions <==

    [ CC-PVDZ ]
    spherical
    ****
    N   1
    S   8 1.00
                      9046.00000000           0.00070000
                      1357.00000000           0.00538900
                       309.30000000           0.02740600
                        87.73000000           0.10320700
                        28.56000000           0.27872300
                        10.21000000           0.44854000
                         3.83800000           0.27823800
                         0.74660000           0.01544000
    S   8 1.00
                      9046.00000000          -0.00015300
                      1357.00000000          -0.00120800
                       309.30000000          -0.00599200
                        87.73000000          -0.02454400
                        28.56000000          -0.06745900
                        10.21000000          -0.15807800
                         3.83800000          -0.12183100
                         0.74660000           0.54900300
    S   1 1.00
                         0.22480000           1.00000000
    P   3 1.00
                        13.55000000           0.03991900
                         2.91700000           0.21716900
                         0.79730000           0.51031900
    P   1 1.00
                         0.21850000           1.00000000
    D   1 1.00
                         0.81700000           1.00000000
    ****


  Overall Conventional Integrals timings

	Presorting SO-basis two-electron integrals.
	Sorting File: SO Ints (nn|nn) nbuckets = 1
	Transforming the one-electron integrals and constructing Fock matrices
	Starting first half-transformation.
	Sorting half-transformed integrals.
	First half integral transformation complete.
	Starting second half-transformation.
	Two-electron integral transformation complete.

  Integral transformation done. 0.02121200 s
  Reading the two-electron integrals from disk
  Size of two-electron integrals:   0.013739 GB  Using in-core PK algorithm.
   Calculation information:
      Number of atoms:                   2
      Number of AO shells:              12
      Number of primitives:             44
      Number of atomic orbitals:        30
      Number of basis functions:        28

      Integral cutoff                 1.00e-12
      Number of threads:                 1

  Performing in-core PK
  Using 165242 doubles for integral storage.
  We computed 3081 shell quartets total.
  Whereas there are 3081 unique shell quartets.

  Frozen-core energy            -95.815668971291 a.u.

  FrozenOneBody Operator takes  0.20911100 s
  Resorting integrals after freezing core.
  Conventional integrals take 0.43634300 s

                ------------------------------------------------
                  Second-Order Moller-Plesset Natural Orbitals
                      written by Francesco A. Evangelista
                ------------------------------------------------


    SCF energy                            = -108.324382945062652
    MP2 correlation energy                =   -0.083906514436969
  * MP2 total energy                      = -108.408289459499628

    Molecular point group: d2h
    Full point group: D_inf_h

    Geometry (in Angstrom), charge = 0, multiplicity = 1:

       Center              X                  Y                   Z               Mass       
    ------------   -----------------  -----------------  -----------------  -----------------
           N          0.000000000000     0.000000000000    -1.000000000000    14.003074004780
           N          0.000000000000     0.000000000000     1.000000000000    14.003074004780

  -AO BASIS SET INFORMATION:
    Name                   = CC-PVDZ
    Blend                  = CC-PVDZ
    Total number of shells = 12
    Number of primitives   = 44
    Number of AO           = 30
    Number of SO           = 28
    Maximum AM             = 2
    Spherical Harmonics    = TRUE

  -Contraction Scheme:
    Atom   Type   All Primitives // Shells:
   ------ ------ --------------------------
       1     N     17s 4p 1d // 3s 2p 1d 
       2     N     17s 4p 1d // 3s 2p 1d 

  ==> AO Basis Functions <==

    [ CC-PVDZ ]
    spherical
    ****
    N   1
    S   8 1.00
                      9046.00000000           0.00070000
                      1357.00000000           0.00538900
                       309.30000000           0.02740600
                        87.73000000           0.10320700
                        28.56000000           0.27872300
                        10.21000000           0.44854000
                         3.83800000           0.27823800
                         0.74660000           0.01544000
    S   8 1.00
                      9046.00000000          -0.00015300
                      1357.00000000          -0.00120800
                       309.30000000          -0.00599200
                        87.73000000          -0.02454400
                        28.56000000          -0.06745900
                        10.21000000          -0.15807800
                         3.83800000          -0.12183100
                         0.74660000           0.54900300
    S   1 1.00
                         0.22480000           1.00000000
    P   3 1.00
                        13.55000000           0.03991900
                         2.91700000           0.21716900
                         0.79730000           0.51031900
    P   1 1.00
                         0.21850000           1.00000000
    D   1 1.00
                         0.81700000           1.00000000
    ****


 Integrals are about to be computed.	Presorting SO-basis two-electron integrals.
	Sorting File: SO Ints (nn|nn) nbuckets = 1
	Transforming the one-electron integrals and constructing Fock matrices
	Starting first half-transformation.
	Sorting half-transformed integrals.
	First half integral transformation complete.
	Starting second half-transformation.
	Two-electron integral transformation complete.

  Integral transformation done. 0.02159600 s
  Reading the two-electron integrals from disk
  Size of two-electron integrals:   0.013739 GB
 Integrals are about to be updated.  Using in-core PK algorithm.
   Calculation information:
      Number of atoms:                   2
      Number of AO shells:              12
      Number of primitives:             44
      Number of atomic orbitals:        30
      Number of basis functions:        28

      Integral cutoff                 1.00e-12
      Number of threads:                 1

  Performing in-core PK
  Using 165242 doubles for integral storage.
  We computed 3081 shell quartets total.
  Whereas there are 3081 unique shell quartets.

  Frozen-core energy            -95.815668971291 a.u.

  FrozenOneBody Operator takes  0.21084900 s
  Resorting integrals after freezing core.
  Frozen Orbitals takes     0.219 s.

	  ---------------------------------------------------------
	    Projector Configuration Interaction HashVector implementation
	         by Francesco A. Evangelista and Tianyuan Zhang
	                      version Jun. 29 2017
	                       1 thread(s) 
	  ---------------------------------------------------------

  ==> Calculation Information <==

    Symmetry                                         0
    Multiplicity                                     1
    Number of roots                                  1
    Root used for properties                         0
    Maximum number of iterations                100000
    Energy estimation frequency                      1
    Number of threads                                1
    Time step (beta)                         1.000e+00
    Spawning threshold                       1.000e-04
    Initial guess spawning threshold         1.000e-03
    Convergence threshold                    1.000e-12
    Energy estimate tollerance               1.000e-06
    Generator type                          Wall-Chebyshev
    Shift the energy                                NO
    Use intermediate normalization                 YES
    Fast variational estimate                      YES
    Result perturbation analysis                    NO
    Using OpenMP                                    NO

  ==> Initial Guess <==

  Initial guess size = 17
  Found 13 roots with 2S+1 = 1 *
  Found 3 roots with 2S+1 = 3
  Found 1 roots with 2S+1 = 5

  Initial guess energy (variational) =    -108.480325638384 Eh (root = 1)

  Most important contributions to the wave function:

    0      -0.687155      0.472181           5 |2200222>   -121.265271538778
    1       0.508277      0.258345           2 |2220220>   -121.131894506178
    2       0.417188      0.174046           4 |2002222>   -121.249457759062
    3      -0.305475     0.0933148           3 |2022220>   -121.111272018306
    4      0.0359058    0.00128923          11 |2220202>   -121.394753683053
    5     -0.0196141   0.000384712           0 |2020222>   -121.289224555518
    6      0.0167562   0.000280769           7 |2220022>   -120.270373964085
    7    -0.00984363   9.68971e-05           6 |2022022>   -120.253484121149
    8     0.00749749   5.62124e-05          10 |2022202>   -121.137726860748
    9     0.00119546   1.42912e-06           8 |0220222>   -120.029570811869

  Spin State: S^2 = 0.000, S = 0.000, singlet (from 4 determinants,99.79)

  ==> Estimate highest excitation energy <==
  Highest Excited determinant:
  |0222022>
  Determinant Energy                    :  -106.252919434878
  Highest Energy Gershgorin circle Est. :  -104.873589317181

  ==> Characteristic Function <==
    f(x) = -1.677753e+00 * x^5 +1.512803e+00 * x^4 +5.456282e+00 * x^3 -3.689882e+00 * x^2 -3.327108e+00 * x +1.000000e+00
    with tau = 1.000000e+00, shift = -119.641799088237, range = 1.803368160602
    Initial guess: lambda_1= -108.480325638384
    Est. Highest eigenvalue= -104.873589317181

  ==> PCI Iterations <==

  ------------------------------------------------------------------------------------------------
    Steps  Beta/Eh      Ndets     Proj. Energy/Eh     dEp/dt      Approx. Energy/Eh   dEv/dt
  ------------------------------------------------------------------------------------------------
        0     0.00         55    -108.625469217293 -1.451e-01    -108.577529228434 -9.720e-02
        1     1.00         61    -108.625616238435 -1.470e-04    -108.627644544552 -5.012e-02
        2     2.00         61    -108.627497070027 -1.881e-03    -108.635467009758 -7.822e-03
        3     3.00         61    -108.632171777414 -4.675e-03    -108.637379206620 -1.912e-03
        4     4.00         61    -108.634864557057 -2.693e-03    -108.637854497247 -4.753e-04
        5     5.00         61    -108.636337245746 -1.473e-03    -108.637976687119 -1.222e-04
        6     6.00         61    -108.637128162652 -7.909e-04    -108.638010727425 -3.404e-05
        7     7.00         61    -108.637552592214 -4.244e-04    -108.638017786858 -7.059e-06
        8     8.00         61    -108.637771282271 -2.187e-04    -108.638022167247 -4.380e-06
        9     9.00         61    -108.637896287364 -1.250e-04    -108.638023077626 -9.104e-07
       10    10.00         61    -108.637956476241 -6.019e-05    -108.638024986779 -1.909e-06
       11    11.00         61    -108.637994421009 -3.794e-05    -108.638024970136  1.664e-08
       12    12.00         61    -108.638008770569 -1.435e-05    -108.638026510243 -1.540e-06
       13    13.00         61    -108.638022241997 -1.347e-05    -108.638026273930  2.363e-07
       14    14.00         61    -108.638023572395 -1.330e-06    -108.638027655802 -1.382e-06
       15    15.00         61    -108.638030132049 -6.560e-06    -108.638027280372  3.754e-07
       16    16.00         61    -108.638027770045  2.362e-06    -108.638027708546 -4.282e-07
       17    17.00         61    -108.638029288450 -1.518e-06    -108.638028076796 -3.682e-07
       18    18.00         61    -108.638030114576 -8.261e-07    -108.638028402423 -3.256e-07
       19    19.00         61    -108.638030506605 -3.920e-07    -108.638028690436 -2.880e-07
       20    20.00         61    -108.638030696495 -1.899e-07    -108.638028945187 -2.548e-07
       21    21.00         61    -108.638030791143 -9.465e-08    -108.638029170519 -2.253e-07
       22    22.00         61    -108.638030839380 -4.824e-08    -108.638029369827 -1.993e-07
       23    23.00         61    -108.638030864398 -2.502e-08    -108.638029546117 -1.763e-07
       24    24.00         61    -108.638030877562 -1.316e-08    -108.638029702048 -1.559e-07
       25    25.00         61    -108.638030884588 -7.025e-09    -108.638029839969 -1.379e-07
       26    26.00         61    -108.638030888399 -3.811e-09    -108.638029961961 -1.220e-07
       27    27.00         61    -108.638030890514 -2.115e-09    -108.638030069863 -1.079e-07
       28    28.00         61    -108.638030891727 -1.213e-09    -108.638030165303 -9.544e-08
       29    29.00         61    -108.638030892457 -7.295e-10    -108.638030249719 -8.442e-08
       30    30.00         61    -108.638030892924 -4.678e-10    -108.638030324385 -7.467e-08
       31    31.00         61    -108.638030893248 -3.238e-10    -108.638030390427 -6.604e-08
       32    32.00         61    -108.638030893491 -2.427e-10    -108.638030448841 -5.841e-08
       33    33.00         61    -108.638030893686 -1.953e-10    -108.638030500508 -5.167e-08
       34    34.00         61    -108.638030893852 -1.662e-10    -108.638030546207 -4.570e-08
       35    35.00         61    -108.638030893999 -1.469e-10    -108.638030586627 -4.042e-08
       36    36.00         61    -108.638030894132 -1.332e-10    -108.638030622379 -3.575e-08
       37    37.00         61    -108.638030894255 -1.226e-10    -108.638030654001 -3.162e-08
       38    38.00         61    -108.638030894369 -1.138e-10    -108.638030681970 -2.797e-08
       39    39.00         61    -108.638030894475 -1.064e-10    -108.638030706709 -2.474e-08
       40    40.00         61    -108.638030894575 -9.955e-11    -108.638030728590 -2.188e-08
       41    41.00         61    -108.638030894668 -9.354e-11    -108.638030747944 -1.935e-08
       42    42.00         61    -108.638030894756 -8.772e-11    -108.638030765062 -1.712e-08
       43    43.00         61    -108.638030894838 -8.248e-11    -108.638030780203 -1.514e-08
       44    44.00         61    -108.638030894916 -7.753e-11    -108.638030793595 -1.339e-08
       45    45.00         61    -108.638030894989 -7.296e-11    -108.638030805440 -1.185e-08
       46    46.00         61    -108.638030895057 -6.851e-11    -108.638030815917 -1.048e-08
       47    47.00         61    -108.638030895122 -6.452e-11    -108.638030825184 -9.267e-09
       48    48.00         61    -108.638030895183 -6.064e-11    -108.638030833380 -8.196e-09
       49    49.00         61    -108.638030895239 -5.696e-11    -108.638030840629 -7.250e-09
       50    50.00         61    -108.638030895293 -5.366e-11    -108.638030847042 -6.412e-09
       51    51.00         61    -108.638030895344 -5.045e-11    -108.638030852713 -5.671e-09
       52    52.00         61    -108.638030895391 -4.744e-11    -108.638030857729 -5.016e-09
       53    53.00         61    -108.638030895436 -4.457e-11    -108.638030862166 -4.437e-09
       54    54.00         61    -108.638030895478 -4.192e-11    -108.638030866091 -3.924e-09
       55    55.00         61    -108.638030895517 -3.949e-11    -108.638030869562 -3.471e-09
       56    56.00         61    -108.638030895554 -3.712e-11    -108.638030872632 -3.070e-09
       57    57.00         61    -108.638030895589 -3.492e-11    -108.638030875347 -2.715e-09
       58    58.00         61    -108.638030895622 -3.276e-11    -108.638030877749 -2.402e-09
       59    59.00         61    -108.638030895653 -3.091e-11    -108.638030879874 -2.124e-09
       60    60.00         61    -108.638030895682 -2.902e-11    -108.638030881753 -1.879e-09
       61    61.00         61    -108.638030895709 -2.731e-11    -108.638030883415 -1.662e-09
       62    62.00         61    -108.638030895735 -2.568e-11    -108.638030884884 -1.470e-09
       63    63.00         61    -108.638030895759 -2.417e-11    -108.638030886185 -1.300e-09
       64    64.00         61    -108.638030895782 -2.265e-11    -108.638030887335 -1.150e-09
       65    65.00         61    -108.638030895803 -2.136e-11    -108.638030888352 -1.017e-09
       66    66.00         61    -108.638030895823 -2.011e-11    -108.638030889251 -8.997e-10
       67    67.00         61    -108.638030895842 -1.887e-11    -108.638030890047 -7.957e-10
       68    68.00         61    -108.638030895860 -1.776e-11    -108.638030890751 -7.038e-10
       69    69.00         61    -108.638030895876 -1.673e-11    -108.638030891374 -6.225e-10
       70    70.00         61    -108.638030895892 -1.573e-11    -108.638030891924 -5.506e-10
       71    71.00         61    -108.638030895907 -1.481e-11    -108.638030892411 -4.870e-10
       72    72.00         61    -108.638030895921 -1.394e-11    -108.638030892842 -4.307e-10
       73    73.00         61    -108.638030895934 -1.300e-11    -108.638030893223 -3.810e-10
       74    74.00         61    -108.638030895946 -1.229e-11    -108.638030893560 -3.370e-10
       75    75.00         61    -108.638030895958 -1.157e-11    -108.638030893858 -2.981e-10
       76    76.00         61    -108.638030895969 -1.084e-11    -108.638030894122 -2.636e-10
       77    77.00         61    -108.638030895979 -1.022e-11    -108.638030894355 -2.332e-10
       78    78.00         61    -108.638030895988 -9.678e-12    -108.638030894561 -2.063e-10
       79    79.00         61    -108.638030895997 -8.981e-12    -108.638030894744 -1.824e-10
       80    80.00         61    -108.638030896006 -8.512e-12    -108.638030894905 -1.614e-10
       81    81.00         61    -108.638030896014 -8.015e-12    -108.638030895048 -1.427e-10
       82    82.00         61    -108.638030896022 -7.603e-12    -108.638030895174 -1.262e-10
       83    83.00         61    -108.638030896029 -7.034e-12    -108.638030895285 -1.116e-10
       84    84.00         61    -108.638030896035 -6.622e-12    -108.638030895384 -9.875e-11
       85    85.00         61    -108.638030896042 -6.310e-12    -108.638030895472 -8.735e-11
       86    86.00         61    -108.638030896047 -5.826e-12    -108.638030895549 -7.725e-11
       87    87.00         61    -108.638030896053 -5.571e-12    -108.638030895617 -6.833e-11
       88    88.00         61    -108.638030896058 -5.201e-12    -108.638030895678 -6.044e-11
       89    89.00         61    -108.638030896063 -4.903e-12    -108.638030895731 -5.346e-11
       90    90.00         61    -108.638030896068 -4.590e-12    -108.638030895778 -4.728e-11
       91    91.00         61    -108.638030896072 -4.292e-12    -108.638030895820 -4.182e-11
       92    92.00         61    -108.638030896076 -4.107e-12    -108.638030895857 -3.699e-11
       93    93.00         61    -108.638030896080 -3.780e-12    -108.638030895890 -3.271e-11
       94    94.00         61    -108.638030896083 -3.652e-12    -108.638030895919 -2.895e-11
       95    95.00         61    -108.638030896087 -3.382e-12    -108.638030895944 -2.558e-11
       96    96.00         61    -108.638030896090 -3.155e-12    -108.638030895967 -2.265e-11
       97    97.00         61    -108.638030896093 -3.055e-12    -108.638030895987 -2.002e-11
       98    98.00         61    -108.638030896096 -2.785e-12    -108.638030896005 -1.771e-11
       99    99.00         61    -108.638030896098 -2.615e-12    -108.638030896020 -1.566e-11
      100   100.00         61    -108.638030896101 -2.544e-12    -108.638030896034 -1.386e-11
      101   101.00         61    -108.638030896103 -2.359e-12    -108.638030896047 -1.225e-11
      102   102.00         61    -108.638030896106 -2.174e-12    -108.638030896057 -1.084e-11
      103   103.00         61    -108.638030896108 -2.103e-12    -108.638030896067 -9.592e-12
      104   104.00         61    -108.638030896110 -1.918e-12    -108.638030896075 -8.484e-12
      105   105.00         61    -108.638030896111 -1.791e-12    -108.638030896083 -7.503e-12
      106   106.00         61    -108.638030896113 -1.805e-12    -108.638030896090 -6.622e-12
      107   107.00         61    -108.638030896115 -1.592e-12    -108.638030896095 -5.869e-12
      108   108.00         61    -108.638030896116 -1.549e-12    -108.638030896101 -5.187e-12
      109   109.00         61    -108.638030896118 -1.421e-12    -108.638030896105 -4.590e-12
      110   110.00         61    -108.638030896119 -1.336e-12    -108.638030896109 -4.064e-12
      111   111.00         61    -108.638030896120 -1.322e-12    -108.638030896113 -3.595e-12
      112   112.00         61    -108.638030896121 -1.108e-12    -108.638030896116 -3.169e-12
      113   113.00         61    -108.638030896123 -1.180e-12    -108.638030896119 -2.814e-12
      114   114.00         61    -108.638030896124 -1.052e-12    -108.638030896121 -2.487e-12
      115   115.00         61    -108.638030896125 -9.948e-13    -108.638030896124 -2.188e-12
      116   116.00         61    -108.638030896126 -9.095e-13    -108.638030896125 -1.947e-12
      117   117.00         61    -108.638030896126 -8.811e-13    -108.638030896127 -1.720e-12
      118   118.00         61    -108.638030896127 -8.100e-13    -108.638030896129 -1.521e-12
      119   119.00         61    -108.638030896128 -7.674e-13    -108.638030896130 -1.350e-12
      120   120.00         61    -108.638030896129 -7.390e-13    -108.638030896131 -1.194e-12
      121   121.00         61    -108.638030896130 -7.105e-13    -108.638030896132 -1.052e-12
      122   122.00         61    -108.638030896130 -6.537e-13    -108.638030896133 -9.237e-13
      123   123.00         61    -108.638030896131 -5.826e-13
  ------------------------------------------------------------------------------------------------

  Calculation converged.

  ==> Post-Iterations <==

  * Size of CI space                    = 61
  * Projector-CI Approximate Energy     =  -108.638030896133 Eh
  Variational energy estimated with 61 determinants to meet the max error 0.000000e+00
  * Projector-CI Projective  Energy     =  -108.638030896131 Eh

  * Projector-CI Variational Energy     =  -108.638029874900 Eh
  * Projector-CI Var. Corr.  Energy     =    -0.313646929838 Eh
  * 1st order perturbation   Energy     =     0.000001021233 Eh

  Projector-CI (bitset) ran in  : 0.881278 s

  Most important contributions to the wave function:

    0      -0.606889      0.368314           5 |2200222>   -121.265271538778
    1       0.421146      0.177364           2 |2220220>   -121.131894506178
    2       0.396289      0.157045          42 |2202202>   -121.122865390575
    3      -0.322786      0.104191          22 |2222200>   -120.984109825100
    4      -0.251575     0.0632902          26 |22-+2+->   -121.520352940839
    5      -0.251575     0.0632902          24 |22+-2-+>   -121.520352940839
    6      -0.147919     0.0218801          31 |22+-2+->   -121.128530482408
    7      -0.147919     0.0218801          18 |22-+2-+>   -121.128530482408
    8       0.103427     0.0106972          25 |22--2++>   -121.130730944560
    9       0.103427     0.0106972          23 |22++2-->   -121.130730944560

  Spin State: S^2 = 0.044, S = 0.042, singlet (from 8 determinants,97.73)

  Your calculation took 1.76391800 seconds
	PCI energy........................................................PASSED

*** Psi4 exiting successfully. Buy a developer a beer!
