    -----------------------------------------------------------------------
          Psi4: An Open-Source Ab Initio Electronic Structure Package
                              Psi4 1.0rc262 Driver

                          Git: Rev {master} 3bf76ee dirty

    J. M. Turney, A. C. Simmonett, R. M. Parrish, E. G. Hohenstein,
    F. A. Evangelista, J. T. Fermann, B. J. Mintz, L. A. Burns, J. J. Wilke,
    M. L. Abrams, N. J. Russ, M. L. Leininger, C. L. Janssen, E. T. Seidl,
    W. D. Allen, H. F. Schaefer, R. A. King, E. F. Valeev, C. D. Sherrill,
    and T. D. Crawford, WIREs Comput. Mol. Sci. 2, 556-565 (2012)
    (doi: 10.1002/wcms.93)

                         Additional Contributions by
    A. E. DePrince, U. Bozkaya, A. Yu. Sokolov, D. G. A. Smith, R. Di Remigio,
    R. M. Richard, J. F. Gonthier, H. R. McAlexander, M. Saitow, and
    B. P. Pritchard
    -----------------------------------------------------------------------


    Psi4 started on: Fri Aug  5 13:13:09 2016

    Process ID:  47278
    PSI4DATADIR: /Users/kevinhannon/Programs/psi4/psi4src/share
    Memory level set to 256.000 MB

  ==> Input File <==

--------------------------------------------------------------------------
#GITCOMMIT
import forte_parallel

refmcscf    = -15.569761360884
refdsrgpt2 =  -15.613389000040760

molecule {
  0 1
  BE        0.000000000000     0.000000000000     0.000000000000
  H         0.000000000000     1.390000000000     2.500000000000
  H         0.000000000000    -1.390000000000     2.500000000000
  units bohr
  no_reorient
}

set globals{
   reference    RHF
   scf_type     pk
   d_convergence           12
   e_convergence           15
   df_basis_mp2            cc-pvdz-ri
}

set mcscf{
   docc         [2,0,0,0]
   socc         [1,0,0,1]
   maxiter       1000
}

set forte{
   restricted_docc      [2,0,0,0]
   active               [1,0,0,1]
   root_sym              0
   nroot                 1
   dsrg_s                0.5
   int_type              df
   job_type              three-dsrg-mrpt2
   print                 0
   cas_type              fci
}

basis {
spherical
****
Be     0
S   6   1.00
   1267.070000     0.001940
    190.356000     0.014786
     43.295900     0.071795
     12.144200     0.236348
      3.809230     0.471763
      1.268470     0.355183
S   3   1.00
      5.693880    -0.028876
      1.555630    -0.177565
      0.171855     1.071630
S   1   1.00
      0.057181     1.000000
P   2   1.00
      1.555630     0.144045
      0.171855     0.949692
P   1   1.00
      5.693880     1.000000
****
H      0
S   3   1.00
     19.240600     0.032828
      2.899200     0.231208
      0.653400     0.817238
S   1   1.00
      0.177600     1.000000
****
}

ref, refwfn = energy('scf', return_wfn=True)
#for ccvv_algorithm_type in ["batch_core", "batch_virtual", "batch_core_rep", "batch_ga", "fly_ambit", "fly_loop"]:
set forte ccvv_algorithm batch_core
forte_energy = energy('forte', ref_wfn=refwfn)
compare_values(refdsrgpt2,forte_energy,10,"DSRG-MRPT2 energy with batch_core")
set forte ccvv_algorithm batch_virtual
forte_energy = energy('forte', ref_wfn=refwfn)
compare_values(refdsrgpt2,forte_energy,10,"DSRG-MRPT2 energy with batch_virtual")
#set forte ccvv_algorithm batch_core_rep
#forte_energy = energy('forte', ref_wfn=refwfn)
#compare_values(refdsrgpt2,forte_energy,10,"DSRG-MRPT2 energy with batch_core_rep")
#set forte ccvv_algorithm batch_core_ga
#forte_energy = energy('forte', ref_wfn=refwfn)
#compare_values(refdsrgpt2,forte_energy,10,"DSRG-MRPT2 energy with batch_core_ga")
set forte ccvv_algorithm fly_ambit
forte_energy = energy('forte', ref_wfn=refwfn)
compare_values(refdsrgpt2,forte_energy,10,"DSRG-MRPT2 energy with fly_ambit")
#set forte ccvv_algorithm fly_loop
#forte_energy = energy('forte', ref_wfn=refwfn)
#compare_values(refdsrgpt2,forte_energy,10,"DSRG-MRPT2 energy with fly_loop")

--------------------------------------------------------------------------
/Users/kevinhannon/Programs/forte_parallel/forte.so loaded.

*** tstart() called on Kevins-MacBook-Pro.local
*** at Fri Aug  5 13:13:09 2016


         ---------------------------------------------------------
                                   SCF
            by Justin Turney, Rob Parrish, and Andy Simmonett
                              RHF Reference
                        1 Threads,    256 MiB Core
         ---------------------------------------------------------

  ==> Geometry <==

    Molecular point group: c2v
    Full point group: C2v

    Geometry (in Bohr), charge = 0, multiplicity = 1:

       Center              X                  Y                   Z               Mass       
    ------------   -----------------  -----------------  -----------------  -----------------
          BE          0.000000000000     0.000000000000    -0.456946119527     9.012182201000
           H         -0.000000000000     1.390000000000     2.043053880473     1.007825032070
           H          0.000000000000    -1.390000000000     2.043053880473     1.007825032070

  Running in c2v symmetry.

  Rotational constants: A =     15.45786  B =      5.84735  C =      4.24251 [cm^-1]
  Rotational constants: A = 463415.11694  B = 175299.21379  C = 127187.22870 [MHz]
  Nuclear repulsion =    3.156487659063052

  Charge       = 0
  Multiplicity = 1
  Electrons    = 6
  Nalpha       = 3
  Nbeta        = 3

  ==> Algorithm <==

  SCF Algorithm Type is PK.
  DIIS enabled.
  MOM disabled.
  Fractional occupation disabled.
  Guess Type is SAD.
  Energy threshold   = 1.00e-15
  Density threshold  = 1.00e-12
  Integral threshold = 0.00e+00

  ==> Primary Basis <==

  Basis Set: ANONYMOUS144
    Number of shells: 9
    Number of basis function: 13
    Number of Cartesian functions: 13
    Spherical Harmonics?: true
    Max angular momentum: 1

  ==> Pre-Iterations <==

   -------------------------------------------------------
    Irrep   Nso     Nmo     Nalpha   Nbeta   Ndocc  Nsocc
   -------------------------------------------------------
     A1         7       7       0       0       0       0
     A2         0       0       0       0       0       0
     B1         2       2       0       0       0       0
     B2         4       4       0       0       0       0
   -------------------------------------------------------
    Total      13      13       3       3       3       0
   -------------------------------------------------------

  ==> Integral Setup <==

  Using in-core PK algorithm.
   Calculation information:
      Number of atoms:                   3
      Number of AO shells:               9
      Number of primitives:             21
      Number of atomic orbitals:        13
      Number of basis functions:        13

      Integral cutoff                 1.00e-12
      Number of threads:                 1

  Performing in-core PK
  Using 8372 doubles for integral storage.
  We computed 1035 shell quartets total.
  Whereas there are 1035 unique shell quartets.
  ==> DiskJK: Disk-Based J/K Matrices <==

    J tasked:                  Yes
    K tasked:                  Yes
    wK tasked:                  No
    Memory (MB):               183
    Schwarz Cutoff:          1E-12

    OpenMP threads:              1
  Minimum eigenvalue in the overlap matrix is 1.2053632228E-01.
  Using Symmetric Orthogonalization.
  SCF Guess: Superposition of Atomic Densities via on-the-fly atomic UHF.

  ==> Iterations <==

                        Total Energy        Delta E     RMS |[F,P]|

   @RHF iter   0:   -15.56301095030742   -1.55630e+01   5.44147e-02 
   @RHF iter   1:   -15.52996866392278    3.30423e-02   1.48767e-02 
   @RHF iter   2:   -15.55738473050347   -2.74161e-02   4.69546e-03 DIIS
   @RHF iter   3:   -15.56151938814144   -4.13466e-03   2.28944e-03 DIIS
   @RHF iter   4:   -15.56286464827655   -1.34526e-03   2.24552e-04 DIIS
   @RHF iter   5:   -15.56287226322974   -7.61495e-06   3.86260e-05 DIIS
   @RHF iter   6:   -15.56287237470624   -1.11477e-07   3.70255e-06 DIIS
   @RHF iter   7:   -15.56287237681812   -2.11188e-09   3.38095e-07 DIIS
   @RHF iter   8:   -15.56287237683214   -1.40190e-11   3.56187e-08 DIIS
   @RHF iter   9:   -15.56287237683229   -1.45661e-13   2.52796e-09 DIIS
   @RHF iter  10:   -15.56287237683226    2.48690e-14   1.54895e-10 DIIS
   @RHF iter  11:   -15.56287237683229   -2.84217e-14   2.26133e-11 DIIS
   @RHF iter  12:   -15.56287237683228    1.42109e-14   2.41255e-13 DIIS
   @RHF iter  13:   -15.56287237683228    0.00000e+00   2.37893e-14 DIIS

  ==> Post-Iterations <==

    Orbital Energies (a.u.)
    -----------------------

    Doubly Occupied:                                                      

       1A1    -4.745154     2A1    -0.496862     1B2    -0.252144  

    Virtual:                                                              

       3A1    -0.004524     1B1     0.147520     4A1     0.268817  
       2B2     0.280798     5A1     0.399681     3B2     1.190648  
       6A1     1.301378     2B1     8.956704     4B2     9.007371  
       7A1     9.098579  

    Final Occupation by Irrep:
             A1    A2    B1    B2 
    DOCC [     2,    0,    0,    1 ]

  Energy converged.

  @RHF Final Energy:   -15.56287237683228

   => Energetics <=

    Nuclear Repulsion Energy =              3.1564876590630520
    One-Electron Energy =                 -26.4504019931890539
    Two-Electron Energy =                   7.7310419572937255
    DFT Exchange-Correlation Energy =       0.0000000000000000
    Empirical Dispersion Energy =           0.0000000000000000
    PCM Polarization Energy =               0.0000000000000000
    EFP Energy =                            0.0000000000000000
    Total Energy =                        -15.5628723768322743

    Alert: EFP and PCM quantities not currently incorporated into SCF psivars.
  Saving occupied orbitals to File 180.

*** tstop() called on Kevins-MacBook-Pro.local at Fri Aug  5 13:13:09 2016
Module time:
	user time   =       0.22 seconds =       0.00 minutes
	system time =       0.01 seconds =       0.00 minutes
	total time  =          0 seconds =       0.00 minutes
Total time:
	user time   =       0.22 seconds =       0.00 minutes
	system time =       0.01 seconds =       0.00 minutes
	total time  =          0 seconds =       0.00 minutes


Properties will be evaluated at   0.000000,   0.000000,   0.000000 Bohr

Properties computed using the SCF density matrix

  Nuclear Dipole Moment: (a.u.)
     X:     0.0000      Y:     0.0000      Z:     2.2583

  Electronic Dipole Moment: (a.u.)
     X:     0.0000      Y:     0.0000      Z:    -3.9654

  Dipole Moment: (a.u.)
     X:     0.0000      Y:     0.0000      Z:    -1.7071     Total:     1.7071

  Dipole Moment: (Debye)
     X:     0.0000      Y:     0.0000      Z:    -4.3391     Total:     4.3391


Reading options from the FORTE block
Calling plugin /Users/kevinhannon/Programs/forte_parallel/forte.so.




  ==> MO Space Information <==

  Read options for space RESTRICTED_DOCC
  Read options for space ACTIVE
  -------------------------------------------------
                       A1    A2    B1    B2   Sum
  -------------------------------------------------
    FROZEN_DOCC         0     0     0     0     0
    RESTRICTED_DOCC     2     0     0     0     2
    ACTIVE              1     0     0     1     2
    RESTRICTED_UOCC     4     0     2     3     9
    FROZEN_UOCC         0     0     0     0     0
    Total               7     0     2     4    13
  -------------------------------------------------

  ==> Integral Transformation <==

  Number of molecular orbitals:               13
  Number of correlated molecular orbitals:    13
  Number of frozen occupied orbitals:          0
  Number of frozen unoccupied orbitals:        0

    Molecular point group: c2v
    Full point group: C2v

    Geometry (in Bohr), charge = 0, multiplicity = 1:

       Center              X                  Y                   Z               Mass       
    ------------   -----------------  -----------------  -----------------  -----------------
          BE          0.000000000000     0.000000000000    -0.456946119527     9.012182201000
           H         -0.000000000000     1.390000000000     2.043053880473     1.007825032070
           H          0.000000000000    -1.390000000000     2.043053880473     1.007825032070

  -AO BASIS SET INFORMATION:
    Name                   = ANONYMOUS144
    Total number of shells = 9
    Number of primitives   = 21
    Number of AO           = 13
    Number of SO           = 13
    Maximum AM             = 1
    Spherical Harmonics    = TRUE

  -Contraction Scheme:
    Atom   Type   All Primitives // Shells:
   ------ ------ --------------------------
       1    BE     10s 3p // 3s 2p 
       2     H     4s // 2s 
       3     H     4s // 2s 

  ==> AO Basis Functions <==

    [ ANONYMOUS144 ]
    spherical
    ****
   BE   1
    S   6 1.00
                      1267.07000000           0.00194000
                       190.35600000           0.01478600
                        43.29590000           0.07179500
                        12.14420000           0.23634800
                         3.80923000           0.47176300
                         1.26847000           0.35518300
    S   3 1.00
                         5.69388000          -0.02887600
                         1.55563000          -0.17756500
                         0.17185500           1.07163000
    S   1 1.00
                         0.05718100           1.00000000
    P   2 1.00
                         1.55563000           0.14404500
                         0.17185500           0.94969200
    P   1 1.00
                         5.69388000           1.00000000
    ****
    H   2
    S   3 1.00
                        19.24060000           0.03282800
                         2.89920000           0.23120800
                         0.65340000           0.81723800
    S   1 1.00
                         0.17760000           1.00000000
    ****


  DFIntegrals overall time
  DFIntegrals take      0.10616400 s

                          ----------------------------
                            Semi-Canonical Orbitals
                            Francesco A. Evangelista
                          ----------------------------

 Took 0.006596 s to build fock matrix

  ==> Integral transformation <==
    Molecular point group: c2v
    Full point group: C2v

    Geometry (in Bohr), charge = 0, multiplicity = 1:

       Center              X                  Y                   Z               Mass       
    ------------   -----------------  -----------------  -----------------  -----------------
          BE          0.000000000000     0.000000000000    -0.456946119527     9.012182201000
           H         -0.000000000000     1.390000000000     2.043053880473     1.007825032070
           H          0.000000000000    -1.390000000000     2.043053880473     1.007825032070

  -AO BASIS SET INFORMATION:
    Name                   = ANONYMOUS144
    Total number of shells = 9
    Number of primitives   = 21
    Number of AO           = 13
    Number of SO           = 13
    Maximum AM             = 1
    Spherical Harmonics    = TRUE

  -Contraction Scheme:
    Atom   Type   All Primitives // Shells:
   ------ ------ --------------------------
       1    BE     10s 3p // 3s 2p 
       2     H     4s // 2s 
       3     H     4s // 2s 

  ==> AO Basis Functions <==

    [ ANONYMOUS144 ]
    spherical
    ****
   BE   1
    S   6 1.00
                      1267.07000000           0.00194000
                       190.35600000           0.01478600
                        43.29590000           0.07179500
                        12.14420000           0.23634800
                         3.80923000           0.47176300
                         1.26847000           0.35518300
    S   3 1.00
                         5.69388000          -0.02887600
                         1.55563000          -0.17756500
                         0.17185500           1.07163000
    S   1 1.00
                         0.05718100           1.00000000
    P   2 1.00
                         1.55563000           0.14404500
                         0.17185500           0.94969200
    P   1 1.00
                         5.69388000           1.00000000
    ****
    H   2
    S   3 1.00
                        19.24060000           0.03282800
                         2.89920000           0.23120800
                         0.65340000           0.81723800
    S   1 1.00
                         0.17760000           1.00000000
    ****


 Integrals are about to be computed.
 Integrals are about to be updated.
 SemiCanonicalize takes 0.114922 s.

           ---------------------------------------------------------
             DF/CD - Driven Similarity Renormalization Group MBPT2
                      Kevin Hannon and Chenyang (York) Li
                                   1 thread
           ---------------------------------------------------------

  Reference = RHF
  Reference Energy = -15.565633469491148

  ==> Checking Orbitals <==

    Checking if orbitals are semi-canonicalized ...     OK.
    Orbitals are semi-canonicalized.

  ==> Calculation Information <==

    Flow parameter                           5.000e-01
    Cholesky Tolerance                       1.000e-06
    Taylor expansion threshold               1.000e-03
    int_type                                        DF
    ccvv_algorithm                          BATCH_CORE
    ccvv_source                                 NORMAL
    Computing T2                          ......Done. Timing        0.003486 s
    Renormalizing V                       ......Done. Timing        0.001714 s
    Computing T1                          ......Done. Timing        0.005016 s
    Renormalizing F                       ......Done. Timing        0.006820 s
    Computing <[F, T1]>                   ......Done. Timing        0.002189 s
    Computing <[F, T2]>                   ......Done. Timing        0.004358 s
    Computing <[V, T1]>                   ......Done. Timing        0.004166 s
    Computing <[V, T2]> (C_2)^4 (no ccvv) ......Done. Timing        0.025361 s
  Computing V_T2_2 in batch algorithm

  Batching algorithm is going over m and n

====Blocking information==========

  12096 / 192000000 = 0
  Block_size = 2 num_block = 1
 Batch_core loop per Mbatch: 0 and Nbatch: 0 takes 0.00200800
    Computing <[V, T2]> (C_2)^4 ccvv      ......Done. Timing        0.002475 s
    Computing <[V, T2]> 4HH               ......Done. Timing        0.005423 s
    Computing <V, T2]> 4PP                ......Done. Timing        0.006331 s
    Computing [V, T2] 4PH                 ......Done. Timing        0.025321 s
    Computing [V, T2] λ3                  ......Done. Timing        0.017025 s

  ==> DSRG-MRPT2 Energy Summary <==

    E0 (reference)                 =    -15.565633469491148
    <[F, T1]>                      =     -0.000005436576713
    <[F, T2]>                      =     -0.000001289387103
    <[V, T1]>                      =      0.000004009844042
    <[V, T2]> (C_2)^4              =     -0.047458214939960
    <[V, T2]> C_4 (C_2)^2 HH       =      0.000392414883318
    <[V, T2]> C_4 (C_2)^2 PP       =      0.000766528385711
    <[V, T2]> C_4 (C_2)^2 PH       =     -0.001593703870149
    <[V, T2]> C_6 C_2              =      0.000140161111320
    <[V, T2]>                      =     -0.047752814429760
    DSRG-MRPT2 correlation energy  =     -0.047755530549533
    DSRG-MRPT2 total energy        =    -15.613389000040682
    max(T1)                        =      0.000425821045758
    ||T1||                         =      0.001158511286533

  ==> Total Timings (s) for Computing Commutators <==

             [H1, T1]    [H1, T2]    [H2, T1]    [H2, T2]
    -----------------------------------------------------
    -> C0       0.002       0.004       0.004       0.065
    -> C1       0.000       0.000       0.000       0.000
    -> C2                   0.000       0.000       0.000
    -----------------------------------------------------


  Your calculation took 0.37680400 seconds
	DSRG-MRPT2 energy with batch_core.................................PASSED

Reading options from the FORTE block
Calling plugin /Users/kevinhannon/Programs/forte_parallel/forte.so.




  ==> MO Space Information <==

  Read options for space RESTRICTED_DOCC
  Read options for space ACTIVE
  -------------------------------------------------
                       A1    A2    B1    B2   Sum
  -------------------------------------------------
    FROZEN_DOCC         0     0     0     0     0
    RESTRICTED_DOCC     2     0     0     0     2
    ACTIVE              1     0     0     1     2
    RESTRICTED_UOCC     4     0     2     3     9
    FROZEN_UOCC         0     0     0     0     0
    Total               7     0     2     4    13
  -------------------------------------------------

  ==> Integral Transformation <==

  Number of molecular orbitals:               13
  Number of correlated molecular orbitals:    13
  Number of frozen occupied orbitals:          0
  Number of frozen unoccupied orbitals:        0

    Molecular point group: c2v
    Full point group: C2v

    Geometry (in Bohr), charge = 0, multiplicity = 1:

       Center              X                  Y                   Z               Mass       
    ------------   -----------------  -----------------  -----------------  -----------------
          BE          0.000000000000     0.000000000000    -0.456946119527     9.012182201000
           H         -0.000000000000     1.390000000000     2.043053880473     1.007825032070
           H          0.000000000000    -1.390000000000     2.043053880473     1.007825032070

  -AO BASIS SET INFORMATION:
    Name                   = ANONYMOUS144
    Total number of shells = 9
    Number of primitives   = 21
    Number of AO           = 13
    Number of SO           = 13
    Maximum AM             = 1
    Spherical Harmonics    = TRUE

  -Contraction Scheme:
    Atom   Type   All Primitives // Shells:
   ------ ------ --------------------------
       1    BE     10s 3p // 3s 2p 
       2     H     4s // 2s 
       3     H     4s // 2s 

  ==> AO Basis Functions <==

    [ ANONYMOUS144 ]
    spherical
    ****
   BE   1
    S   6 1.00
                      1267.07000000           0.00194000
                       190.35600000           0.01478600
                        43.29590000           0.07179500
                        12.14420000           0.23634800
                         3.80923000           0.47176300
                         1.26847000           0.35518300
    S   3 1.00
                         5.69388000          -0.02887600
                         1.55563000          -0.17756500
                         0.17185500           1.07163000
    S   1 1.00
                         0.05718100           1.00000000
    P   2 1.00
                         1.55563000           0.14404500
                         0.17185500           0.94969200
    P   1 1.00
                         5.69388000           1.00000000
    ****
    H   2
    S   3 1.00
                        19.24060000           0.03282800
                         2.89920000           0.23120800
                         0.65340000           0.81723800
    S   1 1.00
                         0.17760000           1.00000000
    ****


  DFIntegrals overall time
  DFIntegrals take      0.11161100 s

                          ----------------------------
                            Semi-Canonical Orbitals
                            Francesco A. Evangelista
                          ----------------------------

 Took 0.006542 s to build fock matrix

  ==> Integral transformation <==
    Molecular point group: c2v
    Full point group: C2v

    Geometry (in Bohr), charge = 0, multiplicity = 1:

       Center              X                  Y                   Z               Mass       
    ------------   -----------------  -----------------  -----------------  -----------------
          BE          0.000000000000     0.000000000000    -0.456946119527     9.012182201000
           H         -0.000000000000     1.390000000000     2.043053880473     1.007825032070
           H          0.000000000000    -1.390000000000     2.043053880473     1.007825032070

  -AO BASIS SET INFORMATION:
    Name                   = ANONYMOUS144
    Total number of shells = 9
    Number of primitives   = 21
    Number of AO           = 13
    Number of SO           = 13
    Maximum AM             = 1
    Spherical Harmonics    = TRUE

  -Contraction Scheme:
    Atom   Type   All Primitives // Shells:
   ------ ------ --------------------------
       1    BE     10s 3p // 3s 2p 
       2     H     4s // 2s 
       3     H     4s // 2s 

  ==> AO Basis Functions <==

    [ ANONYMOUS144 ]
    spherical
    ****
   BE   1
    S   6 1.00
                      1267.07000000           0.00194000
                       190.35600000           0.01478600
                        43.29590000           0.07179500
                        12.14420000           0.23634800
                         3.80923000           0.47176300
                         1.26847000           0.35518300
    S   3 1.00
                         5.69388000          -0.02887600
                         1.55563000          -0.17756500
                         0.17185500           1.07163000
    S   1 1.00
                         0.05718100           1.00000000
    P   2 1.00
                         1.55563000           0.14404500
                         0.17185500           0.94969200
    P   1 1.00
                         5.69388000           1.00000000
    ****
    H   2
    S   3 1.00
                        19.24060000           0.03282800
                         2.89920000           0.23120800
                         0.65340000           0.81723800
    S   1 1.00
                         0.17760000           1.00000000
    ****


 Integrals are about to be computed.
 Integrals are about to be updated.
 SemiCanonicalize takes 0.112467 s.

           ---------------------------------------------------------
             DF/CD - Driven Similarity Renormalization Group MBPT2
                      Kevin Hannon and Chenyang (York) Li
                                   1 thread
           ---------------------------------------------------------

  Reference = RHF
  Reference Energy = -15.565633469491148

  ==> Checking Orbitals <==

    Checking if orbitals are semi-canonicalized ...     OK.
    Orbitals are semi-canonicalized.

  ==> Calculation Information <==

    Flow parameter                           5.000e-01
    Cholesky Tolerance                       1.000e-06
    Taylor expansion threshold               1.000e-03
    int_type                                        DF
    ccvv_algorithm                          BATCH_VIRTUAL
    ccvv_source                                 NORMAL
    Computing T2                          ......Done. Timing        0.003135 s
    Renormalizing V                       ......Done. Timing        0.001508 s
    Computing T1                          ......Done. Timing        0.005180 s
    Renormalizing F                       ......Done. Timing        0.006516 s
    Computing <[F, T1]>                   ......Done. Timing        0.002253 s
    Computing <[F, T2]>                   ......Done. Timing        0.004365 s
    Computing <[V, T1]>                   ......Done. Timing        0.003607 s
    Computing <[V, T2]> (C_2)^4 (no ccvv) ......Done. Timing        0.024612 s
  Computing V_T2_2 in batch algorithm

  Batching algorithm is going over e and f

====Blocking information==========

  12096 / 192000000 = 0
  Block_size = 9 num_block = 1
    Computing <[V, T2]> (C_2)^4 ccvv      ......Done. Timing        0.030617 s
    Computing <[V, T2]> 4HH               ......Done. Timing        0.006293 s
    Computing <V, T2]> 4PP                ......Done. Timing        0.006464 s
    Computing [V, T2] 4PH                 ......Done. Timing        0.026059 s
    Computing [V, T2] λ3                  ......Done. Timing        0.017554 s

  ==> DSRG-MRPT2 Energy Summary <==

    E0 (reference)                 =    -15.565633469491148
    <[F, T1]>                      =     -0.000005436576713
    <[F, T2]>                      =     -0.000001289387103
    <[V, T1]>                      =      0.000004009844042
    <[V, T2]> (C_2)^4              =     -0.047458214939960
    <[V, T2]> C_4 (C_2)^2 HH       =      0.000392414883318
    <[V, T2]> C_4 (C_2)^2 PP       =      0.000766528385711
    <[V, T2]> C_4 (C_2)^2 PH       =     -0.001593703870149
    <[V, T2]> C_6 C_2              =      0.000140161111320
    <[V, T2]>                      =     -0.047752814429760
    DSRG-MRPT2 correlation energy  =     -0.047755530549533
    DSRG-MRPT2 total energy        =    -15.613389000040682
    max(T1)                        =      0.000425821045759
    ||T1||                         =      0.001158511286534

  ==> Total Timings (s) for Computing Commutators <==

             [H1, T1]    [H1, T2]    [H2, T1]    [H2, T2]
    -----------------------------------------------------
    -> C0       0.002       0.004       0.004       0.094
    -> C1       0.000       0.000       0.000       0.000
    -> C2                   0.000       0.000       0.000
    -----------------------------------------------------


  Your calculation took 0.40980600 seconds
	DSRG-MRPT2 energy with batch_virtual..............................PASSED

Reading options from the FORTE block
Calling plugin /Users/kevinhannon/Programs/forte_parallel/forte.so.




  ==> MO Space Information <==

  Read options for space RESTRICTED_DOCC
  Read options for space ACTIVE
  -------------------------------------------------
                       A1    A2    B1    B2   Sum
  -------------------------------------------------
    FROZEN_DOCC         0     0     0     0     0
    RESTRICTED_DOCC     2     0     0     0     2
    ACTIVE              1     0     0     1     2
    RESTRICTED_UOCC     4     0     2     3     9
    FROZEN_UOCC         0     0     0     0     0
    Total               7     0     2     4    13
  -------------------------------------------------

  ==> Integral Transformation <==

  Number of molecular orbitals:               13
  Number of correlated molecular orbitals:    13
  Number of frozen occupied orbitals:          0
  Number of frozen unoccupied orbitals:        0

    Molecular point group: c2v
    Full point group: C2v

    Geometry (in Bohr), charge = 0, multiplicity = 1:

       Center              X                  Y                   Z               Mass       
    ------------   -----------------  -----------------  -----------------  -----------------
          BE          0.000000000000     0.000000000000    -0.456946119527     9.012182201000
           H         -0.000000000000     1.390000000000     2.043053880473     1.007825032070
           H          0.000000000000    -1.390000000000     2.043053880473     1.007825032070

  -AO BASIS SET INFORMATION:
    Name                   = ANONYMOUS144
    Total number of shells = 9
    Number of primitives   = 21
    Number of AO           = 13
    Number of SO           = 13
    Maximum AM             = 1
    Spherical Harmonics    = TRUE

  -Contraction Scheme:
    Atom   Type   All Primitives // Shells:
   ------ ------ --------------------------
       1    BE     10s 3p // 3s 2p 
       2     H     4s // 2s 
       3     H     4s // 2s 

  ==> AO Basis Functions <==

    [ ANONYMOUS144 ]
    spherical
    ****
   BE   1
    S   6 1.00
                      1267.07000000           0.00194000
                       190.35600000           0.01478600
                        43.29590000           0.07179500
                        12.14420000           0.23634800
                         3.80923000           0.47176300
                         1.26847000           0.35518300
    S   3 1.00
                         5.69388000          -0.02887600
                         1.55563000          -0.17756500
                         0.17185500           1.07163000
    S   1 1.00
                         0.05718100           1.00000000
    P   2 1.00
                         1.55563000           0.14404500
                         0.17185500           0.94969200
    P   1 1.00
                         5.69388000           1.00000000
    ****
    H   2
    S   3 1.00
                        19.24060000           0.03282800
                         2.89920000           0.23120800
                         0.65340000           0.81723800
    S   1 1.00
                         0.17760000           1.00000000
    ****


  DFIntegrals overall time
  DFIntegrals take      0.10945100 s

                          ----------------------------
                            Semi-Canonical Orbitals
                            Francesco A. Evangelista
                          ----------------------------

 Took 0.006627 s to build fock matrix

  ==> Integral transformation <==
    Molecular point group: c2v
    Full point group: C2v

    Geometry (in Bohr), charge = 0, multiplicity = 1:

       Center              X                  Y                   Z               Mass       
    ------------   -----------------  -----------------  -----------------  -----------------
          BE          0.000000000000     0.000000000000    -0.456946119527     9.012182201000
           H         -0.000000000000     1.390000000000     2.043053880473     1.007825032070
           H          0.000000000000    -1.390000000000     2.043053880473     1.007825032070

  -AO BASIS SET INFORMATION:
    Name                   = ANONYMOUS144
    Total number of shells = 9
    Number of primitives   = 21
    Number of AO           = 13
    Number of SO           = 13
    Maximum AM             = 1
    Spherical Harmonics    = TRUE

  -Contraction Scheme:
    Atom   Type   All Primitives // Shells:
   ------ ------ --------------------------
       1    BE     10s 3p // 3s 2p 
       2     H     4s // 2s 
       3     H     4s // 2s 

  ==> AO Basis Functions <==

    [ ANONYMOUS144 ]
    spherical
    ****
   BE   1
    S   6 1.00
                      1267.07000000           0.00194000
                       190.35600000           0.01478600
                        43.29590000           0.07179500
                        12.14420000           0.23634800
                         3.80923000           0.47176300
                         1.26847000           0.35518300
    S   3 1.00
                         5.69388000          -0.02887600
                         1.55563000          -0.17756500
                         0.17185500           1.07163000
    S   1 1.00
                         0.05718100           1.00000000
    P   2 1.00
                         1.55563000           0.14404500
                         0.17185500           0.94969200
    P   1 1.00
                         5.69388000           1.00000000
    ****
    H   2
    S   3 1.00
                        19.24060000           0.03282800
                         2.89920000           0.23120800
                         0.65340000           0.81723800
    S   1 1.00
                         0.17760000           1.00000000
    ****


 Integrals are about to be computed.
 Integrals are about to be updated.
 SemiCanonicalize takes 0.114937 s.

           ---------------------------------------------------------
             DF/CD - Driven Similarity Renormalization Group MBPT2
                      Kevin Hannon and Chenyang (York) Li
                                   1 thread
           ---------------------------------------------------------

  Reference = RHF
  Reference Energy = -15.565633469491148

  ==> Checking Orbitals <==

    Checking if orbitals are semi-canonicalized ...     OK.
    Orbitals are semi-canonicalized.

  ==> Calculation Information <==

    Flow parameter                           5.000e-01
    Cholesky Tolerance                       1.000e-06
    Taylor expansion threshold               1.000e-03
    int_type                                        DF
    ccvv_algorithm                           FLY_AMBIT
    ccvv_source                                 NORMAL
    Computing T2                          ......Done. Timing        0.003510 s
    Renormalizing V                       ......Done. Timing        0.001693 s
    Computing T1                          ......Done. Timing        0.004994 s
    Renormalizing F                       ......Done. Timing        0.006452 s
    Computing <[F, T1]>                   ......Done. Timing        0.002221 s
    Computing <[F, T2]>                   ......Done. Timing        0.004256 s
    Computing <[V, T1]>                   ......Done. Timing        0.004055 s
    Computing <[V, T2]> (C_2)^4 (no ccvv) ......Done. Timing        0.025647 s
    Computing <[V, T2]> (C_2)^4 ccvv      ......Done. Timing        0.002531 s
    Computing <[V, T2]> 4HH               ......Done. Timing        0.006161 s
    Computing <V, T2]> 4PP                ......Done. Timing        0.006399 s
    Computing [V, T2] 4PH                 ......Done. Timing        0.025741 s
    Computing [V, T2] λ3                  ......Done. Timing        0.018802 s

  ==> DSRG-MRPT2 Energy Summary <==

    E0 (reference)                 =    -15.565633469491148
    <[F, T1]>                      =     -0.000005436576713
    <[F, T2]>                      =     -0.000001289387103
    <[V, T1]>                      =      0.000004009844042
    <[V, T2]> (C_2)^4              =     -0.047458214939961
    <[V, T2]> C_4 (C_2)^2 HH       =      0.000392414883318
    <[V, T2]> C_4 (C_2)^2 PP       =      0.000766528385711
    <[V, T2]> C_4 (C_2)^2 PH       =     -0.001593703870149
    <[V, T2]> C_6 C_2              =      0.000140161111320
    <[V, T2]>                      =     -0.047752814429760
    DSRG-MRPT2 correlation energy  =     -0.047755530549533
    DSRG-MRPT2 total energy        =    -15.613389000040682
    max(T1)                        =      0.000425821045759
    ||T1||                         =      0.001158511286533

  ==> Total Timings (s) for Computing Commutators <==

             [H1, T1]    [H1, T2]    [H2, T1]    [H2, T2]
    -----------------------------------------------------
    -> C0       0.002       0.004       0.004       0.067
    -> C1       0.000       0.000       0.000       0.000
    -> C2                   0.000       0.000       0.000
    -----------------------------------------------------


  Your calculation took 0.38306400 seconds
	DSRG-MRPT2 energy with fly_ambit..................................PASSED

*** Psi4 exiting successfully. Buy a developer a beer!
