    -----------------------------------------------------------------------
          Psi4: An Open-Source Ab Initio Electronic Structure Package
                              Psi4 (no tag) Driver

                          Git: Rev {master} 538ca27 

    J. M. Turney, A. C. Simmonett, R. M. Parrish, E. G. Hohenstein,
    F. A. Evangelista, J. T. Fermann, B. J. Mintz, L. A. Burns, J. J. Wilke,
    M. L. Abrams, N. J. Russ, M. L. Leininger, C. L. Janssen, E. T. Seidl,
    W. D. Allen, H. F. Schaefer, R. A. King, E. F. Valeev, C. D. Sherrill,
    and T. D. Crawford, WIREs Comput. Mol. Sci. 2, 556-565 (2012)
    (doi: 10.1002/wcms.93)

                         Additional Contributions by
    A. E. DePrince, U. Bozkaya, A. Yu. Sokolov, D. G. A. Smith, R. Di Remigio,
    R. M. Richard, J. F. Gonthier, H. R. McAlexander, M. Saitow, and
    B. P. Pritchard
    -----------------------------------------------------------------------


    Psi4 started on: Wed May 18 23:08:50 2016

    Process ID:  76036
    PSI4DATADIR: /Users/jeffschriber/src/psi4/share
    Memory level set to 256.000 MB

  ==> Input File <==

--------------------------------------------------------------------------
# HF, RHF canonical orbitals, CAS-CI(2,2)
#! Generated using commit GITCOMMIT

import forte

refscf = -108.71420304902
refaci = -108.874166965644
refacipt2 = -108.895740462661 

molecule hf{
   N
   N 1 1.732878731527
units bohr
}

set {
  basis dz
  scf_type pk
  e_convergence 10
  d_convergence 10
  r_convergence 10
  reference rhf
}

set forte {
  job_type aci
  frozen_docc [1,0,0,0,0,1,0,0]
  taup 0.05
  tauq 0.05
  charge 0
  nroot 2
  ACI_INITIAL_SPACE CIS
}

energy('scf')
compare_values(refscf, get_variable("SCF total energy"),10, "SCF energy") #TEST
energy('forte')
compare_values(refaci, get_variable("ACI ENERGY"),10, "ACI energy") #TEST
compare_values(refacipt2, get_variable("ACI+PT2 ENERGY"),10, "ACI+PT2 energy") #TEST
--------------------------------------------------------------------------
/Users/jeffschriber/src/forte/forte.so loaded.
    There are an even number of electrons - assuming singlet.
    Specify the multiplicity in the molecule input block.


*** tstart() called on Jeffs-MBP.attlocal.net
*** at Wed May 18 23:08:51 2016


         ---------------------------------------------------------
                                   SCF
            by Justin Turney, Rob Parrish, and Andy Simmonett
                              RHF Reference
                        1 Threads,    256 MiB Core
         ---------------------------------------------------------

  ==> Geometry <==

    Molecular point group: d2h
    Full point group: D_inf_h

    Geometry (in Bohr), charge = 0, multiplicity = 1:

       Center              X                  Y                   Z               Mass       
    ------------   -----------------  -----------------  -----------------  -----------------
           N          0.000000000000     0.000000000000    -0.866439365764    14.003074004780
           N          0.000000000000     0.000000000000     0.866439365764    14.003074004780

  Running in d2h symmetry.

  Rotational constants: A = ************  B =      2.86328  C =      2.86328 [cm^-1]
  Rotational constants: A = ************  B =  85839.10932  C =  85839.10932 [MHz]
  Nuclear repulsion =   28.276646893127690

  Charge       = 0
  Multiplicity = 1
  Electrons    = 14
  Nalpha       = 7
  Nbeta        = 7

  ==> Algorithm <==

  SCF Algorithm Type is PK.
  DIIS enabled.
  MOM disabled.
  Fractional occupation disabled.
  Guess Type is CORE.
  Energy threshold   = 1.00e-10
  Density threshold  = 1.00e-10
  Integral threshold = 0.00e+00

  ==> Primary Basis <==

  Basis Set: DZ
    Number of shells: 12
    Number of basis function: 20
    Number of Cartesian functions: 20
    Spherical Harmonics?: false
    Max angular momentum: 1

  ==> Pre-Iterations <==

   -------------------------------------------------------
    Irrep   Nso     Nmo     Nalpha   Nbeta   Ndocc  Nsocc
   -------------------------------------------------------
     Ag         6       6       0       0       0       0
     B1g        0       0       0       0       0       0
     B2g        2       2       0       0       0       0
     B3g        2       2       0       0       0       0
     Au         0       0       0       0       0       0
     B1u        6       6       0       0       0       0
     B2u        2       2       0       0       0       0
     B3u        2       2       0       0       0       0
   -------------------------------------------------------
    Total      20      20       7       7       7       0
   -------------------------------------------------------

  ==> Integral Setup <==

	Batch   1 pq = [       0,      54] index = [             0,1485]
  ==> DiskJK: Disk-Based J/K Matrices <==

    J tasked:                  Yes
    K tasked:                  Yes
    wK tasked:                  No
    Memory (MB):               183
    Schwarz Cutoff:          1E-12

  Minimum eigenvalue in the overlap matrix is 6.8091223357E-03.
  Using Symmetric Orthogonalization.
  SCF Guess: Core (One-Electron) Hamiltonian.

  ==> Iterations <==

                        Total Energy        Delta E     RMS |[F,P]|

    Occupation by irrep:
             Ag   B1g   B2g   B3g    Au   B1u   B2u   B3u 
    DOCC [     3,    0,    0,    0,    0,    2,    1,    1 ]

   @RHF iter   1:  -103.14918480295771   -1.03149e+02   4.62826e-01 
   @RHF iter   2:  -107.75655933192562   -4.60737e+00   1.31788e-01 DIIS
   @RHF iter   3:  -108.68165268864487   -9.25093e-01   2.39990e-02 DIIS
   @RHF iter   4:  -108.71212256000805   -3.04699e-02   4.97701e-03 DIIS
   @RHF iter   5:  -108.71417379373875   -2.05123e-03   6.18122e-04 DIIS
   @RHF iter   6:  -108.71420270438196   -2.89106e-05   6.27965e-05 DIIS
   @RHF iter   7:  -108.71420304747298   -3.43091e-07   4.64152e-06 DIIS
   @RHF iter   8:  -108.71420304899323   -1.52025e-09   7.02384e-07 DIIS
   @RHF iter   9:  -108.71420304902153   -2.83080e-11   5.43945e-08 DIIS
   @RHF iter  10:  -108.71420304902182   -2.84217e-13   6.73597e-09 DIIS
   @RHF iter  11:  -108.71420304902171    1.13687e-13   6.65674e-10 DIIS
   @RHF iter  12:  -108.71420304902185   -1.42109e-13   7.99258e-11 DIIS

  ==> Post-Iterations <==

    Orbital Energies (a.u.)
    -----------------------

    Doubly Occupied:                                                      

       1Ag   -15.694836     1B1u  -15.682376     2Ag    -1.661600  
       1B2u   -0.722145     1B3u   -0.722145     2B1u   -0.709986  
       3Ag    -0.635807  

    Virtual:                                                              

       1B3g    0.243293     1B2g    0.243293     3B1u    0.422436  
       4Ag     0.549316     2B2u    0.552418     2B3u    0.552418  
       2B3g    0.844824     2B2g    0.844824     5Ag     0.884369  
       4B1u    1.525943     5B1u    1.896247     6Ag    32.702720  
       6B1u   33.359671  

    Final Occupation by Irrep:
             Ag   B1g   B2g   B3g    Au   B1u   B2u   B3u 
    DOCC [     3,    0,    0,    0,    0,    2,    1,    1 ]

  Energy converged.

  @RHF Final Energy:  -108.71420304902185

   => Energetics <=

    Nuclear Repulsion Energy =             28.2766468931276904
    One-Electron Energy =                -202.3239087327522157
    Two-Electron Energy =                  65.3330587906027063
    DFT Exchange-Correlation Energy =       0.0000000000000000
    Empirical Dispersion Energy =           0.0000000000000000
    PCM Polarization Energy =               0.0000000000000000
    EFP Energy =                            0.0000000000000000
    Total Energy =                       -108.7142030490218190



Properties will be evaluated at   0.000000,   0.000000,   0.000000 Bohr
  ==> Properties <==


Properties computed using the SCF density matrix

  Nuclear Dipole Moment: (a.u.)
     X:     0.0000      Y:     0.0000      Z:     0.0000

  Electronic Dipole Moment: (a.u.)
     X:     0.0000      Y:     0.0000      Z:     0.0000

  Dipole Moment: (a.u.)
     X:     0.0000      Y:     0.0000      Z:     0.0000     Total:     0.0000

  Dipole Moment: (Debye)
     X:     0.0000      Y:     0.0000      Z:     0.0000     Total:     0.0000


  Saving occupied orbitals to File 180.

*** tstop() called on Jeffs-MBP.attlocal.net at Wed May 18 23:08:51 2016
Module time:
	user time   =       0.07 seconds =       0.00 minutes
	system time =       0.01 seconds =       0.00 minutes
	total time  =          0 seconds =       0.00 minutes
Total time:
	user time   =       0.07 seconds =       0.00 minutes
	system time =       0.01 seconds =       0.00 minutes
	total time  =          0 seconds =       0.00 minutes
	SCF energy........................................................PASSED

*** tstart() called on Jeffs-MBP.attlocal.net
*** at Wed May 18 23:08:51 2016


         ---------------------------------------------------------
                                   SCF
            by Justin Turney, Rob Parrish, and Andy Simmonett
                              RHF Reference
                        1 Threads,    256 MiB Core
         ---------------------------------------------------------

  ==> Geometry <==

    Molecular point group: d2h
    Full point group: D_inf_h

    Geometry (in Bohr), charge = 0, multiplicity = 1:

       Center              X                  Y                   Z               Mass       
    ------------   -----------------  -----------------  -----------------  -----------------
           N          0.000000000000     0.000000000000    -0.866439365764    14.003074004780
           N          0.000000000000     0.000000000000     0.866439365764    14.003074004780

  Running in d2h symmetry.

  Rotational constants: A = ************  B =      2.86328  C =      2.86328 [cm^-1]
  Rotational constants: A = ************  B =  85839.10932  C =  85839.10932 [MHz]
  Nuclear repulsion =   28.276646893127690

  Charge       = 0
  Multiplicity = 1
  Electrons    = 14
  Nalpha       = 7
  Nbeta        = 7

  ==> Algorithm <==

  SCF Algorithm Type is PK.
  DIIS enabled.
  MOM disabled.
  Fractional occupation disabled.
  Guess Type is CORE.
  Energy threshold   = 1.00e-10
  Density threshold  = 1.00e-10
  Integral threshold = 0.00e+00

  ==> Primary Basis <==

  Basis Set: DZ
    Number of shells: 12
    Number of basis function: 20
    Number of Cartesian functions: 20
    Spherical Harmonics?: false
    Max angular momentum: 1

  ==> Pre-Iterations <==

   -------------------------------------------------------
    Irrep   Nso     Nmo     Nalpha   Nbeta   Ndocc  Nsocc
   -------------------------------------------------------
     Ag         6       6       0       0       0       0
     B1g        0       0       0       0       0       0
     B2g        2       2       0       0       0       0
     B3g        2       2       0       0       0       0
     Au         0       0       0       0       0       0
     B1u        6       6       0       0       0       0
     B2u        2       2       0       0       0       0
     B3u        2       2       0       0       0       0
   -------------------------------------------------------
    Total      20      20       7       7       7       0
   -------------------------------------------------------

  ==> Integral Setup <==

	Batch   1 pq = [       0,      54] index = [             0,1485]
  ==> DiskJK: Disk-Based J/K Matrices <==

    J tasked:                  Yes
    K tasked:                  Yes
    wK tasked:                  No
    Memory (MB):               183
    Schwarz Cutoff:          1E-12

  Minimum eigenvalue in the overlap matrix is 6.8091223357E-03.
  Using Symmetric Orthogonalization.
  SCF Guess: Core (One-Electron) Hamiltonian.

  ==> Iterations <==

                        Total Energy        Delta E     RMS |[F,P]|

    Occupation by irrep:
             Ag   B1g   B2g   B3g    Au   B1u   B2u   B3u 
    DOCC [     3,    0,    0,    0,    0,    2,    1,    1 ]

   @RHF iter   1:  -103.14918480295771   -1.03149e+02   4.62826e-01 
   @RHF iter   2:  -107.75655933192562   -4.60737e+00   1.31788e-01 DIIS
   @RHF iter   3:  -108.68165268864487   -9.25093e-01   2.39990e-02 DIIS
   @RHF iter   4:  -108.71212256000803   -3.04699e-02   4.97701e-03 DIIS
   @RHF iter   5:  -108.71417379373878   -2.05123e-03   6.18122e-04 DIIS
   @RHF iter   6:  -108.71420270438188   -2.89106e-05   6.27965e-05 DIIS
   @RHF iter   7:  -108.71420304747301   -3.43091e-07   4.64152e-06 DIIS
   @RHF iter   8:  -108.71420304899317   -1.52016e-09   7.02384e-07 DIIS
   @RHF iter   9:  -108.71420304902162   -2.84501e-11   5.43945e-08 DIIS
   @RHF iter  10:  -108.71420304902176   -1.42109e-13   6.73596e-09 DIIS
   @RHF iter  11:  -108.71420304902171    5.68434e-14   6.65674e-10 DIIS
   @RHF iter  12:  -108.71420304902176   -5.68434e-14   7.99258e-11 DIIS

  ==> Post-Iterations <==

    Orbital Energies (a.u.)
    -----------------------

    Doubly Occupied:                                                      

       1Ag   -15.694836     1B1u  -15.682376     2Ag    -1.661600  
       1B2u   -0.722145     1B3u   -0.722145     2B1u   -0.709986  
       3Ag    -0.635807  

    Virtual:                                                              

       1B3g    0.243293     1B2g    0.243293     3B1u    0.422436  
       4Ag     0.549316     2B2u    0.552418     2B3u    0.552418  
       2B3g    0.844824     2B2g    0.844824     5Ag     0.884369  
       4B1u    1.525943     5B1u    1.896247     6Ag    32.702720  
       6B1u   33.359671  

    Final Occupation by Irrep:
             Ag   B1g   B2g   B3g    Au   B1u   B2u   B3u 
    DOCC [     3,    0,    0,    0,    0,    2,    1,    1 ]

  Energy converged.

  @RHF Final Energy:  -108.71420304902176

   => Energetics <=

    Nuclear Repulsion Energy =             28.2766468931276904
    One-Electron Energy =                -202.3239087327521020
    Two-Electron Energy =                  65.3330587906026494
    DFT Exchange-Correlation Energy =       0.0000000000000000
    Empirical Dispersion Energy =           0.0000000000000000
    PCM Polarization Energy =               0.0000000000000000
    EFP Energy =                            0.0000000000000000
    Total Energy =                       -108.7142030490217621



Properties will be evaluated at   0.000000,   0.000000,   0.000000 Bohr
  ==> Properties <==


Properties computed using the SCF density matrix

  Nuclear Dipole Moment: (a.u.)
     X:     0.0000      Y:     0.0000      Z:     0.0000

  Electronic Dipole Moment: (a.u.)
     X:     0.0000      Y:     0.0000      Z:     0.0000

  Dipole Moment: (a.u.)
     X:     0.0000      Y:     0.0000      Z:     0.0000     Total:     0.0000

  Dipole Moment: (Debye)
     X:     0.0000      Y:     0.0000      Z:     0.0000     Total:     0.0000


  Saving occupied orbitals to File 180.

*** tstop() called on Jeffs-MBP.attlocal.net at Wed May 18 23:08:51 2016
Module time:
	user time   =       0.07 seconds =       0.00 minutes
	system time =       0.02 seconds =       0.00 minutes
	total time  =          0 seconds =       0.00 minutes
Total time:
	user time   =       0.19 seconds =       0.00 minutes
	system time =       0.03 seconds =       0.00 minutes
	total time  =          0 seconds =       0.00 minutes

Reading options from the FORTE block
Calling plugin /Users/jeffschriber/src/forte/forte.so.




  ==> MO Space Information <==

  Read options for space FROZEN_DOCC
 Removing orbital 0
 Removing orbital 10
  -------------------------------------------------------------------------
                       Ag   B1g   B2g   B3g    Au   B1u   B2u   B3u   Sum
  -------------------------------------------------------------------------
    FROZEN_DOCC         1     0     0     0     0     1     0     0     2
    RESTRICTED_DOCC     0     0     0     0     0     0     0     0     0
    ACTIVE              5     0     2     2     0     5     2     2    18
    RESTRICTED_UOCC     0     0     0     0     0     0     0     0     0
    FROZEN_UOCC         0     0     0     0     0     0     0     0     0
    Total               6     0     2     2     0     6     2     2    20
  -------------------------------------------------------------------------

  ==> Integral Transformation <==

  Number of molecular orbitals:               20
  Number of correlated molecular orbitals:    18
  Number of frozen occupied orbitals:          2
  Number of frozen unoccupied orbitals:        0


  Overall Conventional Integrals timings

	Presorting SO-basis two-electron integrals.
	Sorting File: SO Ints (nn|nn) nbuckets = 1
	Transforming the one-electron integrals and constructing Fock matrices
	Starting first half-transformation.
	Sorting half-transformed integrals.
	First half integral transformation complete.
	Starting second half-transformation.
	Two-electron integral transformation complete.

  Integral transformation done. 0.01047500 s
  Reading the two-electron integrals from disk
  Size of two-electron integrals:   0.003576 GB	Batch   1 pq = [       0,      54] index = [             0,1485]

  Frozen-core energy           -103.314890096814 a.u.

 FrozenOneBody Operator takes  0.06830100 s
  Resorting integrals after freezing core.
  Conventional integrals take 0.14739800 s

                    ---------------------------------------
                      Adaptive Configuration Interaction
                      written by Francesco A. Evangelista
                    ---------------------------------------

  ==> Reference Information <==

  There are 2 frozen orbitals.
  There are 18 active orbitals.

  |220000000200002020>
  REFERENCE ENERGY:         -108.714203049022
  ==> Calculation Information <==

  -----------------------------------------------------------------
    Multiplicity                             1    
    Symmetry                                 0    
    Number of roots                          2    
    Root used for properties                 0    
    P-threshold                              5.00e-02
    Q-threshold                              5.00e-02
    Convergence threshold                    1.00e-10
    Determinant selection criterion          Second-order Energy
    Selection criterion                      Aimed selection
    PQ Function                              AVERAGE
    Q Type                                   Absolute Energy
    PT2 Parameters                           False
    Project out spin contaminants            True
    Enforce spin completeness of basis       True
    Enforce complete aimed selection         True
  -----------------------------------------------------------------

  ==> Cycle 0 <==

  Initial P space dimension: 25
  Spin-complete dimension of the P space: 25 determinants
  Time spent diagonalizing H:   0.001244 s
  Not performing spin projection.

    P-space  CI Energy Root   1        = -108.714203049022 Eh =   0.0000 eV
    P-space  CI Energy Root   2        = -107.988578320792 Eh =  19.7453 eV

  Dimension of the SD space: 11509 determinants
  Time spent building the model space: 0.086733 s

  Using non-perturbative energy estimates
  Added 2 missing determinants in aimed selection.
  Dimension of the P + Q space: 443 determinants
  Time spent screening the model space: 0.153306 s
  Spin-complete dimension of the PQ space: 813

  Davidson-liu solver algorithm
  Generating determinants with N-1 electrons.

  Time spen building single lists: 0.013429 s
  Memory for single-hole lists: 0.065689 MB
  Memory for single-hole maps:  0.262756 MB
  Generating determinants with N-2 electrons.

  Memory for double-hole lists: 0.253864 MB
  Memory for double-hole maps:  0.846214 MB
  number of guess vectors: 4
  Initial guess space is incomplete.
  Trying to add 19 determinant(s).  19 determinant(s) added.
  Initial guess found 83 solutions with 2S+1 = 1 *
  Initial guess found 102 solutions with 2S+1 = 3  
  Initial guess found 32 solutions with 2S+1 = 5  
  Initial guess found 2 solutions with 2S+1 = 7  
  Adding guess 0 (multiplicity = 1.000000)
  Adding guess 1 (multiplicity = 1.000000)
  Adding guess 2 (multiplicity = 1.000000)
  Adding guess 3 (multiplicity = 1.000000)

  ==> Diagonalizing Hamiltonian <==

  ----------------------------------------
    Iter.      Avg. Energy       Delta_E
  ----------------------------------------
      1     -136.678629448801  -1.367e+02
      2     -136.748347581328  -6.972e-02
      3     -136.753052580319  -4.705e-03
      4     -136.753757352198  -7.048e-04
      5     -136.753959193043  -2.018e-04
      6     -136.753984978988  -2.579e-05
      7     -136.753989896880  -4.918e-06
      8     -136.753991179307  -1.282e-06
      9     -136.753991681684  -5.024e-07
     10     -136.753991788670  -1.070e-07
     11     -136.753991813715  -2.505e-08
     12     -136.753991820802  -7.086e-09
     13     -136.753991823285  -2.483e-09
     14     -136.753991823884  -5.992e-10
     15     -136.753991824063  -1.788e-10
     16     -136.753991824126  -6.304e-11
     17     -136.753991824155  -2.944e-11
  ----------------------------------------
  The Davidson-Liu algorithm converged in 18 iterations.
  Time spent diagonalizing H:   0.967965 s
  Not performing spin projection.

    PQ-space CI Energy Root   1        = -108.874943520433 Eh =   0.0000 eV
    PQ-space CI Energy + EPT2 Root   1 = -108.892754294929 Eh =   0.0000 eV
    PQ-space CI Energy Root   2        = -108.079746341622 Eh =  21.6384 eV
    PQ-space CI Energy + EPT2 Root   2 = -108.161875707886 Eh =  19.8882 eV


  Most important contributions to root   0:
    0  -0.971488 0.943788119           0 |220000000200002020>
    1   0.063784 0.004068445         440 |220000020200000020>
    2   0.063784 0.004068445         439 |220002000200002000>
    3  -0.041448 0.001717904         438 |22000-0+020000-0+0>
    4  -0.041448 0.001717904         437 |22000+0-020000+0-0>
    5   0.040221 0.001617736         427 |220000020000002020>
    6   0.040221 0.001617736         426 |220002000000002020>
    7   0.038345 0.001470315         434 |22000-+00200002000>
    8   0.038345 0.001470315         433 |22000+-00200002000>
    9   0.038345 0.001470315         432 |2200000+-200000020>

  Spin state for root 0: S^2 = 0.000, S = 0.000, singlet (from 813 determinants, 100.00)

  Most important contributions to root   1:
    0  -0.588540 0.346378800          19 |220000000+-0002020>
    1  -0.588540 0.346378800           7 |220000000-+0002020>
    2   0.284592 0.080992586          16 |2+-000000200002020>
    3   0.284592 0.080992586           4 |2-+000000200002020>
    4   0.102004 0.010404902          11 |22000000020000-+20>
    5   0.102004 0.010404902          23 |22000000020000+-20>
    6   0.102004 0.010404902          24 |2200000002000020+->
    7   0.102004 0.010404902          12 |2200000002000020-+>
    8  -0.075009 0.005626359          98 |220000000020002020>
    9   0.056536 0.003196316         423 |2-000-0002+00020+0>

  Spin state for root 1: S^2 = 0.000, S = 0.000, singlet (from 813 determinants, 100.00)

  ==> Cycle 1 <==

  Initial P space dimension: 14
  Spin-complete dimension of the P space: 14 determinants
  Time spent diagonalizing H:   0.000441 s
  Not performing spin projection.

    P-space  CI Energy Root   1        = -108.739980071683 Eh =   0.0000 eV
    P-space  CI Energy Root   2        = -107.966242525354 Eh =  21.0545 eV

  Dimension of the SD space: 8721 determinants
  Time spent building the model space: 0.044459 s

  Using non-perturbative energy estimates
  Dimension of the P + Q space: 425 determinants
  Time spent screening the model space: 0.122590 s
  Spin-complete dimension of the PQ space: 849

  Davidson-liu solver algorithm
  Generating determinants with N-1 electrons.

  Time spen building single lists: 0.012922 s
  Memory for single-hole lists: 0.068684 MB
  Memory for single-hole maps:  0.274734 MB
  Generating determinants with N-2 electrons.

  Memory for double-hole lists: 0.264084 MB
  Memory for double-hole maps:  0.880280 MB
  number of guess vectors: 4
  Initial guess space is incomplete.
  Trying to add 19 determinant(s).  19 determinant(s) added.
  Initial guess found 82 solutions with 2S+1 = 1 *
  Initial guess found 102 solutions with 2S+1 = 3  
  Initial guess found 33 solutions with 2S+1 = 5  
  Initial guess found 2 solutions with 2S+1 = 7  
  Adding guess 0 (multiplicity = 1.000000)
  Adding guess 1 (multiplicity = 1.000000)
  Adding guess 2 (multiplicity = 1.000000)
  Adding guess 3 (multiplicity = 1.000000)

  ==> Diagonalizing Hamiltonian <==

  ----------------------------------------
    Iter.      Avg. Energy       Delta_E
  ----------------------------------------
      1     -136.680714725691  -1.367e+02
      2     -136.747650912446  -6.694e-02
      3     -136.752371219252  -4.720e-03
      4     -136.753077498762  -7.063e-04
      5     -136.753270827281  -1.933e-04
      6     -136.753296991069  -2.616e-05
      7     -136.753302186945  -5.196e-06
      8     -136.753303587630  -1.401e-06
      9     -136.753304111012  -5.234e-07
     10     -136.753304226946  -1.159e-07
     11     -136.753304252267  -2.532e-08
     12     -136.753304258641  -6.374e-09
     13     -136.753304260494  -1.853e-09
     14     -136.753304260876  -3.820e-10
     15     -136.753304260980  -1.040e-10
     16     -136.753304261015  -3.521e-11
  ----------------------------------------
  The Davidson-Liu algorithm converged in 17 iterations.
  Time spent diagonalizing H:   0.976038 s
  Not performing spin projection.

    PQ-space CI Energy Root   1        = -108.874166965644 Eh =   0.0000 eV
    PQ-space CI Energy + EPT2 Root   1 = -108.895740462661 Eh =   0.0000 eV
    PQ-space CI Energy Root   2        = -108.079147770130 Eh =  21.6336 eV
    PQ-space CI Energy + EPT2 Root   2 = -108.157337961621 Eh =  20.0930 eV


  Most important contributions to root   0:
    0  -0.971543 0.943896346          13 |220000000200002020>
    1   0.063980 0.004093490           2 |220000020200000020>
    2   0.063980 0.004093490           3 |220002000200002000>
    3  -0.041460 0.001718921         418 |22000+0-020000+0-0>
    4  -0.041460 0.001718921         417 |22000-0+020000-0+0>
    5   0.040762 0.001661557           1 |220000020000002020>
    6   0.040762 0.001661557           0 |220002000000002020>
    7   0.038538 0.001485143         424 |22000+-00200002000>
    8   0.038538 0.001485143         423 |22000-+00200002000>
    9   0.038538 0.001485143         422 |2200000-+200000020>

  Spin state for root 0: S^2 = 0.000, S = 0.000, singlet (from 849 determinants, 100.00)

  Most important contributions to root   1:
    0  -0.569343 0.324151775          12 |220000000+-0002020>
    1  -0.569343 0.324151775          11 |220000000-+0002020>
    2   0.321546 0.103391656           9 |2-+000000200002020>
    3   0.321546 0.103391656          10 |2+-000000200002020>
    4   0.104680 0.010957986           6 |22000000020000-+20>
    5   0.104680 0.010957986           5 |22000000020000+-20>
    6   0.104680 0.010957986           7 |2200000002000020+->
    7   0.104680 0.010957986           8 |2200000002000020-+>
    8  -0.072759 0.005293910           4 |220000000020002020>
    9   0.052711 0.002778456         413 |2-000-0002+00020+0>

  Spin state for root 1: S^2 = 0.000, S = 0.000, singlet (from 849 determinants, 100.00)

  ==> Cycle 2 <==

  Initial P space dimension: 14
  Spin-complete dimension of the P space: 14 determinants
  Time spent diagonalizing H:   0.000434 s
  Not performing spin projection.

    P-space  CI Energy Root   1        = -108.739980071683 Eh =   0.0000 eV
    P-space  CI Energy Root   2        = -107.966242525354 Eh =  21.0545 eV

  Dimension of the SD space: 8721 determinants
  Time spent building the model space: 0.040712 s

  Using non-perturbative energy estimates
  Dimension of the P + Q space: 425 determinants
  Time spent screening the model space: 0.111139 s
  Spin-complete dimension of the PQ space: 849

  Davidson-liu solver algorithm
  Generating determinants with N-1 electrons.

  Time spen building single lists: 0.012797 s
  Memory for single-hole lists: 0.068684 MB
  Memory for single-hole maps:  0.274734 MB
  Generating determinants with N-2 electrons.

  Memory for double-hole lists: 0.264084 MB
  Memory for double-hole maps:  0.880280 MB
  number of guess vectors: 4
  Initial guess space is incomplete.
  Trying to add 19 determinant(s).  19 determinant(s) added.
  Initial guess found 82 solutions with 2S+1 = 1 *
  Initial guess found 102 solutions with 2S+1 = 3  
  Initial guess found 33 solutions with 2S+1 = 5  
  Initial guess found 2 solutions with 2S+1 = 7  
  Adding guess 0 (multiplicity = 1.000000)
  Adding guess 1 (multiplicity = 1.000000)
  Adding guess 2 (multiplicity = 1.000000)
  Adding guess 3 (multiplicity = 1.000000)

  ==> Diagonalizing Hamiltonian <==

  ----------------------------------------
    Iter.      Avg. Energy       Delta_E
  ----------------------------------------
      1     -136.680714725691  -1.367e+02
      2     -136.747650912445  -6.694e-02
      3     -136.752371219252  -4.720e-03
      4     -136.753077498762  -7.063e-04
      5     -136.753270827281  -1.933e-04
      6     -136.753296991069  -2.616e-05
      7     -136.753302186945  -5.196e-06
      8     -136.753303587630  -1.401e-06
      9     -136.753304111012  -5.234e-07
     10     -136.753304226946  -1.159e-07
     11     -136.753304252267  -2.532e-08
     12     -136.753304258641  -6.374e-09
     13     -136.753304260494  -1.853e-09
     14     -136.753304260876  -3.820e-10
     15     -136.753304260980  -1.040e-10
     16     -136.753304261015  -3.513e-11
  ----------------------------------------
  The Davidson-Liu algorithm converged in 17 iterations.
  Time spent diagonalizing H:   0.897269 s
  Not performing spin projection.

    PQ-space CI Energy Root   1        = -108.874166965644 Eh =   0.0000 eV
    PQ-space CI Energy + EPT2 Root   1 = -108.895740462661 Eh =   0.0000 eV
    PQ-space CI Energy Root   2        = -108.079147770130 Eh =  21.6336 eV
    PQ-space CI Energy + EPT2 Root   2 = -108.157337961621 Eh =  20.0930 eV

  ***** Calculation Converged *****
  Not performing spin projection.
  1-RDM  took 0.011050 s (determinant)

  ==> ACI Summary <==

  Iterations required:                         2
  Dimension of optimized determinant space:    849

  * Adaptive-CI Energy Root   1        = -108.874166965644 Eh =   0.0000 eV
  * Adaptive-CI Energy Root   1 + EPT2 = -108.895740462661 Eh =   0.0000 eV
  * Adaptive-CI Energy Root   2        = -108.079147770130 Eh =  21.6336 eV
  * Adaptive-CI Energy Root   2 + EPT2 = -108.157337961621 Eh =  20.0930 eV

  ==> Wavefunction Information <==

  Most important contributions to root   0:
    0  -0.971543 0.943896346          13 |220000000200002020>
    1   0.063980 0.004093490           2 |220000020200000020>
    2   0.063980 0.004093490           3 |220002000200002000>
    3  -0.041460 0.001718921         418 |22000-0+020000-0+0>
    4  -0.041460 0.001718921         417 |22000+0-020000+0-0>
    5   0.040762 0.001661557           1 |220000020000002020>
    6   0.040762 0.001661557           0 |220002000000002020>
    7   0.038538 0.001485143         424 |22000+-00200002000>
    8   0.038538 0.001485143         423 |22000-+00200002000>
    9   0.038538 0.001485143         422 |2200000-+200000020>

  Spin state for root 0: S^2 = 0.000, S = 0.000, singlet (from 849 determinants, 100.00)

  Most important contributions to root   1:
    0   0.569343 0.324151775          11 |220000000-+0002020>
    1   0.569343 0.324151775          12 |220000000+-0002020>
    2  -0.321546 0.103391656          10 |2-+000000200002020>
    3  -0.321546 0.103391656           9 |2+-000000200002020>
    4  -0.104680 0.010957986           6 |22000000020000-+20>
    5  -0.104680 0.010957986           5 |22000000020000+-20>
    6  -0.104680 0.010957986           8 |2200000002000020+->
    7  -0.104680 0.010957986           7 |2200000002000020-+>
    8   0.072759 0.005293910           4 |220000000020002020>
    9  -0.052711 0.002778456         413 |2-000-0002+00020+0>

  Spin state for root 1: S^2 = 0.000, S = 0.000, singlet (from 849 determinants, 100.00)

     Order		 # of Dets        Total |c^2|   
  __________ 	____________   ________________ 
       0                  1           0.94389634572
       1                 14           0.00090747414
       2                348           0.05510672833
       3                486           0.00008945182

  Highest-order excitation searched:     6  

       0                  1           0.00095578011
       1                 14           0.90001041540
       2                348           0.06590317657
       3                486           0.03313062792

  Highest-order excitation searched:     6  


  Adaptive-CI (bitset) ran in : 14.824814 s

  Saving information for root: 1

  Your calculation took 15.02265300 seconds
	ACI energy........................................................PASSED
	ACI+PT2 energy....................................................PASSED

*** PSI4 exiting successfully. Buy a developer a beer!
