
    -----------------------------------------------------------------------
          Psi4: An Open-Source Ab Initio Electronic Structure Package
                               Psi4 1.8a1.dev5 

                         Git: Rev {master} 4d94910 


    D. G. A. Smith, L. A. Burns, A. C. Simmonett, R. M. Parrish,
    M. C. Schieber, R. Galvelis, P. Kraus, H. Kruse, R. Di Remigio,
    A. Alenaizan, A. M. James, S. Lehtola, J. P. Misiewicz, M. Scheurer,
    R. A. Shaw, J. B. Schriber, Y. Xie, Z. L. Glick, D. A. Sirianni,
    J. S. O'Brien, J. M. Waldrop, A. Kumar, E. G. Hohenstein,
    B. P. Pritchard, B. R. Brooks, H. F. Schaefer III, A. Yu. Sokolov,
    K. Patkowski, A. E. DePrince III, U. Bozkaya, R. A. King,
    F. A. Evangelista, J. M. Turney, T. D. Crawford, C. D. Sherrill,
    J. Chem. Phys. 152(18) 184108 (2020). https://doi.org/10.1063/5.0006002

                            Additional Code Authors
    E. T. Seidl, C. L. Janssen, E. F. Valeev, M. L. Leininger,
    J. F. Gonthier, R. M. Richard, H. R. McAlexander, M. Saitow, X. Wang,
    P. Verma, M. H. Lechner, A. Jiang, S. Behnle, A. G. Heide,
    M. F. Herbst, and D. L. Poole

             Previous Authors, Complete List of Code Contributors,
                       and Citations for Specific Modules
    https://github.com/psi4/psi4/blob/master/codemeta.json
    https://github.com/psi4/psi4/graphs/contributors
    http://psicode.org/psi4manual/master/introduction.html#citing-psifour

    -----------------------------------------------------------------------


    Psi4 started on: Monday, 16 January 2023 08:24AM

    Process ID: 1978
    Host:       CHE-FEVANGE-01i
    PSIDATADIR: /Users/fevange/Source/psi4/objdir-Release/stage/share/psi4
    Memory:     500.0 MiB
    Threads:    1
    
  ==> Input File <==

--------------------------------------------------------------------------
# GAS ACI calculation for core excited state of CO

import forte

gsaci = -112.7959612732 #TEST
gsacipt2 = -112.7969443124 #TEST
exaci = -92.6912453842 #TEST
exacipt2 = -92.6922386459 #TEST

molecule CO{
0 1
C
O 1 1.123708
}

set {
  basis 6-31g**
  e_convergence 10
  d_convergence 8
  r_convergence 10
  scf_type pk
}

set forte {
  active_space_solver aci
  ms 0.0
  multiplicity 1
  sigma 0.001
  nroot 1
  root_sym 0
  charge 0
  sci_enforce_spin_complete true
  active_ref_type gas_single
  charge 0
  GAS1 [1,0,0,0]
  GAS2 [5,0,2,2]
  GAS1MAX [2]
  GAS1MIN [0]
}

escf ,wfn = energy('scf',return_wfn = True)

energy('forte',ref_wfn = wfn)
compare_values(gsaci, variable("ACI ENERGY"),9, "ACI energy") #TEST
compare_values(gsacipt2, variable("ACI+PT2 ENERGY"),9, "ACI+PT2 energy") #TEST

set forte {
  GAS1MAX [1]
  GAS1MIN [0]
  root_sym 2
  multiplicity 3
}

energy('forte',ref_wfn = wfn)
compare_values(exaci, variable("ACI ENERGY"),9, "ACI energy") #TEST     
compare_values(exacipt2, variable("ACI+PT2 ENERGY"), 9, "ACI+PT2 energy") #TEST
--------------------------------------------------------------------------

Scratch directory: /tmp/

*** tstart() called on CHE-FEVANGE-01i
*** at Mon Jan 16 08:24:09 2023

   => Loading Basis Set <=

    Name: 6-31G**
    Role: ORBITAL
    Keyword: BASIS
    atoms 1 entry C          line   115 file /Users/fevange/Source/psi4/objdir-Release/stage/share/psi4/basis/6-31gss.gbs 
    atoms 2 entry O          line   149 file /Users/fevange/Source/psi4/objdir-Release/stage/share/psi4/basis/6-31gss.gbs 


         ---------------------------------------------------------
                                   SCF
               by Justin Turney, Rob Parrish, Andy Simmonett
                          and Daniel G. A. Smith
                              RHF Reference
                        1 Threads,    500 MiB Core
         ---------------------------------------------------------

  ==> Geometry <==

    Molecular point group: c2v
    Full point group: C_inf_v

    Geometry (in Angstrom), charge = 0, multiplicity = 1:

       Center              X                  Y                   Z               Mass       
    ------------   -----------------  -----------------  -----------------  -----------------
         C            0.000000000000     0.000000000000    -0.642031374683    12.000000000000
         O            0.000000000000     0.000000000000     0.481676625317    15.994914619570

  Running in c2v symmetry.

  Rotational constants: A = ************  B =      1.94718  C =      1.94718 [cm^-1]
  Rotational constants: A = ************  B =  58374.91066  C =  58374.91066 [MHz]
  Nuclear repulsion =   22.604187308589072

  Charge       = 0
  Multiplicity = 1
  Electrons    = 14
  Nalpha       = 7
  Nbeta        = 7

  ==> Algorithm <==

  SCF Algorithm Type is PK.
  DIIS enabled.
  MOM disabled.
  Fractional occupation disabled.
  Guess Type is SAD.
  Energy threshold   = 1.00e-10
  Density threshold  = 1.00e-08
  Integral threshold = 1.00e-12

  ==> Primary Basis <==

  Basis Set: 6-31G**
    Blend: 6-31G**
    Number of shells: 12
    Number of basis functions: 30
    Number of Cartesian functions: 30
    Spherical Harmonics?: false
    Max angular momentum: 2

  ==> Integral Setup <==

  Using in-core PK algorithm.
   Calculation information:
      Number of atoms:                   2
      Number of AO shells:              12
      Number of primitives:             30
      Number of atomic orbitals:        30
      Number of basis functions:        30

      Integral cutoff                 1.00e-12
      Number of threads:                 1

  Performing in-core PK
  Using 216690 doubles for integral storage.
  We computed 3081 shell quartets total.
  Whereas there are 3081 unique shell quartets.

  ==> DiskJK: Disk-Based J/K Matrices <==

    J tasked:                  Yes
    K tasked:                  Yes
    wK tasked:                  No
    Memory [MiB]:              375
    Schwarz Cutoff:          1E-12

    OpenMP threads:              1

  Minimum eigenvalue in the overlap matrix is 7.6561678406E-03.
  Reciprocal condition number of the overlap matrix is 1.4485031790E-03.
    Using symmetric orthogonalization.

  ==> Pre-Iterations <==

  SCF Guess: Superposition of Atomic Densities via on-the-fly atomic UHF (no occupation information).

   -------------------------
    Irrep   Nso     Nmo    
   -------------------------
     A1        16      16 
     A2         2       2 
     B1         6       6 
     B2         6       6 
   -------------------------
    Total      30      30
   -------------------------

  ==> Iterations <==

                        Total Energy        Delta E     RMS |[F,P]|

   @RHF iter SAD:  -111.90075982217573   -1.11901e+02   0.00000e+00 
   @RHF iter   1:  -112.71364970656964   -8.12890e-01   1.40187e-02 ADIIS/DIIS
   @RHF iter   2:  -112.72332142983869   -9.67172e-03   1.10627e-02 ADIIS/DIIS
   @RHF iter   3:  -112.73746488071350   -1.41435e-02   9.93523e-04 ADIIS/DIIS
   @RHF iter   4:  -112.73760756118145   -1.42680e-04   1.29004e-04 ADIIS/DIIS
   @RHF iter   5:  -112.73761088236398   -3.32118e-06   2.46908e-05 DIIS
   @RHF iter   6:  -112.73761100766309   -1.25299e-07   3.29006e-06 DIIS
   @RHF iter   7:  -112.73761101088468   -3.22159e-09   7.25125e-07 DIIS
   @RHF iter   8:  -112.73761101102906   -1.44382e-10   2.04523e-07 DIIS
   @RHF iter   9:  -112.73761101103874   -9.67759e-12   1.50212e-08 DIIS
   @RHF iter  10:  -112.73761101103857    1.70530e-13   1.10144e-09 DIIS
  Energy and wave function converged.


  ==> Post-Iterations <==

    Orbital Energies [Eh]
    ---------------------

    Doubly Occupied:                                                      

       1A1   -20.675093     2A1   -11.359272     3A1    -1.522248  
       4A1    -0.796931     1B1    -0.634858     1B2    -0.634858  
       5A1    -0.547137  

    Virtual:                                                              

       2B1     0.163685     2B2     0.163685     6A1     0.409061  
       3B1     0.733489     3B2     0.733489     7A1     0.758352  
       8A1     0.995752     9A1     1.103683     4B1     1.207063  
       4B2     1.207063    10A1     1.611233    11A1     1.747874  
       1A2     1.747874     5B2     1.848075     5B1     1.848075  
      12A1     2.264383     2A2     2.264383    13A1     2.782669  
       6B2     2.957883     6B1     2.957883    14A1     3.360305  
      15A1     4.103048    16A1     4.302533  

    Final Occupation by Irrep:
             A1    A2    B1    B2 
    DOCC [     5,    0,    1,    1 ]
    NA   [     5,    0,    1,    1 ]
    NB   [     5,    0,    1,    1 ]

  @RHF Final Energy:  -112.73761101103857

   => Energetics <=

    Nuclear Repulsion Energy =             22.6041873085890721
    One-Electron Energy =                -198.3428006675270581
    Two-Electron Energy =                  63.0010023478994157
    Total Energy =                       -112.7376110110385667

Computation Completed


Properties will be evaluated at   0.000000,   0.000000,   0.000000 [a0]

Properties computed using the SCF density matrix


 Multipole Moments:

 ------------------------------------------------------------------------------------
     Multipole            Electronic (a.u.)      Nuclear  (a.u.)        Total (a.u.)
 ------------------------------------------------------------------------------------

 L = 1.  Multiply by 2.5417464519 to convert [e a0] to [Debye]
 Dipole X            :          0.0000000            0.0000000            0.0000000
 Dipole Y            :          0.0000000            0.0000000            0.0000000
 Dipole Z            :         -0.1246232            0.0023145           -0.1223087
 Magnitude           :                                                    0.1223087

 ------------------------------------------------------------------------------------

*** tstop() called on CHE-FEVANGE-01i at Mon Jan 16 08:24:09 2023
Module time:
	user time   =       0.15 seconds =       0.00 minutes
	system time =       0.03 seconds =       0.00 minutes
	total time  =          0 seconds =       0.00 minutes
Total time:
	user time   =       0.15 seconds =       0.00 minutes
	system time =       0.03 seconds =       0.00 minutes
	total time  =          0 seconds =       0.00 minutes

Scratch directory: /tmp/

  Forte
  ----------------------------------------------------------------------------
  A suite of quantum chemistry methods for strongly correlated electrons

    git branch: master - git commit: 4225e1f0

  Developed by:
    Francesco A. Evangelista, Chenyang Li, Kevin P. Hannon,
    Jeffrey B. Schriber, Tianyuan Zhang, Chenxi Cai,
    Nan He, Nicholas Stair, Shuhe Wang, Renke Huang
  ----------------------------------------------------------------------------

  Size of Determinant class: 128 bits

  Preparing forte objects from a Psi4 Wavefunction object
  Read options for space GAS1
  Read options for space GAS2
  Read options for space GAS1
  Read options for space GAS2

  ==> MO Space Information <==

  -------------------------------------------------
                       A1    A2    B1    B2   Sum
  -------------------------------------------------
    FROZEN_DOCC         0     0     0     0     0
    RESTRICTED_DOCC     0     0     0     0     0
    GAS1                1     0     0     0     1
    GAS2                5     0     2     2     9
    GAS3                0     0     0     0     0
    GAS4                0     0     0     0     0
    GAS5                0     0     0     0     0
    GAS6                0     0     0     0     0
    RESTRICTED_UOCC    10     2     4     4    20
    FROZEN_UOCC         0     0     0     0     0
    Total              16     2     6     6    30
  -------------------------------------------------   => Loading Basis Set <=

    Name: 6-31G**
    Role: ORBITAL
    Keyword: BASIS
    atoms 1 entry C          line   115 file /Users/fevange/Source/psi4/objdir-Release/stage/share/psi4/basis/6-31gss.gbs 
    atoms 2 entry O          line   149 file /Users/fevange/Source/psi4/objdir-Release/stage/share/psi4/basis/6-31gss.gbs 


  Checking orbital orthonormality against current geometry ... Done (OK)

   => Loading Basis Set <=

    Name: STO-3G
    Role: ORBITAL
    Keyword: MINAO_BASIS
    atoms 1 entry C          line    61 file /Users/fevange/Source/psi4/objdir-Release/stage/share/psi4/basis/sto-3g.gbs 
    atoms 2 entry O          line    81 file /Users/fevange/Source/psi4/objdir-Release/stage/share/psi4/basis/sto-3g.gbs 


  Forte will use psi4 integrals

  ==> Primary Basis Set Summary <==

  Basis Set: 6-31G**
    Blend: 6-31G**
    Number of shells: 12
    Number of basis functions: 30
    Number of Cartesian functions: 30
    Spherical Harmonics?: false
    Max angular momentum: 2


  JK created using conventional PK integrals
  Using in-core PK algorithm.
   Calculation information:
      Number of atoms:                   2
      Number of AO shells:              12
      Number of primitives:             30
      Number of atomic orbitals:        30
      Number of basis functions:        30

      Integral cutoff                 1.00e-12
      Number of threads:                 1

  Performing in-core PK
  Using 216690 doubles for integral storage.
  We computed 3081 shell quartets total.
  Whereas there are 3081 unique shell quartets.

  ==> DiskJK: Disk-Based J/K Matrices <==

    J tasked:                  Yes
    K tasked:                  Yes
    wK tasked:                  No
    Memory [MiB]:              400
    Schwarz Cutoff:          1E-12

    OpenMP threads:              1



  ==> Integral Transformation <==

  Number of molecular orbitals:                         30
  Number of correlated molecular orbitals:              30
  Number of frozen occupied orbitals:                    0
  Number of frozen unoccupied orbitals:                  0
  Two-electron integral type:                 Conventional


  Computing Conventional Integrals	Presorting SO-basis two-electron integrals.
	Sorting File: SO Ints (nn|nn) nbuckets = 1
	Constructing frozen core operators
	Starting first half-transformation.
	Sorting half-transformed integrals.
	First half integral transformation complete.
	Starting second half-transformation.
	Two-electron integral transformation complete.

  Integral transformation done. 0.01114929 s
  Reading the two-electron integrals from disk
  Size of two-electron integrals:   0.018105 GB
  Timing for conventional integral transformation:            0.026 s.
  Timing for freezing core and virtual orbitals:              0.000 s.
  Timing for computing conventional integrals:                0.026 s.

  ==> Summary of Active Space Solver Input <==

    Irrep.  Multi.(2ms)      N
    --------------------------
       A1      1  (  0)      1
    --------------------------
    N: number of roots
    ms: spin z component
    Total number of roots:   1
    --------------------------


--------------------------------------------------------------------------------
               Selected Configuration Interaction Excited States
  written by Jeffrey B. Schriber, Tianyuan Zhang, and Francesco A. Evangelista
--------------------------------------------------------------------------------

  ==> Calculation Information <==

  -----------------------------------------------------------------
    Multiplicity                             1    
    Symmetry                                 0    
    Number of roots                          1    
    Ms                                       0
    Excited Algorithm                        NONE
  -----------------------------------------------------------------
  Using 1 thread(s)
  Computing wavefunction for root 0

        ---------------------------------------------------------------
                      Adaptive Configuration Interaction
          written by Jeffrey B. Schriber and Francesco A. Evangelista
        ---------------------------------------------------------------

  ==> Reference Information <==

  There are 0 frozen orbitals.
  There are 10 active orbitals.

  ==> Calculation Information <==

  -----------------------------------------------------------------
    Multiplicity                             1    
    Symmetry                                 0    
    Number of roots                          1    
    Root used for properties                 0    
    Roots used for averaging                 1    
    Root averaging offset                    0    
    Sigma (Eh)                               1.00e-03
    Gamma (Eh^(-1))                          1.00e+00
    Convergence threshold                    1.00e-09
    Ms                                       0
    Diagonalization algorithm                SPARSE
    Excited Algorithm                        NONE
    Project out spin contaminants            True
    Enforce spin completeness of basis       True
    Enforce complete aimed selection         True
    Multiroot averaging                      Average
  -----------------------------------------------------------------
  Number of active orbitals: 10
  Number of active alpha electrons: 7
  Number of active beta electrons: 7

  ==> GAS Orbital Energies from SCF <==

    GAS        Energy  Index
    ------------------------
     1   -20.67509326      0
     2   -11.35927182      1
     2    -1.52224836      2
     2    -0.79693086      3
     2    -0.54713745      4
     2     0.40906066      5
     2    -0.63485812      6
     2     0.16368498      7
     2    -0.63485812      8
     2     0.16368498      9
    ------------------------

  ==> Number of Electrons in GAS <==

    GAS  MAX  MIN
    -------------
      1    2    0
      2   14    0
    -------------

  ==> Possible Electron Occupations in GAS <==

    Config.  1_A  1_B  2_A  2_B
    ---------------------------
         1     1    1    6    6
         2     1    0    6    7
         3     0    1    7    6
         4     0    0    7    7
    ---------------------------
    n_A/B: # of alpha/beta electrons in GASn

  ==> Building GAS Determinants <==

    Reference determinant: |2222202020>


  ---------------------------------- Cycle 0 -----------------------------------

  ==> Diagonalizing the Hamiltonian in the P space <==

  Initial P space dimension: 1
  Spin-complete dimension of the P space: 1 determinants

  ==> Computing 1 Coupling Lists <==

        α          3.708e-06 seconds
        β          2.458e-06 seconds

  ==> Computing 2 Coupling Lists <==

        αα         3.917e-06 seconds
        ββ         3.458e-06 seconds
        αβ         6.292e-06 seconds

  Davidson-Liu solver algorithm using SigmaVectorSparseList sigma algorithm

  Performing diagonalization of the H matrix
  Found 1 roots with 2S+1 = 1 *
  Time spent diagonalizing H:   0.000075 s

    P-space  CI Energy Root   0        = -112.737611011038 Eh =   0.0000 eV, S^2 = 0.000000


  ==> Finding the Q space <==

  Using SR screening algorithm
  Time spent forming F space:             0.000023
  Time spent merging thread F spaces:             0.000015
  Size of F space: 161
  Time spent building sorting list: 0.000017
  Added 1 missing determinants in aimed selection (find_q_space).
  Dimension of the PQ space:                  49
  Dimension of the PQ space (spin-complete) : 53
  Time spent building the model space: 0.000095

  ==> Diagonalizing the Hamiltonian in the P + Q space <==

  Number of reference roots: 1

  ==> Computing 1 Coupling Lists <==

        α          4.163e-05 seconds
        β          4.029e-05 seconds

  ==> Computing 2 Coupling Lists <==

        αα         1.038e-04 seconds
        ββ         1.030e-04 seconds
        αβ         2.608e-04 seconds

  Davidson-Liu solver algorithm using SigmaVectorSparseList sigma algorithm

  Performing diagonalization of the H matrix
  Found 29 roots with 2S+1 = 1 *
  Found 19 roots with 2S+1 = 3
  Found 5 roots with 2S+1 = 5
  Total time spent diagonalizing H:   0.001025 s

    PQ-space CI Energy Root   0        = -112.790124530552 Eh =   0.0000 eV, S^2 = 0.000000
    PQ-space CI Energy + EPT2 Root   0 = -112.791052248124 Eh =   0.0000 eV


  ==> GAS Contribution Analysis <==

  Root 0:
    Config.  1_A  1_B  2_A  2_B  Contribution
    -----------------------------------------
         1     1    1    6    6 100.00000000%
         2     1    0    6    7   0.00000000%
         3     0    1    7    6   0.00000000%
         4     0    0    7    7   0.00000000%
    -----------------------------------------
               GAS1      GAS2    Contribution
    -----------------------------------------
                  0        14     0.00000000%
                  1        13     0.00000000%
                  2        12   100.00000000%
    -----------------------------------------

  ==> Pruning the Q space <==

  Added 1 missing determinants in aimed selection (prune_q_space).
  Cycle 0 took: 0.001425 s


  ---------------------------------- Cycle 1 -----------------------------------

  ==> Diagonalizing the Hamiltonian in the P space <==

  Initial P space dimension: 30
  Spin-complete dimension of the P space: 42 determinants

  ==> Computing 1 Coupling Lists <==

        α          3.504e-05 seconds
        β          3.421e-05 seconds

  ==> Computing 2 Coupling Lists <==

        αα         9.058e-05 seconds
        ββ         8.842e-05 seconds
        αβ         2.145e-04 seconds

  Davidson-Liu solver algorithm using SigmaVectorSparseList sigma algorithm

  Performing diagonalization of the H matrix
  Found 20 roots with 2S+1 = 1 *
  Found 17 roots with 2S+1 = 3
  Found 5 roots with 2S+1 = 5
  Time spent diagonalizing H:   0.000839 s

    P-space  CI Energy Root   0        = -112.789304789898 Eh =   0.0000 eV, S^2 = 0.000000


  ==> Finding the Q space <==

  Using SR screening algorithm
  Time spent forming F space:             0.000321
  Time spent merging thread F spaces:             0.000073
  Size of F space: 1724
  Time spent building sorting list: 0.000163
  Added 3 missing determinants in aimed selection (find_q_space).
  Dimension of the PQ space:                  108
  Dimension of the PQ space (spin-complete) : 146
  Time spent building the model space: 0.000765

  ==> Diagonalizing the Hamiltonian in the P + Q space <==

  Number of reference roots: 1

  ==> Computing 1 Coupling Lists <==

        α          1.102e-04 seconds
        β          1.132e-04 seconds

  ==> Computing 2 Coupling Lists <==

        αα         2.942e-04 seconds
        ββ         3.164e-04 seconds
        αβ         7.391e-04 seconds

  Davidson-Liu solver algorithm using SigmaVectorSparseList sigma algorithm

  Performing diagonalization of the H matrix
  Found 64 roots with 2S+1 = 1 *
  Found 63 roots with 2S+1 = 3
  Found 18 roots with 2S+1 = 5
  Found 1 roots with 2S+1 = 7
  Total time spent diagonalizing H:   0.005066 s

    PQ-space CI Energy Root   0        = -112.796040156342 Eh =   0.0000 eV, S^2 = 0.000000
    PQ-space CI Energy + EPT2 Root   0 = -112.797023896339 Eh =   0.0000 eV


  ==> GAS Contribution Analysis <==

  Root 0:
    Config.  1_A  1_B  2_A  2_B  Contribution
    -----------------------------------------
         1     1    1    6    6 100.00000000%
         2     1    0    6    7   0.00000000%
         3     0    1    7    6   0.00000000%
         4     0    0    7    7   0.00000000%
    -----------------------------------------
               GAS1      GAS2    Contribution
    -----------------------------------------
                  0        14     0.00000000%
                  1        13     0.00000000%
                  2        12   100.00000000%
    -----------------------------------------

  ==> Pruning the Q space <==

  Added 2 missing determinants in aimed selection (prune_q_space).
  Cycle 1 took: 0.006995 s


  ---------------------------------- Cycle 2 -----------------------------------

  ==> Diagonalizing the Hamiltonian in the P space <==

  Initial P space dimension: 57
  Spin-complete dimension of the P space: 61 determinants

  ==> Computing 1 Coupling Lists <==

        α          4.796e-05 seconds
        β          4.592e-05 seconds

  ==> Computing 2 Coupling Lists <==

        αα         1.207e-04 seconds
        ββ         1.259e-04 seconds
        αβ         3.016e-04 seconds

  Davidson-Liu solver algorithm using SigmaVectorSparseList sigma algorithm

  Performing diagonalization of the H matrix
  Found 32 roots with 2S+1 = 1 *
  Found 24 roots with 2S+1 = 3
  Found 5 roots with 2S+1 = 5
  Time spent diagonalizing H:   0.001207 s

    P-space  CI Energy Root   0        = -112.794513595307 Eh =   0.0000 eV, S^2 = 0.000000


  ==> Finding the Q space <==

  Using SR screening algorithm
  Time spent forming F space:             0.000438
  Time spent merging thread F spaces:             0.000082
  Size of F space: 2098
  Time spent building sorting list: 0.000198
  Dimension of the PQ space:                  102
  Dimension of the PQ space (spin-complete) : 124
  Time spent building the model space: 0.000939

  ==> Diagonalizing the Hamiltonian in the P + Q space <==

  Number of reference roots: 1

  ==> Computing 1 Coupling Lists <==

        α          9.379e-05 seconds
        β          8.771e-05 seconds

  ==> Computing 2 Coupling Lists <==

        αα         2.423e-04 seconds
        ββ         2.411e-04 seconds
        αβ         5.664e-04 seconds

  Davidson-Liu solver algorithm using SigmaVectorSparseList sigma algorithm

  Performing diagonalization of the H matrix
  Found 58 roots with 2S+1 = 1 *
  Found 51 roots with 2S+1 = 3
  Found 14 roots with 2S+1 = 5
  Found 1 roots with 2S+1 = 7
  Total time spent diagonalizing H:   0.003386 s

    PQ-space CI Energy Root   0        = -112.795961273186 Eh =   0.0000 eV, S^2 = 0.000000
    PQ-space CI Energy + EPT2 Root   0 = -112.796944312401 Eh =   0.0000 eV


  ==> GAS Contribution Analysis <==

  Root 0:
    Config.  1_A  1_B  2_A  2_B  Contribution
    -----------------------------------------
         1     1    1    6    6 100.00000000%
         2     1    0    6    7   0.00000000%
         3     0    1    7    6   0.00000000%
         4     0    0    7    7   0.00000000%
    -----------------------------------------
               GAS1      GAS2    Contribution
    -----------------------------------------
                  0        14     0.00000000%
                  1        13     0.00000000%
                  2        12   100.00000000%
    -----------------------------------------

  ==> Pruning the Q space <==

  Added 3 missing determinants in aimed selection (prune_q_space).
  Cycle 2 took: 0.005865 s


  ---------------------------------- Cycle 3 -----------------------------------

  ==> Diagonalizing the Hamiltonian in the P space <==

  Initial P space dimension: 57
  Spin-complete dimension of the P space: 61 determinants

  ==> Computing 1 Coupling Lists <==

        α          4.750e-05 seconds
        β          4.671e-05 seconds

  ==> Computing 2 Coupling Lists <==

        αα         1.213e-04 seconds
        ββ         1.192e-04 seconds
        αβ         2.969e-04 seconds

  Davidson-Liu solver algorithm using SigmaVectorSparseList sigma algorithm

  Performing diagonalization of the H matrix
  Found 32 roots with 2S+1 = 1 *
  Found 24 roots with 2S+1 = 3
  Found 5 roots with 2S+1 = 5
  Time spent diagonalizing H:   0.001216 s

    P-space  CI Energy Root   0        = -112.794513595307 Eh =   0.0000 eV, S^2 = 0.000000


  ==> Finding the Q space <==

  Using SR screening algorithm
  Time spent forming F space:             0.000437
  Time spent merging thread F spaces:             0.000076
  Size of F space: 2098
  Time spent building sorting list: 0.000198
  Dimension of the PQ space:                  102
  Dimension of the PQ space (spin-complete) : 124
  Time spent building the model space: 0.000931

  ==> Diagonalizing the Hamiltonian in the P + Q space <==

  Number of reference roots: 1

  ==> Computing 1 Coupling Lists <==

        α          9.183e-05 seconds
        β          8.958e-05 seconds

  ==> Computing 2 Coupling Lists <==

        αα         2.388e-04 seconds
        ββ         2.264e-04 seconds
        αβ         5.682e-04 seconds

  Davidson-Liu solver algorithm using SigmaVectorSparseList sigma algorithm

  Performing diagonalization of the H matrix
  Found 58 roots with 2S+1 = 1 *
  Found 51 roots with 2S+1 = 3
  Found 14 roots with 2S+1 = 5
  Found 1 roots with 2S+1 = 7
  Total time spent diagonalizing H:   0.003344 s

    PQ-space CI Energy Root   0        = -112.795961273186 Eh =   0.0000 eV, S^2 = 0.000000
    PQ-space CI Energy + EPT2 Root   0 = -112.796944312401 Eh =   0.0000 eV


  ==> GAS Contribution Analysis <==

  Root 0:
    Config.  1_A  1_B  2_A  2_B  Contribution
    -----------------------------------------
         1     1    1    6    6 100.00000000%
         2     1    0    6    7   0.00000000%
         3     0    1    7    6   0.00000000%
         4     0    0    7    7   0.00000000%
    -----------------------------------------
               GAS1      GAS2    Contribution
    -----------------------------------------
                  0        14     0.00000000%
                  1        13     0.00000000%
                  2        12   100.00000000%
    -----------------------------------------
  ***** Calculation Converged *****

  ==> ACI Natural Orbitals <==

        2A1     2.000000      1A1     2.000000      3A1     1.999173  
        4A1     1.998626      5A1     1.971987      1B2     1.967179  
        1B1     1.967179      2B1     0.045872      2B2     0.045872  
        6A1     0.004112  

  ==> Excited state solver summary <==

  Iterations required:                         3
  Dimension of optimized determinant space:    124

  * Selected-CI Energy Root   0        = -112.795961273186 Eh =   0.0000 eV
  * Selected-CI Energy Root   0 + EPT2 = -112.796944312401 Eh =   0.0000 eV

  ==> Wavefunction Information <==

  Most important contributions to root   0:
    0  -0.975319 0.951247056          53 |2222202020>
    1   0.084404 0.007124077          52 |2222200220>
    2   0.084404 0.007124077          51 |2222202002>
    3   0.066693 0.004447994          49 |2222002220>
    4   0.066693 0.004447994          50 |2222002022>
    5   0.064901 0.004212159          48 |222220+--+>
    6   0.064901 0.004212159          47 |222220-++->
    7   0.052267 0.002731833          46 |222220+-+->
    8   0.052267 0.002731833          45 |222220-+-+>
    9  -0.023963 0.000574206          42 |222+-02220>

  Saving information for root: 0

  ==> Energy Summary <==

    Multi.(2ms)  Irrep.  No.               Energy      <S^2>
    --------------------------------------------------------
       1  (  0)    A1     0     -112.795961273186   0.000000
    --------------------------------------------------------

  ==> Computing 1 Coupling Lists <==

        α          7.500e-07 seconds
        β          6.660e-07 seconds

  ==> Computing 2 Coupling Lists <==

        αα         7.080e-07 seconds
        ββ         7.080e-07 seconds
        αβ         7.080e-07 seconds
  1-RDM  took 0.000273 s (determinant)

  ==> Permanent Dipole Moments [e a0] for Singlet (Ms = 0) A1 <==

       State           DM_X           DM_Y           DM_Z           |DM|
    --------------------------------------------------------------------
         0A1     0.00000000     0.00000000     0.02801252     0.02801252
    --------------------------------------------------------------------

  Time to prepare integrals:        0.038 seconds
  Time to run job          :        0.022 seconds
  Total                    :        0.060 seconds
    ACI energy............................................................................PASSED
    ACI+PT2 energy........................................................................PASSED

Scratch directory: /tmp/

  Forte
  ----------------------------------------------------------------------------
  A suite of quantum chemistry methods for strongly correlated electrons

    git branch: master - git commit: 4225e1f0

  Developed by:
    Francesco A. Evangelista, Chenyang Li, Kevin P. Hannon,
    Jeffrey B. Schriber, Tianyuan Zhang, Chenxi Cai,
    Nan He, Nicholas Stair, Shuhe Wang, Renke Huang
  ----------------------------------------------------------------------------

  Size of Determinant class: 128 bits

  Preparing forte objects from a Psi4 Wavefunction object
  Read options for space GAS1
  Read options for space GAS2
  Read options for space GAS1
  Read options for space GAS2

  ==> MO Space Information <==

  -------------------------------------------------
                       A1    A2    B1    B2   Sum
  -------------------------------------------------
    FROZEN_DOCC         0     0     0     0     0
    RESTRICTED_DOCC     0     0     0     0     0
    GAS1                1     0     0     0     1
    GAS2                5     0     2     2     9
    GAS3                0     0     0     0     0
    GAS4                0     0     0     0     0
    GAS5                0     0     0     0     0
    GAS6                0     0     0     0     0
    RESTRICTED_UOCC    10     2     4     4    20
    FROZEN_UOCC         0     0     0     0     0
    Total              16     2     6     6    30
  -------------------------------------------------   => Loading Basis Set <=

    Name: 6-31G**
    Role: ORBITAL
    Keyword: BASIS
    atoms 1 entry C          line   115 file /Users/fevange/Source/psi4/objdir-Release/stage/share/psi4/basis/6-31gss.gbs 
    atoms 2 entry O          line   149 file /Users/fevange/Source/psi4/objdir-Release/stage/share/psi4/basis/6-31gss.gbs 


  Checking orbital orthonormality against current geometry ... Done (OK)

   => Loading Basis Set <=

    Name: STO-3G
    Role: ORBITAL
    Keyword: MINAO_BASIS
    atoms 1 entry C          line    61 file /Users/fevange/Source/psi4/objdir-Release/stage/share/psi4/basis/sto-3g.gbs 
    atoms 2 entry O          line    81 file /Users/fevange/Source/psi4/objdir-Release/stage/share/psi4/basis/sto-3g.gbs 


  Forte will use psi4 integrals

  ==> Primary Basis Set Summary <==

  Basis Set: 6-31G**
    Blend: 6-31G**
    Number of shells: 12
    Number of basis functions: 30
    Number of Cartesian functions: 30
    Spherical Harmonics?: false
    Max angular momentum: 2


  JK created using conventional PK integrals
  Using in-core PK algorithm.
   Calculation information:
      Number of atoms:                   2
      Number of AO shells:              12
      Number of primitives:             30
      Number of atomic orbitals:        30
      Number of basis functions:        30

      Integral cutoff                 1.00e-12
      Number of threads:                 1

  Performing in-core PK
  Using 216690 doubles for integral storage.
  We computed 3081 shell quartets total.
  Whereas there are 3081 unique shell quartets.

  ==> DiskJK: Disk-Based J/K Matrices <==

    J tasked:                  Yes
    K tasked:                  Yes
    wK tasked:                  No
    Memory [MiB]:              400
    Schwarz Cutoff:          1E-12

    OpenMP threads:              1



  ==> Integral Transformation <==

  Number of molecular orbitals:                         30
  Number of correlated molecular orbitals:              30
  Number of frozen occupied orbitals:                    0
  Number of frozen unoccupied orbitals:                  0
  Two-electron integral type:                 Conventional


  Computing Conventional Integrals	Presorting SO-basis two-electron integrals.
	Sorting File: SO Ints (nn|nn) nbuckets = 1
	Constructing frozen core operators
	Starting first half-transformation.
	Sorting half-transformed integrals.
	First half integral transformation complete.
	Starting second half-transformation.
	Two-electron integral transformation complete.

  Integral transformation done. 0.01019346 s
  Reading the two-electron integrals from disk
  Size of two-electron integrals:   0.018105 GB
  Timing for conventional integral transformation:            0.026 s.
  Timing for freezing core and virtual orbitals:              0.000 s.
  Timing for computing conventional integrals:                0.026 s.

  ==> Summary of Active Space Solver Input <==

    Irrep.  Multi.(2ms)      N
    --------------------------
       B1      3  (  0)      1
    --------------------------
    N: number of roots
    ms: spin z component
    Total number of roots:   1
    --------------------------


--------------------------------------------------------------------------------
               Selected Configuration Interaction Excited States
  written by Jeffrey B. Schriber, Tianyuan Zhang, and Francesco A. Evangelista
--------------------------------------------------------------------------------

  ==> Calculation Information <==

  -----------------------------------------------------------------
    Multiplicity                             3    
    Symmetry                                 2    
    Number of roots                          1    
    Ms                                       0
    Excited Algorithm                        NONE
  -----------------------------------------------------------------
  Using 1 thread(s)
  Computing wavefunction for root 0

        ---------------------------------------------------------------
                      Adaptive Configuration Interaction
          written by Jeffrey B. Schriber and Francesco A. Evangelista
        ---------------------------------------------------------------

  ==> Reference Information <==

  There are 0 frozen orbitals.
  There are 10 active orbitals.

  ==> Calculation Information <==

  -----------------------------------------------------------------
    Multiplicity                             3    
    Symmetry                                 2    
    Number of roots                          1    
    Root used for properties                 0    
    Roots used for averaging                 1    
    Root averaging offset                    0    
    Sigma (Eh)                               1.00e-03
    Gamma (Eh^(-1))                          1.00e+00
    Convergence threshold                    1.00e-09
    Ms                                       0
    Diagonalization algorithm                SPARSE
    Excited Algorithm                        NONE
    Project out spin contaminants            True
    Enforce spin completeness of basis       True
    Enforce complete aimed selection         True
    Multiroot averaging                      Average
  -----------------------------------------------------------------
  Number of active orbitals: 10
  Number of active alpha electrons: 7
  Number of active beta electrons: 7

  ==> GAS Orbital Energies from SCF <==

    GAS        Energy  Index
    ------------------------
     1   -20.67509326      0
     2   -11.35927182      1
     2    -1.52224836      2
     2    -0.79693086      3
     2    -0.54713745      4
     2     0.40906066      5
     2    -0.63485812      6
     2     0.16368498      7
     2    -0.63485812      8
     2     0.16368498      9
    ------------------------

  ==> Number of Electrons in GAS <==

    GAS  MAX  MIN
    -------------
      1    1    0
      2   14    0
    -------------

  ==> Possible Electron Occupations in GAS <==

    Config.  1_A  1_B  2_A  2_B
    ---------------------------
         1     1    0    6    7
         2     0    1    7    6
         3     0    0    7    7
    ---------------------------
    n_A/B: # of alpha/beta electrons in GASn

  ==> Building GAS Determinants <==

    Reference determinant: |+222202-20>


  ---------------------------------- Cycle 0 -----------------------------------

  ==> Diagonalizing the Hamiltonian in the P space <==

  Initial P space dimension: 1
  Spin-complete dimension of the P space: 2 determinants

  ==> Computing 1 Coupling Lists <==

        α          3.917e-06 seconds
        β          3.333e-06 seconds

  ==> Computing 2 Coupling Lists <==

        αα         6.333e-06 seconds
        ββ         5.875e-06 seconds
        αβ         1.183e-05 seconds

  Davidson-Liu solver algorithm using SigmaVectorSparseList sigma algorithm

  Performing diagonalization of the H matrix
  Found 1 roots with 2S+1 = 1
  Found 1 roots with 2S+1 = 3 *
  Time spent diagonalizing H:   0.000099 s

    P-space  CI Energy Root   0        = -92.424092539230 Eh =   0.0000 eV, S^2 = 2.000000


  ==> Finding the Q space <==

  Using SR screening algorithm
  Time spent forming F space:             0.000034
  Time spent merging thread F spaces:             0.000009
  Size of F space: 212
  Time spent building sorting list: 0.000022
  Dimension of the PQ space:                  80
  Dimension of the PQ space (spin-complete) : 106
  Time spent building the model space: 0.000132

  ==> Diagonalizing the Hamiltonian in the P + Q space <==

  Number of reference roots: 1

  ==> Computing 1 Coupling Lists <==

        α          8.542e-05 seconds
        β          7.975e-05 seconds

  ==> Computing 2 Coupling Lists <==

        αα         2.058e-04 seconds
        ββ         2.133e-04 seconds
        αβ         5.048e-04 seconds

  Davidson-Liu solver algorithm using SigmaVectorSparseList sigma algorithm

  Performing diagonalization of the H matrix
  Found 35 roots with 2S+1 = 1
  Found 51 roots with 2S+1 = 3 *
  Found 18 roots with 2S+1 = 5
  Found 2 roots with 2S+1 = 7
  Total time spent diagonalizing H:   0.002923 s

    PQ-space CI Energy Root   0        = -92.687775591146 Eh =   0.0000 eV, S^2 = 2.000000
    PQ-space CI Energy + EPT2 Root   0 = -92.688740757594 Eh =   0.0000 eV


  ==> GAS Contribution Analysis <==

  Root 0:
    Config.  1_A  1_B  2_A  2_B  Contribution
    -----------------------------------------
         1     1    0    6    7  49.99903357%
         2     0    1    7    6  49.99903357%
         3     0    0    7    7   0.00193287%
    -----------------------------------------
               GAS1      GAS2    Contribution
    -----------------------------------------
                  0        14     0.00193287%
                  1        13    99.99806713%
    -----------------------------------------

  ==> Pruning the Q space <==

  Cycle 0 took: 0.003417 s


  ---------------------------------- Cycle 1 -----------------------------------

  ==> Diagonalizing the Hamiltonian in the P space <==

  Initial P space dimension: 50
  Spin-complete dimension of the P space: 100 determinants

  ==> Computing 1 Coupling Lists <==

        α          7.817e-05 seconds
        β          7.625e-05 seconds

  ==> Computing 2 Coupling Lists <==

        αα         1.967e-04 seconds
        ββ         1.974e-04 seconds
        αβ         4.957e-04 seconds

  Davidson-Liu solver algorithm using SigmaVectorSparseList sigma algorithm

  Performing diagonalization of the H matrix
  Found 32 roots with 2S+1 = 1
  Found 48 roots with 2S+1 = 3 *
  Found 18 roots with 2S+1 = 5
  Found 2 roots with 2S+1 = 7
  Time spent diagonalizing H:   0.002873 s

    P-space  CI Energy Root   0        = -92.687258780322 Eh =   0.0000 eV, S^2 = 2.000000


  ==> Finding the Q space <==

  Using SR screening algorithm
  Time spent forming F space:             0.000539
  Time spent merging thread F spaces:             0.000050
  Size of F space: 1322
  Time spent building sorting list: 0.000125
  Dimension of the PQ space:                  134
  Dimension of the PQ space (spin-complete) : 168
  Time spent building the model space: 0.000891

  ==> Diagonalizing the Hamiltonian in the P + Q space <==

  Number of reference roots: 1

  ==> Computing 1 Coupling Lists <==

        α          1.287e-04 seconds
        β          1.238e-04 seconds

  ==> Computing 2 Coupling Lists <==

        αα         3.248e-04 seconds
        ββ         3.270e-04 seconds
        αβ         8.207e-04 seconds

  Davidson-Liu solver algorithm using SigmaVectorSparseList sigma algorithm

  Performing diagonalization of the H matrix
  Found 54 roots with 2S+1 = 1
  Found 81 roots with 2S+1 = 3 *
  Found 30 roots with 2S+1 = 5
  Found 3 roots with 2S+1 = 7
  Total time spent diagonalizing H:   0.006209 s

    PQ-space CI Energy Root   0        = -92.691091983593 Eh =   0.0000 eV, S^2 = 2.000000
    PQ-space CI Energy + EPT2 Root   0 = -92.692079808641 Eh =   0.0000 eV


  ==> GAS Contribution Analysis <==

  Root 0:
    Config.  1_A  1_B  2_A  2_B  Contribution
    -----------------------------------------
         1     1    0    6    7  49.99906557%
         2     0    1    7    6  49.99906557%
         3     0    0    7    7   0.00186887%
    -----------------------------------------
               GAS1      GAS2    Contribution
    -----------------------------------------
                  0        14     0.00186887%
                  1        13    99.99813113%
    -----------------------------------------

  ==> Pruning the Q space <==

  Cycle 1 took: 0.010358 s


  ---------------------------------- Cycle 2 -----------------------------------

  ==> Diagonalizing the Hamiltonian in the P space <==

  Initial P space dimension: 68
  Spin-complete dimension of the P space: 108 determinants

  ==> Computing 1 Coupling Lists <==

        α          8.346e-05 seconds
        β          8.146e-05 seconds

  ==> Computing 2 Coupling Lists <==

        αα         2.107e-04 seconds
        ββ         2.201e-04 seconds
        αβ         5.266e-04 seconds

  Davidson-Liu solver algorithm using SigmaVectorSparseList sigma algorithm

  Performing diagonalization of the H matrix
  Found 35 roots with 2S+1 = 1
  Found 52 roots with 2S+1 = 3 *
  Found 19 roots with 2S+1 = 5
  Found 2 roots with 2S+1 = 7
  Time spent diagonalizing H:   0.003587 s

    P-space  CI Energy Root   0        = -92.688867667129 Eh =   0.0000 eV, S^2 = 2.000000


  ==> Finding the Q space <==

  Using SR screening algorithm
  Time spent forming F space:             0.000590
  Time spent merging thread F spaces:             0.000050
  Size of F space: 1382
  Time spent building sorting list: 0.000131
  Added 1 missing determinants in aimed selection (find_q_space).
  Dimension of the PQ space:                  140
  Dimension of the PQ space (spin-complete) : 170
  Time spent building the model space: 0.000951

  ==> Diagonalizing the Hamiltonian in the P + Q space <==

  Number of reference roots: 1

  ==> Computing 1 Coupling Lists <==

        α          1.288e-04 seconds
        β          1.243e-04 seconds

  ==> Computing 2 Coupling Lists <==

        αα         3.220e-04 seconds
        ββ         3.239e-04 seconds
        αβ         8.146e-04 seconds

  Davidson-Liu solver algorithm using SigmaVectorSparseList sigma algorithm

  Performing diagonalization of the H matrix
  Found 55 roots with 2S+1 = 1
  Found 82 roots with 2S+1 = 3 *
  Found 30 roots with 2S+1 = 5
  Found 3 roots with 2S+1 = 7
  Total time spent diagonalizing H:   0.006070 s

    PQ-space CI Energy Root   0        = -92.691156796389 Eh =   0.0000 eV, S^2 = 2.000000
    PQ-space CI Energy + EPT2 Root   0 = -92.692138281515 Eh =   0.0000 eV


  ==> GAS Contribution Analysis <==

  Root 0:
    Config.  1_A  1_B  2_A  2_B  Contribution
    -----------------------------------------
         1     1    0    6    7  49.99906546%
         2     0    1    7    6  49.99906546%
         3     0    0    7    7   0.00186907%
    -----------------------------------------
               GAS1      GAS2    Contribution
    -----------------------------------------
                  0        14     0.00186907%
                  1        13    99.99813093%
    -----------------------------------------

  ==> Pruning the Q space <==

  Added 1 missing determinants in aimed selection (prune_q_space).
  Cycle 2 took: 0.010995 s


  ---------------------------------- Cycle 3 -----------------------------------

  ==> Diagonalizing the Hamiltonian in the P space <==

  Initial P space dimension: 70
  Spin-complete dimension of the P space: 114 determinants

  ==> Computing 1 Coupling Lists <==

        α          9.004e-05 seconds
        β          8.683e-05 seconds

  ==> Computing 2 Coupling Lists <==

        αα         2.282e-04 seconds
        ββ         2.188e-04 seconds
        αβ         5.562e-04 seconds

  Davidson-Liu solver algorithm using SigmaVectorSparseList sigma algorithm

  Performing diagonalization of the H matrix
  Found 37 roots with 2S+1 = 1
  Found 55 roots with 2S+1 = 3 *
  Found 20 roots with 2S+1 = 5
  Found 2 roots with 2S+1 = 7
  Time spent diagonalizing H:   0.003726 s

    P-space  CI Energy Root   0        = -92.689195120700 Eh =   0.0000 eV, S^2 = 2.000000


  ==> Finding the Q space <==

  Using SR screening algorithm
  Time spent forming F space:             0.000630
  Time spent merging thread F spaces:             0.000051
  Size of F space: 1456
  Time spent building sorting list: 0.000138
  Dimension of the PQ space:                  142
  Dimension of the PQ space (spin-complete) : 172
  Time spent building the model space: 0.001012

  ==> Diagonalizing the Hamiltonian in the P + Q space <==

  Number of reference roots: 1

  ==> Computing 1 Coupling Lists <==

        α          1.282e-04 seconds
        β          1.245e-04 seconds

  ==> Computing 2 Coupling Lists <==

        αα         3.165e-04 seconds
        ββ         3.157e-04 seconds
        αβ         8.052e-04 seconds

  Davidson-Liu solver algorithm using SigmaVectorSparseList sigma algorithm

  Performing diagonalization of the H matrix
  Found 56 roots with 2S+1 = 1
  Found 83 roots with 2S+1 = 3 *
  Found 30 roots with 2S+1 = 5
  Found 3 roots with 2S+1 = 7
  Total time spent diagonalizing H:   0.006015 s

    PQ-space CI Energy Root   0        = -92.691245384196 Eh =   0.0000 eV, S^2 = 2.000000
    PQ-space CI Energy + EPT2 Root   0 = -92.692238645877 Eh =   0.0000 eV


  ==> GAS Contribution Analysis <==

  Root 0:
    Config.  1_A  1_B  2_A  2_B  Contribution
    -----------------------------------------
         1     1    0    6    7  49.99906566%
         2     0    1    7    6  49.99906566%
         3     0    0    7    7   0.00186867%
    -----------------------------------------
               GAS1      GAS2    Contribution
    -----------------------------------------
                  0        14     0.00186867%
                  1        13    99.99813133%
    -----------------------------------------

  ==> Pruning the Q space <==

  Cycle 3 took: 0.011129 s


  ---------------------------------- Cycle 4 -----------------------------------

  ==> Diagonalizing the Hamiltonian in the P space <==

  Initial P space dimension: 70
  Spin-complete dimension of the P space: 114 determinants

  ==> Computing 1 Coupling Lists <==

        α          8.896e-05 seconds
        β          8.608e-05 seconds

  ==> Computing 2 Coupling Lists <==

        αα         2.240e-04 seconds
        ββ         2.167e-04 seconds
        αβ         5.525e-04 seconds

  Davidson-Liu solver algorithm using SigmaVectorSparseList sigma algorithm

  Performing diagonalization of the H matrix
  Found 37 roots with 2S+1 = 1
  Found 55 roots with 2S+1 = 3 *
  Found 20 roots with 2S+1 = 5
  Found 2 roots with 2S+1 = 7
  Time spent diagonalizing H:   0.003812 s

    P-space  CI Energy Root   0        = -92.689195120700 Eh =   0.0000 eV, S^2 = 2.000000


  ==> Finding the Q space <==

  Using SR screening algorithm
  Time spent forming F space:             0.000633
  Time spent merging thread F spaces:             0.000051
  Size of F space: 1456
  Time spent building sorting list: 0.000138
  Dimension of the PQ space:                  142
  Dimension of the PQ space (spin-complete) : 172
  Time spent building the model space: 0.001012

  ==> Diagonalizing the Hamiltonian in the P + Q space <==

  Number of reference roots: 1

  ==> Computing 1 Coupling Lists <==

        α          1.287e-04 seconds
        β          1.241e-04 seconds

  ==> Computing 2 Coupling Lists <==

        αα         3.215e-04 seconds
        ββ         3.180e-04 seconds
        αβ         7.922e-04 seconds

  Davidson-Liu solver algorithm using SigmaVectorSparseList sigma algorithm

  Performing diagonalization of the H matrix
  Found 56 roots with 2S+1 = 1
  Found 83 roots with 2S+1 = 3 *
  Found 30 roots with 2S+1 = 5
  Found 3 roots with 2S+1 = 7
  Total time spent diagonalizing H:   0.006060 s

    PQ-space CI Energy Root   0        = -92.691245384196 Eh =   0.0000 eV, S^2 = 2.000000
    PQ-space CI Energy + EPT2 Root   0 = -92.692238645876 Eh =   0.0000 eV


  ==> GAS Contribution Analysis <==

  Root 0:
    Config.  1_A  1_B  2_A  2_B  Contribution
    -----------------------------------------
         1     1    0    6    7  49.99906566%
         2     0    1    7    6  49.99906566%
         3     0    0    7    7   0.00186867%
    -----------------------------------------
               GAS1      GAS2    Contribution
    -----------------------------------------
                  0        14     0.00186867%
                  1        13    99.99813133%
    -----------------------------------------
  ***** Calculation Converged *****

  ==> ACI Natural Orbitals <==

        1A1     2.000000      2A1     1.999789      3A1     1.999580  
        1B1     1.999184      1B2     1.997983      4A1     1.963023  
        2B1     1.000816      5A1     0.999996      2B2     0.036632  
        6A1     0.002997  

  ==> Excited state solver summary <==

  Iterations required:                         4
  Dimension of optimized determinant space:    172

  * Selected-CI Energy Root   0        = -92.691245384196 Eh =   0.0000 eV
  * Selected-CI Energy Root   0 + EPT2 = -92.692238645876 Eh =   0.0000 eV

  ==> Wavefunction Information <==

  Most important contributions to root   0:
    0  -0.623729 0.389038344          69 |+222202-20>
    1   0.623729 0.389038344          68 |-222202+20>
    2  -0.176472 0.031142374          66 |-222202++->
    3   0.176472 0.031142374          67 |+222202--+>
    4  -0.174884 0.030584553          64 |-22220+220>
    5   0.174884 0.030584553          65 |+22220-220>
    6  -0.164180 0.026954930          62 |-222202+-+>
    7   0.164180 0.026954930          63 |+222202-+->
    8  -0.078367 0.006141452          60 |+222002-22>
    9   0.078367 0.006141452          61 |-222002+22>

  Saving information for root: 0

  ==> Energy Summary <==

    Multi.(2ms)  Irrep.  No.               Energy      <S^2>
    --------------------------------------------------------
       3  (  0)    B1     0      -92.691245384196   2.000000
    --------------------------------------------------------

  ==> Computing 1 Coupling Lists <==

        α          7.500e-07 seconds
        β          6.670e-07 seconds

  ==> Computing 2 Coupling Lists <==

        αα         7.910e-07 seconds
        ββ         7.080e-07 seconds
        αβ         7.080e-07 seconds
  1-RDM  took 0.000385 s (determinant)

  ==> Permanent Dipole Moments [e a0] for Triplet (Ms = 0) B1 <==

       State           DM_X           DM_Y           DM_Z           |DM|
    --------------------------------------------------------------------
         0B1     0.00000000     0.00000000     0.45616756     0.45616756
    --------------------------------------------------------------------

  Time to prepare integrals:        0.039 seconds
  Time to run job          :        0.049 seconds
  Total                    :        0.087 seconds
    ACI energy............................................................................PASSED
    ACI+PT2 energy........................................................................PASSED

    Psi4 stopped on: Monday, 16 January 2023 08:24AM
    Psi4 wall time for execution: 0:00:00.43

*** Psi4 exiting successfully. Buy a developer a beer!
