
    -----------------------------------------------------------------------
          Psi4: An Open-Source Ab Initio Electronic Structure Package
                               Psi4 1.10a1.dev48 

                         Git: Rev {master} 1813c0c dirty


    D. G. A. Smith, L. A. Burns, A. C. Simmonett, R. M. Parrish,
    M. C. Schieber, R. Galvelis, P. Kraus, H. Kruse, R. Di Remigio,
    A. Alenaizan, A. M. James, S. Lehtola, J. P. Misiewicz, M. Scheurer,
    R. A. Shaw, J. B. Schriber, Y. Xie, Z. L. Glick, D. A. Sirianni,
    J. S. O'Brien, J. M. Waldrop, A. Kumar, E. G. Hohenstein,
    B. P. Pritchard, B. R. Brooks, H. F. Schaefer III, A. Yu. Sokolov,
    K. Patkowski, A. E. DePrince III, U. Bozkaya, R. A. King,
    F. A. Evangelista, J. M. Turney, T. D. Crawford, C. D. Sherrill,
    J. Chem. Phys. 152(18) 184108 (2020). https://doi.org/10.1063/5.0006002

                            Additional Code Authors
    E. T. Seidl, C. L. Janssen, E. F. Valeev, M. L. Leininger,
    J. F. Gonthier, R. M. Richard, H. R. McAlexander, M. Saitow, X. Wang,
    P. Verma, M. H. Lechner, A. Jiang, S. Behnle, A. G. Heide,
    M. F. Herbst, and D. L. Poole

             Previous Authors, Complete List of Code Contributors,
                       and Citations for Specific Modules
    https://github.com/psi4/psi4/blob/master/codemeta.json
    https://github.com/psi4/psi4/graphs/contributors
    http://psicode.org/psi4manual/master/introduction.html#citing-psifour

    -----------------------------------------------------------------------


    Psi4 started on: Thursday, 08 August 2024 04:50PM

    Process ID: 38311
    Host:       Brian-Zs-MBA.local
    PSIDATADIR: /Users/brianz98/local/psi4/objdir-Release/stage/share/psi4
    Memory:     500.0 MiB
    Threads:    1
    
  ==> Input File <==

--------------------------------------------------------------------------
# GAS ACI calculation for core excited state of CO

import forte

gsaci = -112.7959612732 #TEST
gsacipt2 = -112.7969443124 #TEST
exaci = -92.69124538244 #TEST
exacipt2 = -92.69223864414 #TEST

molecule CO{
0 1
C
O 1 1.123708
}

set {
  basis 6-31g**
  e_convergence 10
  d_convergence 8
  r_convergence 10
  scf_type pk
}

set forte {
  active_space_solver aci
  ms 0.0
  multiplicity 1
  sigma 0.001
  nroot 1
  root_sym 0
  charge 0
  sci_enforce_spin_complete true
  active_ref_type gas_single
  charge 0
  GAS1 [1,0,0,0]
  GAS2 [5,0,2,2]
  GAS1MAX [2]
  GAS1MIN [0]
  mcscf_reference false
}

escf ,wfn = energy('scf',return_wfn = True)

energy('forte',ref_wfn = wfn)
compare_values(gsaci, variable("ACI ENERGY"),9, "ACI energy") #TEST
compare_values(gsacipt2, variable("ACI+PT2 ENERGY"),9, "ACI+PT2 energy") #TEST

set forte {
  GAS1MAX [1]
  GAS1MIN [0]
  root_sym 2
  multiplicity 3
  mcscf_reference false
}

energy('forte',ref_wfn = wfn)
compare_values(exaci, variable("ACI ENERGY"),9, "ACI energy") #TEST     
compare_values(exacipt2, variable("ACI+PT2 ENERGY"), 9, "ACI+PT2 energy") #TEST
--------------------------------------------------------------------------

Scratch directory: /tmp/
   => Libint2 <=

    Primary   basis highest AM E, G, H:  6, 6, 3
    Auxiliary basis highest AM E, G, H:  7, 7, 4
    Onebody   basis highest AM E, G, H:  -, -, -
    Solid Harmonics ordering:            Gaussian

*** tstart() called on Brian-Zs-MBA.local
*** at Thu Aug  8 16:50:42 2024

   => Loading Basis Set <=

    Name: 6-31G**
    Role: ORBITAL
    Keyword: BASIS
    atoms 1 entry C          line   115 file /Users/brianz98/local/psi4/objdir-Release/stage/share/psi4/basis/6-31gss.gbs 
    atoms 2 entry O          line   149 file /Users/brianz98/local/psi4/objdir-Release/stage/share/psi4/basis/6-31gss.gbs 


         ---------------------------------------------------------
                                   SCF
               by Justin Turney, Rob Parrish, Andy Simmonett
                          and Daniel G. A. Smith
                              RHF Reference
                        1 Threads,    500 MiB Core
         ---------------------------------------------------------

  ==> Geometry <==

    Molecular point group: c2v
    Full point group: C_inf_v

    Geometry (in Angstrom), charge = 0, multiplicity = 1:

       Center              X                  Y                   Z               Mass       
    ------------   -----------------  -----------------  -----------------  -----------------
         C            0.000000000000     0.000000000000    -0.642031374683    12.000000000000
         O            0.000000000000     0.000000000000     0.481676625317    15.994914619570

  Running in c2v symmetry.

  Rotational constants: A = ************  B =      1.94718  C =      1.94718 [cm^-1]
  Rotational constants: A = ************  B =  58374.91066  C =  58374.91066 [MHz]
  Nuclear repulsion =   22.604187308589072

  Charge       = 0
  Multiplicity = 1
  Electrons    = 14
  Nalpha       = 7
  Nbeta        = 7

  ==> Algorithm <==

  SCF Algorithm Type is PK.
  DIIS enabled.
  MOM disabled.
  Fractional occupation disabled.
  Guess Type is SAD.
  Energy threshold   = 1.00e-10
  Density threshold  = 1.00e-08
  Integral threshold = 1.00e-12

  ==> Primary Basis <==

  Basis Set: 6-31G**
    Blend: 6-31G**
    Number of shells: 12
    Number of basis functions: 30
    Number of Cartesian functions: 30
    Spherical Harmonics?: false
    Max angular momentum: 2

  ==> Integral Setup <==

  Using in-core PK algorithm.
   Calculation information:
      Number of atoms:                   2
      Number of AO shells:              12
      Number of primitives:             30
      Number of atomic orbitals:        30
      Number of basis functions:        30

      Integral cutoff                 1.00e-12
      Number of threads:                 1

  Performing in-core PK
  Using 216690 doubles for integral storage.
  We computed 3081 shell quartets total.
  Whereas there are 3081 unique shell quartets.

  ==> DiskJK: Disk-Based J/K Matrices <==

    J tasked:                  Yes
    K tasked:                  Yes
    wK tasked:                  No
    Memory [MiB]:              375
    Schwarz Cutoff:          1E-12

    OpenMP threads:              1

  Minimum eigenvalue in the overlap matrix is 7.6561678406E-03.
  Reciprocal condition number of the overlap matrix is 1.4485031790E-03.
    Using symmetric orthogonalization.

  ==> Pre-Iterations <==

  SCF Guess: Superposition of Atomic Densities via on-the-fly atomic UHF (no occupation information).

   -------------------------
    Irrep   Nso     Nmo    
   -------------------------
     A1        16      16 
     A2         2       2 
     B1         6       6 
     B2         6       6 
   -------------------------
    Total      30      30
   -------------------------

  ==> Iterations <==

                        Total Energy        Delta E     RMS |[F,P]|

   @RHF iter SAD:  -112.73324345260500   -1.12733e+02   0.00000e+00 
   @RHF iter   1:  -112.46810775893370    2.65136e-01   4.08181e-02 DIIS/ADIIS
   @RHF iter   2:  -112.69672146012137   -2.28614e-01   1.96451e-02 DIIS/ADIIS
   @RHF iter   3:  -112.73133732550095   -3.46159e-02   7.03612e-03 DIIS/ADIIS
   @RHF iter   4:  -112.73735818062315   -6.02086e-03   1.43793e-03 DIIS/ADIIS
   @RHF iter   5:  -112.73760726333862   -2.49083e-04   1.02851e-04 DIIS/ADIIS
   @RHF iter   6:  -112.73761085345787   -3.59012e-06   2.66437e-05 DIIS
   @RHF iter   7:  -112.73761100575399   -1.52296e-07   4.70015e-06 DIIS
   @RHF iter   8:  -112.73761101096990   -5.21591e-09   4.70690e-07 DIIS
   @RHF iter   9:  -112.73761101103821   -6.83116e-11   4.35777e-08 DIIS
   @RHF iter  10:  -112.73761101103858   -3.69482e-13   3.84528e-09 DIIS
  Energy and wave function converged.


  ==> Post-Iterations <==

    Orbital Energies [Eh]
    ---------------------

    Doubly Occupied:                                                      

       1A1   -20.675093     2A1   -11.359272     3A1    -1.522248  
       4A1    -0.796931     1B1    -0.634858     1B2    -0.634858  
       5A1    -0.547137  

    Virtual:                                                              

       2B1     0.163685     2B2     0.163685     6A1     0.409061  
       3B2     0.733489     3B1     0.733489     7A1     0.758352  
       8A1     0.995752     9A1     1.103683     4B1     1.207063  
       4B2     1.207063    10A1     1.611233    11A1     1.747874  
       1A2     1.747874     5B2     1.848075     5B1     1.848075  
      12A1     2.264383     2A2     2.264383    13A1     2.782669  
       6B2     2.957883     6B1     2.957883    14A1     3.360305  
      15A1     4.103048    16A1     4.302533  

    Final Occupation by Irrep:
             A1    A2    B1    B2 
    DOCC [     5,    0,    1,    1 ]
    NA   [     5,    0,    1,    1 ]
    NB   [     5,    0,    1,    1 ]

  @RHF Final Energy:  -112.73761101103858

   => Energetics <=

    Nuclear Repulsion Energy =             22.6041873085890721
    One-Electron Energy =                -198.3428006101808592
    Two-Electron Energy =                  63.0010022905532026
    Total Energy =                       -112.7376110110385810

Computation Completed


Properties will be evaluated at   0.000000,   0.000000,   0.000000 [a0]

Properties computed using the SCF density matrix


 Multipole Moments:

 ------------------------------------------------------------------------------------
     Multipole            Electronic (a.u.)      Nuclear  (a.u.)        Total (a.u.)
 ------------------------------------------------------------------------------------

 L = 1.  Multiply by 2.5417464519 to convert [e a0] to [Debye]
 Dipole X            :          0.0000000            0.0000000            0.0000000
 Dipole Y            :          0.0000000            0.0000000            0.0000000
 Dipole Z            :         -0.1246232            0.0023145           -0.1223087
 Magnitude           :                                                    0.1223087

 ------------------------------------------------------------------------------------

*** tstop() called on Brian-Zs-MBA.local at Thu Aug  8 16:50:42 2024
Module time:
	user time   =       0.12 seconds =       0.00 minutes
	system time =       0.01 seconds =       0.00 minutes
	total time  =          0 seconds =       0.00 minutes
Total time:
	user time   =       0.12 seconds =       0.00 minutes
	system time =       0.01 seconds =       0.00 minutes
	total time  =          0 seconds =       0.00 minutes

Scratch directory: /tmp/

  Forte
  ----------------------------------------------------------------------------
  A suite of quantum chemistry methods for strongly correlated electrons

    git branch: main - git commit: 757934d4

  Developed by:
    Francesco A. Evangelista, Chenyang Li, Kevin P. Hannon,
    Jeffrey B. Schriber, Tianyuan Zhang, Chenxi Cai,
    Nan He, Nicholas Stair, Shuhe Wang, Renke Huang
  ----------------------------------------------------------------------------


  Preparing forte objects from a Psi4 Wavefunction object
  Read options for space GAS1
  Read options for space GAS2
  Read options for space GAS1
  Read options for space GAS2

  ==> MO Space Information <==

  -------------------------------------------------
                       A1    A2    B1    B2   Sum
  -------------------------------------------------
    FROZEN_DOCC         0     0     0     0     0
    RESTRICTED_DOCC     0     0     0     0     0
    GAS1                1     0     0     0     1
    GAS2                5     0     2     2     9
    GAS3                0     0     0     0     0
    GAS4                0     0     0     0     0
    GAS5                0     0     0     0     0
    GAS6                0     0     0     0     0
    RESTRICTED_UOCC    10     2     4     4    20
    FROZEN_UOCC         0     0     0     0     0
    Total              16     2     6     6    30
  -------------------------------------------------   => Loading Basis Set <=

    Name: 6-31G**
    Role: ORBITAL
    Keyword: BASIS
    atoms 1 entry C          line   115 file /Users/brianz98/local/psi4/objdir-Release/stage/share/psi4/basis/6-31gss.gbs 
    atoms 2 entry O          line   149 file /Users/brianz98/local/psi4/objdir-Release/stage/share/psi4/basis/6-31gss.gbs 


  Checking orbital orthonormality against current geometry ... Done (OK)

   => Loading Basis Set <=

    Name: STO-3G
    Role: ORBITAL
    Keyword: MINAO_BASIS
    atoms 1 entry C          line    61 file /Users/brianz98/local/psi4/objdir-Release/stage/share/psi4/basis/sto-3g.gbs 
    atoms 2 entry O          line    81 file /Users/brianz98/local/psi4/objdir-Release/stage/share/psi4/basis/sto-3g.gbs 


  State Singlet (Ms = 0) A1 GAS min: 0 0 0 0 0 0 ; GAS max: 2 18 0 0 0 0 ; weights:
      1.000000000000
  Forte will use psi4 integrals

  ==> Primary Basis Set Summary <==

  Basis Set: 6-31G**
    Blend: 6-31G**
    Number of shells: 12
    Number of basis functions: 30
    Number of Cartesian functions: 30
    Spherical Harmonics?: false
    Max angular momentum: 2


  JK created using conventional PK integrals
  Using in-core PK algorithm.
   Calculation information:
      Number of atoms:                   2
      Number of AO shells:              12
      Number of primitives:             30
      Number of atomic orbitals:        30
      Number of basis functions:        30

      Integral cutoff                 1.00e-12
      Number of threads:                 1

  Performing in-core PK
  Using 216690 doubles for integral storage.
  We computed 3081 shell quartets total.
  Whereas there are 3081 unique shell quartets.

  ==> DiskJK: Disk-Based J/K Matrices <==

    J tasked:                  Yes
    K tasked:                  Yes
    wK tasked:                  No
    Memory [MiB]:              400
    Schwarz Cutoff:          1E-12

    OpenMP threads:              1



  ==> Integral Transformation <==

  Number of molecular orbitals:                         30
  Number of correlated molecular orbitals:              30
  Number of frozen occupied orbitals:                    0
  Number of frozen unoccupied orbitals:                  0
  Two-electron integral type:                 Conventional


  Computing Conventional Integrals	Presorting SO-basis two-electron integrals.
	Sorting File: SO Ints (nn|nn) nbuckets = 1
	Constructing frozen core operators
	Starting first half-transformation.
	h = 0; memfree         = 65535336
	h = 0; rows_per_bucket = 181
	h = 0; rows_left       = 0
	h = 0; nbuckets        = 1
	h = 1; memfree         = 65535728
	h = 1; rows_per_bucket = 68
	h = 1; rows_left       = 0
	h = 1; nbuckets        = 1
	h = 2; memfree         = 65535568
	h = 2; rows_per_bucket = 108
	h = 2; rows_left       = 0
	h = 2; nbuckets        = 1
	h = 3; memfree         = 65535568
	h = 3; rows_per_bucket = 108
	h = 3; rows_left       = 0
	h = 3; nbuckets        = 1
	Sorting half-transformed integrals.
	First half integral transformation complete.
	Starting second half-transformation.
	h = 0; memfree         = 65535336
	h = 0; rows_per_bucket = 181
	h = 0; rows_left       = 0
	h = 0; nbuckets        = 1
	h = 1; memfree         = 65535728
	h = 1; rows_per_bucket = 68
	h = 1; rows_left       = 0
	h = 1; nbuckets        = 1
	h = 2; memfree         = 65535568
	h = 2; rows_per_bucket = 108
	h = 2; rows_left       = 0
	h = 2; nbuckets        = 1
	h = 3; memfree         = 65535568
	h = 3; rows_per_bucket = 108
	h = 3; rows_left       = 0
	h = 3; nbuckets        = 1
	Two-electron integral transformation complete.

  Integral transformation done. 0.01129654 s
  Reading the two-electron integrals from disk
  Size of two-electron integrals:   0.018105 GB
  Timing for conventional integral transformation:            0.031 s.
  Timing for freezing core and virtual orbitals:              0.000 s.
  Timing for computing conventional integrals:                0.031 s.

  Skipping MCSCF computation. Using HF or orbitals passed via ref_wfn


--------------------------------------------------------------------------------
               Selected Configuration Interaction Excited States
  written by Jeffrey B. Schriber, Tianyuan Zhang, and Francesco A. Evangelista
--------------------------------------------------------------------------------

  ==> Calculation Information <==

  -----------------------------------------------------------------
    Multiplicity                             1    
    Symmetry                                 0    
    Number of roots                          1    
    Ms                                       0
    Excited Algorithm                        NONE
  -----------------------------------------------------------------
  Using 1 thread(s)
  Computing wavefunction for root 0

        ---------------------------------------------------------------
                      Adaptive Configuration Interaction
          written by Jeffrey B. Schriber and Francesco A. Evangelista
        ---------------------------------------------------------------

  ==> Reference Information <==

  There are 0 frozen orbitals.
  There are 10 active orbitals.


  ==> ACI Solver <==

    --------------------------------------------------------
    Ms                                                     0
    Diagonalization algorithm                         SPARSE
    Excited Algorithm                                   NONE
    Project out spin contaminants                       True
    Enforce spin completeness of basis                  True
    Enforce complete aimed selection                    True
    Multiroot averaging                              Average
    Sigma (Eh)                                     1.000e-03
    Gamma (Eh^(-1))                                1.000e+00
    Convergence threshold                          1.000e-09
    Multiplicity                                           1
    Symmetry                                               0
    Number of roots                                        1
    Root used for properties                               0
    Roots used for averaging                               1
    Root averaging offset                                  0
    --------------------------------------------------------
  Number of active orbitals: 10
  Number of active alpha electrons: 7
  Number of active beta electrons: 7

  ==> GAS Orbital Energies from SCF <==

    GAS        Energy  Index
    ------------------------
     1   -20.67509326      0
     2   -11.35927182      1
     2    -1.52224836      2
     2    -0.79693086      3
     2    -0.54713745      4
     2     0.40906066      5
     2    -0.63485812      6
     2     0.16368498      7
     2    -0.63485812      8
     2     0.16368498      9
    ------------------------

  ==> Number of Electrons in GAS <==

    GAS  MAX  MIN
    -------------
      1    2    0
      2   14    0
    -------------

  ==> Possible Electron Occupations in GAS <==

    Config.  1_A  1_B  2_A  2_B
    ---------------------------
         1     1    1    6    6
         2     1    0    6    7
         3     0    1    7    6
         4     0    0    7    7
    ---------------------------
    n_A/B: # of alpha/beta electrons in GASn

  ==> Building GAS Determinants <==

    Reference determinant: |2222202020>


  ---------------------------------- Cycle 0 -----------------------------------

  ==> Diagonalizing the Hamiltonian in the P space <==

  Initial P space dimension: 1
  Spin-complete dimension of the P space: 1 determinants

  Davidson-Liu solver algorithm using SigmaVectorSparseList sigma algorithm

  Performing full diagonalization of the H matrix
  Found 1 roots with 2S+1 = 1 *
  Time spent diagonalizing H:   0.000126 s

    P-space  CI Energy Root   0        = -112.737611011039 Eh =   0.0000 eV, S^2 = 0.000000


  ==> Finding the Q space <==

  Using SR screening algorithm
  Time spent forming F space:             0.000042
  Time spent merging thread F spaces:             0.000032
  Size of F space: 161
  Time spent building sorting list: 0.000037
  Added 1 missing determinants in aimed selection (find_q_space).
  Dimension of the PQ space:                  49
  Dimension of the PQ space (spin-complete) : 53
  Time spent building the model space: 0.000431

  ==> Diagonalizing the Hamiltonian in the P + Q space <==

  Number of reference roots: 1

  Davidson-Liu solver algorithm using SigmaVectorSparseList sigma algorithm

  Performing full diagonalization of the H matrix
  Found 29 roots with 2S+1 = 1 *
  Found 19 roots with 2S+1 = 3
  Found 5 roots with 2S+1 = 5
  Total time spent diagonalizing H:   0.002245 s

    PQ-space CI Energy Root   0        = -112.790124530552 Eh =   0.0000 eV, S^2 = 0.000000
    PQ-space CI Energy + EPT2 Root   0 = -112.791052248135 Eh =   0.0000 eV


  ==> GAS Contribution Analysis <==

  Root 0:
    Config.  1_A  1_B  2_A  2_B  Contribution
    -----------------------------------------
         1     1    1    6    6 100.00000000%
         2     1    0    6    7   0.00000000%
         3     0    1    7    6   0.00000000%
         4     0    0    7    7   0.00000000%
    -----------------------------------------
               GAS1      GAS2    Contribution
    -----------------------------------------
                  0        14     0.00000000%
                  1        13     0.00000000%
                  2        12   100.00000000%
    -----------------------------------------

  ==> Pruning the Q space <==

  Added 1 missing determinants in aimed selection (prune_q_space).
  Cycle 0 took: 0.003477 s


  ---------------------------------- Cycle 1 -----------------------------------

  ==> Diagonalizing the Hamiltonian in the P space <==

  Initial P space dimension: 30
  Spin-complete dimension of the P space: 42 determinants

  Davidson-Liu solver algorithm using SigmaVectorSparseList sigma algorithm

  Performing full diagonalization of the H matrix
  Found 20 roots with 2S+1 = 1 *
  Found 17 roots with 2S+1 = 3
  Found 5 roots with 2S+1 = 5
  Time spent diagonalizing H:   0.001735 s

    P-space  CI Energy Root   0        = -112.789304789895 Eh =   0.0000 eV, S^2 = 0.000000


  ==> Finding the Q space <==

  Using SR screening algorithm
  Time spent forming F space:             0.000506
  Time spent merging thread F spaces:             0.000118
  Size of F space: 1724
  Time spent building sorting list: 0.000384
  Added 3 missing determinants in aimed selection (find_q_space).
  Dimension of the PQ space:                  108
  Dimension of the PQ space (spin-complete) : 146
  Time spent building the model space: 0.001477

  ==> Diagonalizing the Hamiltonian in the P + Q space <==

  Number of reference roots: 1

  Davidson-Liu solver algorithm using SigmaVectorSparseList sigma algorithm

  Performing full diagonalization of the H matrix
  Found 64 roots with 2S+1 = 1 *
  Found 63 roots with 2S+1 = 3
  Found 18 roots with 2S+1 = 5
  Found 1 roots with 2S+1 = 7
  Total time spent diagonalizing H:   0.008253 s

    PQ-space CI Energy Root   0        = -112.796040156239 Eh =   0.0000 eV, S^2 = 0.000000
    PQ-space CI Energy + EPT2 Root   0 = -112.797023896237 Eh =   0.0000 eV


  ==> GAS Contribution Analysis <==

  Root 0:
    Config.  1_A  1_B  2_A  2_B  Contribution
    -----------------------------------------
         1     1    1    6    6 100.00000000%
         2     1    0    6    7   0.00000000%
         3     0    1    7    6   0.00000000%
         4     0    0    7    7   0.00000000%
    -----------------------------------------
               GAS1      GAS2    Contribution
    -----------------------------------------
                  0        14     0.00000000%
                  1        13     0.00000000%
                  2        12   100.00000000%
    -----------------------------------------

  ==> Pruning the Q space <==

  Added 2 missing determinants in aimed selection (prune_q_space).
  Cycle 1 took: 0.012526 s


  ---------------------------------- Cycle 2 -----------------------------------

  ==> Diagonalizing the Hamiltonian in the P space <==

  Initial P space dimension: 57
  Spin-complete dimension of the P space: 61 determinants

  Davidson-Liu solver algorithm using SigmaVectorSparseList sigma algorithm

  Performing full diagonalization of the H matrix
  Found 32 roots with 2S+1 = 1 *
  Found 24 roots with 2S+1 = 3
  Found 5 roots with 2S+1 = 5
  Time spent diagonalizing H:   0.002479 s

    P-space  CI Energy Root   0        = -112.794513595190 Eh =   0.0000 eV, S^2 = 0.000000


  ==> Finding the Q space <==

  Using SR screening algorithm
  Time spent forming F space:             0.000690
  Time spent merging thread F spaces:             0.000130
  Size of F space: 2098
  Time spent building sorting list: 0.000481
  Dimension of the PQ space:                  102
  Dimension of the PQ space (spin-complete) : 124
  Time spent building the model space: 0.001893

  ==> Diagonalizing the Hamiltonian in the P + Q space <==

  Number of reference roots: 1

  Davidson-Liu solver algorithm using SigmaVectorSparseList sigma algorithm

  Performing full diagonalization of the H matrix
  Found 58 roots with 2S+1 = 1 *
  Found 51 roots with 2S+1 = 3
  Found 14 roots with 2S+1 = 5
  Found 1 roots with 2S+1 = 7
  Total time spent diagonalizing H:   0.006239 s

    PQ-space CI Energy Root   0        = -112.795961273084 Eh =   0.0000 eV, S^2 = 0.000000
    PQ-space CI Energy + EPT2 Root   0 = -112.796944312301 Eh =   0.0000 eV


  ==> GAS Contribution Analysis <==

  Root 0:
    Config.  1_A  1_B  2_A  2_B  Contribution
    -----------------------------------------
         1     1    1    6    6 100.00000000%
         2     1    0    6    7   0.00000000%
         3     0    1    7    6   0.00000000%
         4     0    0    7    7   0.00000000%
    -----------------------------------------
               GAS1      GAS2    Contribution
    -----------------------------------------
                  0        14     0.00000000%
                  1        13     0.00000000%
                  2        12   100.00000000%
    -----------------------------------------

  ==> Pruning the Q space <==

  Added 3 missing determinants in aimed selection (prune_q_space).
  Cycle 2 took: 0.011597 s


  ---------------------------------- Cycle 3 -----------------------------------

  ==> Diagonalizing the Hamiltonian in the P space <==

  Initial P space dimension: 57
  Spin-complete dimension of the P space: 61 determinants

  Davidson-Liu solver algorithm using SigmaVectorSparseList sigma algorithm

  Performing full diagonalization of the H matrix
  Found 32 roots with 2S+1 = 1 *
  Found 24 roots with 2S+1 = 3
  Found 5 roots with 2S+1 = 5
  Time spent diagonalizing H:   0.002521 s

    P-space  CI Energy Root   0        = -112.794513595190 Eh =   0.0000 eV, S^2 = 0.000000


  ==> Finding the Q space <==

  Using SR screening algorithm
  Time spent forming F space:             0.000690
  Time spent merging thread F spaces:             0.000128
  Size of F space: 2098
  Time spent building sorting list: 0.000480
  Dimension of the PQ space:                  102
  Dimension of the PQ space (spin-complete) : 124
  Time spent building the model space: 0.001861

  ==> Diagonalizing the Hamiltonian in the P + Q space <==

  Number of reference roots: 1

  Davidson-Liu solver algorithm using SigmaVectorSparseList sigma algorithm

  Performing full diagonalization of the H matrix
  Found 58 roots with 2S+1 = 1 *
  Found 51 roots with 2S+1 = 3
  Found 14 roots with 2S+1 = 5
  Found 1 roots with 2S+1 = 7
  Total time spent diagonalizing H:   0.006133 s

    PQ-space CI Energy Root   0        = -112.795961273084 Eh =   0.0000 eV, S^2 = 0.000000
    PQ-space CI Energy + EPT2 Root   0 = -112.796944312301 Eh =   0.0000 eV


  ==> GAS Contribution Analysis <==

  Root 0:
    Config.  1_A  1_B  2_A  2_B  Contribution
    -----------------------------------------
         1     1    1    6    6 100.00000000%
         2     1    0    6    7   0.00000000%
         3     0    1    7    6   0.00000000%
         4     0    0    7    7   0.00000000%
    -----------------------------------------
               GAS1      GAS2    Contribution
    -----------------------------------------
                  0        14     0.00000000%
                  1        13     0.00000000%
                  2        12   100.00000000%
    -----------------------------------------
  ***** Calculation Converged *****

  ==> ACI Natural Orbitals <==

        2A1     2.000000      1A1     2.000000      3A1     1.999173  
        4A1     1.998626      5A1     1.971987      1B1     1.967179  
        1B2     1.967179      2B1     0.045872      2B2     0.045872  
        6A1     0.004112  

  ==> Excited state solver summary <==

  Iterations required:                         3
  Dimension of optimized determinant space:    124

  * Selected-CI Energy Root   0        = -112.795961273084 Eh =   0.0000 eV
  * Selected-CI Energy Root   0 + EPT2 = -112.796944312301 Eh =   0.0000 eV

  ==> Wavefunction Information <==

  Most important contributions to root   0:
    0   0.975319 0.951247056          53 |2222202020>
    1  -0.084404 0.007124077          52 |2222202002>
    2  -0.084404 0.007124077          51 |2222200220>
    3  -0.066693 0.004447994          50 |2222002220>
    4  -0.066693 0.004447994          49 |2222002022>
    5  -0.064901 0.004212159          48 |222220-++->
    6  -0.064901 0.004212159          47 |222220+--+>
    7  -0.052267 0.002731833          45 |222220-+-+>
    8  -0.052267 0.002731833          46 |222220+-+->
    9   0.023963 0.000574206          41 |222+-02022>

  Saving information for root: 0

  ==> Energy Summary <==

    Multi.(2ms)  Irrep.  No.               Energy      <S^2>
    --------------------------------------------------------
       1  (  0)    A1     0     -112.795961273084   0.000000
    --------------------------------------------------------
  1-RDM  took 0.000770 s (determinant)

  ==> Dipole Moments [e a0] (Nuclear + Electronic) for Singlet (Ms = 0) A1 <==

       State           DM_X           DM_Y           DM_Z           |DM|
    --------------------------------------------------------------------
         0A1     0.00000000     0.00000000     0.02801252     0.02801252
    --------------------------------------------------------------------
     Nuclear     0.00000000     0.00000000     0.00231445     0.00231445
    --------------------------------------------------------------------
  1-RDM  took 0.000755 s (determinant)

  ==> Quadrupole Moments [e a0^2] (Nuclear + Electronic) for Singlet (Ms = 0) A1 <==

       State          QM_XX          QM_XY          QM_XZ          QM_YY          QM_YZ          QM_ZZ
    --------------------------------------------------------------------------------------------------
         0A1    -7.50824398     0.00000000     0.00000000    -7.50824398     0.00000000    -9.00860775
    --------------------------------------------------------------------------------------------------
     Nuclear     0.00000000     0.00000000     0.00000000     0.00000000     0.00000000    15.46029913
    --------------------------------------------------------------------------------------------------

  Time to prepare integrals:        0.071 seconds
  Time to run job          :        0.043 seconds
  Total                    :        0.114 seconds
    ACI energy............................................................................PASSED
    ACI+PT2 energy........................................................................PASSED

Scratch directory: /tmp/

  Forte
  ----------------------------------------------------------------------------
  A suite of quantum chemistry methods for strongly correlated electrons

    git branch: main - git commit: 757934d4

  Developed by:
    Francesco A. Evangelista, Chenyang Li, Kevin P. Hannon,
    Jeffrey B. Schriber, Tianyuan Zhang, Chenxi Cai,
    Nan He, Nicholas Stair, Shuhe Wang, Renke Huang
  ----------------------------------------------------------------------------


  Preparing forte objects from a Psi4 Wavefunction object
  Read options for space GAS1
  Read options for space GAS2
  Read options for space GAS1
  Read options for space GAS2

  ==> MO Space Information <==

  -------------------------------------------------
                       A1    A2    B1    B2   Sum
  -------------------------------------------------
    FROZEN_DOCC         0     0     0     0     0
    RESTRICTED_DOCC     0     0     0     0     0
    GAS1                1     0     0     0     1
    GAS2                5     0     2     2     9
    GAS3                0     0     0     0     0
    GAS4                0     0     0     0     0
    GAS5                0     0     0     0     0
    GAS6                0     0     0     0     0
    RESTRICTED_UOCC    10     2     4     4    20
    FROZEN_UOCC         0     0     0     0     0
    Total              16     2     6     6    30
  -------------------------------------------------   => Loading Basis Set <=

    Name: 6-31G**
    Role: ORBITAL
    Keyword: BASIS
    atoms 1 entry C          line   115 file /Users/brianz98/local/psi4/objdir-Release/stage/share/psi4/basis/6-31gss.gbs 
    atoms 2 entry O          line   149 file /Users/brianz98/local/psi4/objdir-Release/stage/share/psi4/basis/6-31gss.gbs 


  Checking orbital orthonormality against current geometry ... Done (OK)

   => Loading Basis Set <=

    Name: STO-3G
    Role: ORBITAL
    Keyword: MINAO_BASIS
    atoms 1 entry C          line    61 file /Users/brianz98/local/psi4/objdir-Release/stage/share/psi4/basis/sto-3g.gbs 
    atoms 2 entry O          line    81 file /Users/brianz98/local/psi4/objdir-Release/stage/share/psi4/basis/sto-3g.gbs 


  State Triplet (Ms = 0) B1 GAS min: 0 0 0 0 0 0 ; GAS max: 1 18 0 0 0 0 ; weights:
      1.000000000000
  Forte will use psi4 integrals

  ==> Primary Basis Set Summary <==

  Basis Set: 6-31G**
    Blend: 6-31G**
    Number of shells: 12
    Number of basis functions: 30
    Number of Cartesian functions: 30
    Spherical Harmonics?: false
    Max angular momentum: 2


  JK created using conventional PK integrals
  Using in-core PK algorithm.
   Calculation information:
      Number of atoms:                   2
      Number of AO shells:              12
      Number of primitives:             30
      Number of atomic orbitals:        30
      Number of basis functions:        30

      Integral cutoff                 1.00e-12
      Number of threads:                 1

  Performing in-core PK
  Using 216690 doubles for integral storage.
  We computed 3081 shell quartets total.
  Whereas there are 3081 unique shell quartets.

  ==> DiskJK: Disk-Based J/K Matrices <==

    J tasked:                  Yes
    K tasked:                  Yes
    wK tasked:                  No
    Memory [MiB]:              400
    Schwarz Cutoff:          1E-12

    OpenMP threads:              1



  ==> Integral Transformation <==

  Number of molecular orbitals:                         30
  Number of correlated molecular orbitals:              30
  Number of frozen occupied orbitals:                    0
  Number of frozen unoccupied orbitals:                  0
  Two-electron integral type:                 Conventional


  Computing Conventional Integrals	Presorting SO-basis two-electron integrals.
	Sorting File: SO Ints (nn|nn) nbuckets = 1
	Constructing frozen core operators
	Starting first half-transformation.
	h = 0; memfree         = 65535336
	h = 0; rows_per_bucket = 181
	h = 0; rows_left       = 0
	h = 0; nbuckets        = 1
	h = 1; memfree         = 65535728
	h = 1; rows_per_bucket = 68
	h = 1; rows_left       = 0
	h = 1; nbuckets        = 1
	h = 2; memfree         = 65535568
	h = 2; rows_per_bucket = 108
	h = 2; rows_left       = 0
	h = 2; nbuckets        = 1
	h = 3; memfree         = 65535568
	h = 3; rows_per_bucket = 108
	h = 3; rows_left       = 0
	h = 3; nbuckets        = 1
	Sorting half-transformed integrals.
	First half integral transformation complete.
	Starting second half-transformation.
	h = 0; memfree         = 65535336
	h = 0; rows_per_bucket = 181
	h = 0; rows_left       = 0
	h = 0; nbuckets        = 1
	h = 1; memfree         = 65535728
	h = 1; rows_per_bucket = 68
	h = 1; rows_left       = 0
	h = 1; nbuckets        = 1
	h = 2; memfree         = 65535568
	h = 2; rows_per_bucket = 108
	h = 2; rows_left       = 0
	h = 2; nbuckets        = 1
	h = 3; memfree         = 65535568
	h = 3; rows_per_bucket = 108
	h = 3; rows_left       = 0
	h = 3; nbuckets        = 1
	Two-electron integral transformation complete.

  Integral transformation done. 0.00923292 s
  Reading the two-electron integrals from disk
  Size of two-electron integrals:   0.018105 GB
  Timing for conventional integral transformation:            0.028 s.
  Timing for freezing core and virtual orbitals:              0.000 s.
  Timing for computing conventional integrals:                0.028 s.

  Skipping MCSCF computation. Using HF or orbitals passed via ref_wfn


--------------------------------------------------------------------------------
               Selected Configuration Interaction Excited States
  written by Jeffrey B. Schriber, Tianyuan Zhang, and Francesco A. Evangelista
--------------------------------------------------------------------------------

  ==> Calculation Information <==

  -----------------------------------------------------------------
    Multiplicity                             3    
    Symmetry                                 2    
    Number of roots                          1    
    Ms                                       0
    Excited Algorithm                        NONE
  -----------------------------------------------------------------
  Using 1 thread(s)
  Computing wavefunction for root 0

        ---------------------------------------------------------------
                      Adaptive Configuration Interaction
          written by Jeffrey B. Schriber and Francesco A. Evangelista
        ---------------------------------------------------------------

  ==> Reference Information <==

  There are 0 frozen orbitals.
  There are 10 active orbitals.


  ==> ACI Solver <==

    --------------------------------------------------------
    Ms                                                     0
    Diagonalization algorithm                         SPARSE
    Excited Algorithm                                   NONE
    Project out spin contaminants                       True
    Enforce spin completeness of basis                  True
    Enforce complete aimed selection                    True
    Multiroot averaging                              Average
    Sigma (Eh)                                     1.000e-03
    Gamma (Eh^(-1))                                1.000e+00
    Convergence threshold                          1.000e-09
    Multiplicity                                           3
    Symmetry                                               2
    Number of roots                                        1
    Root used for properties                               0
    Roots used for averaging                               1
    Root averaging offset                                  0
    --------------------------------------------------------
  Number of active orbitals: 10
  Number of active alpha electrons: 7
  Number of active beta electrons: 7

  ==> GAS Orbital Energies from SCF <==

    GAS        Energy  Index
    ------------------------
     1   -20.67509326      0
     2   -11.35927182      1
     2    -1.52224836      2
     2    -0.79693086      3
     2    -0.54713745      4
     2     0.40906066      5
     2    -0.63485812      6
     2     0.16368498      7
     2    -0.63485812      8
     2     0.16368498      9
    ------------------------

  ==> Number of Electrons in GAS <==

    GAS  MAX  MIN
    -------------
      1    1    0
      2   14    0
    -------------

  ==> Possible Electron Occupations in GAS <==

    Config.  1_A  1_B  2_A  2_B
    ---------------------------
         1     1    0    6    7
         2     0    1    7    6
         3     0    0    7    7
    ---------------------------
    n_A/B: # of alpha/beta electrons in GASn

  ==> Building GAS Determinants <==

    Reference determinant: |+222202-20>


  ---------------------------------- Cycle 0 -----------------------------------

  ==> Diagonalizing the Hamiltonian in the P space <==

  Initial P space dimension: 1
  Spin-complete dimension of the P space: 2 determinants

  Davidson-Liu solver algorithm using SigmaVectorSparseList sigma algorithm

  Performing full diagonalization of the H matrix
  Found 1 roots with 2S+1 = 1
  Found 1 roots with 2S+1 = 3 *
  Time spent diagonalizing H:   0.000140 s

    P-space  CI Energy Root   0        = -92.424092536610 Eh =   0.0000 eV, S^2 = 2.000000


  ==> Finding the Q space <==

  Using SR screening algorithm
  Time spent forming F space:             0.000038
  Time spent merging thread F spaces:             0.000015
  Size of F space: 212
  Time spent building sorting list: 0.000049
  Dimension of the PQ space:                  80
  Dimension of the PQ space (spin-complete) : 106
  Time spent building the model space: 0.000194

  ==> Diagonalizing the Hamiltonian in the P + Q space <==

  Number of reference roots: 1

  Davidson-Liu solver algorithm using SigmaVectorSparseList sigma algorithm

  Performing full diagonalization of the H matrix
  Found 35 roots with 2S+1 = 1
  Found 51 roots with 2S+1 = 3 *
  Found 18 roots with 2S+1 = 5
  Found 2 roots with 2S+1 = 7
  Total time spent diagonalizing H:   0.005326 s

    PQ-space CI Energy Root   0        = -92.687775589328 Eh =   0.0000 eV, S^2 = 2.000000
    PQ-space CI Energy + EPT2 Root   0 = -92.688740755783 Eh =   0.0000 eV


  ==> GAS Contribution Analysis <==

  Root 0:
    Config.  1_A  1_B  2_A  2_B  Contribution
    -----------------------------------------
         1     1    0    6    7  49.99903357%
         2     0    1    7    6  49.99903357%
         3     0    0    7    7   0.00193287%
    -----------------------------------------
               GAS1      GAS2    Contribution
    -----------------------------------------
                  0        14     0.00193287%
                  1        13    99.99806713%
    -----------------------------------------

  ==> Pruning the Q space <==

  Cycle 0 took: 0.006360 s


  ---------------------------------- Cycle 1 -----------------------------------

  ==> Diagonalizing the Hamiltonian in the P space <==

  Initial P space dimension: 50
  Spin-complete dimension of the P space: 100 determinants

  Davidson-Liu solver algorithm using SigmaVectorSparseList sigma algorithm

  Performing full diagonalization of the H matrix
  Found 32 roots with 2S+1 = 1
  Found 48 roots with 2S+1 = 3 *
  Found 18 roots with 2S+1 = 5
  Found 2 roots with 2S+1 = 7
  Time spent diagonalizing H:   0.004942 s

    P-space  CI Energy Root   0        = -92.687258778505 Eh =   0.0000 eV, S^2 = 2.000000


  ==> Finding the Q space <==

  Using SR screening algorithm
  Time spent forming F space:             0.000838
  Time spent merging thread F spaces:             0.000080
  Size of F space: 1322
  Time spent building sorting list: 0.000302
  Dimension of the PQ space:                  134
  Dimension of the PQ space (spin-complete) : 168
  Time spent building the model space: 0.001616

  ==> Diagonalizing the Hamiltonian in the P + Q space <==

  Number of reference roots: 1

  Davidson-Liu solver algorithm using SigmaVectorSparseList sigma algorithm

  Performing full diagonalization of the H matrix
  Found 54 roots with 2S+1 = 1
  Found 81 roots with 2S+1 = 3 *
  Found 30 roots with 2S+1 = 5
  Found 3 roots with 2S+1 = 7
  Total time spent diagonalizing H:   0.009971 s

    PQ-space CI Energy Root   0        = -92.691091981832 Eh =   0.0000 eV, S^2 = 2.000000
    PQ-space CI Energy + EPT2 Root   0 = -92.692079806900 Eh =   0.0000 eV


  ==> GAS Contribution Analysis <==

  Root 0:
    Config.  1_A  1_B  2_A  2_B  Contribution
    -----------------------------------------
         1     1    0    6    7  49.99906557%
         2     0    1    7    6  49.99906557%
         3     0    0    7    7   0.00186887%
    -----------------------------------------
               GAS1      GAS2    Contribution
    -----------------------------------------
                  0        14     0.00186887%
                  1        13    99.99813113%
    -----------------------------------------

  ==> Pruning the Q space <==

  Cycle 1 took: 0.017899 s


  ---------------------------------- Cycle 2 -----------------------------------

  ==> Diagonalizing the Hamiltonian in the P space <==

  Initial P space dimension: 68
  Spin-complete dimension of the P space: 108 determinants

  Davidson-Liu solver algorithm using SigmaVectorSparseList sigma algorithm

  Performing full diagonalization of the H matrix
  Found 35 roots with 2S+1 = 1
  Found 52 roots with 2S+1 = 3 *
  Found 19 roots with 2S+1 = 5
  Found 2 roots with 2S+1 = 7
  Time spent diagonalizing H:   0.005431 s

    P-space  CI Energy Root   0        = -92.688867665314 Eh =   0.0000 eV, S^2 = 2.000000


  ==> Finding the Q space <==

  Using SR screening algorithm
  Time spent forming F space:             0.000943
  Time spent merging thread F spaces:             0.000083
  Size of F space: 1382
  Time spent building sorting list: 0.000318
  Added 1 missing determinants in aimed selection (find_q_space).
  Dimension of the PQ space:                  140
  Dimension of the PQ space (spin-complete) : 170
  Time spent building the model space: 0.001744

  ==> Diagonalizing the Hamiltonian in the P + Q space <==

  Number of reference roots: 1

  Davidson-Liu solver algorithm using SigmaVectorSparseList sigma algorithm

  Performing full diagonalization of the H matrix
  Found 55 roots with 2S+1 = 1
  Found 82 roots with 2S+1 = 3 *
  Found 30 roots with 2S+1 = 5
  Found 3 roots with 2S+1 = 7
  Total time spent diagonalizing H:   0.010071 s

    PQ-space CI Energy Root   0        = -92.691156794628 Eh =   0.0000 eV, S^2 = 2.000000
    PQ-space CI Energy + EPT2 Root   0 = -92.692138279775 Eh =   0.0000 eV


  ==> GAS Contribution Analysis <==

  Root 0:
    Config.  1_A  1_B  2_A  2_B  Contribution
    -----------------------------------------
         1     1    0    6    7  49.99906546%
         2     0    1    7    6  49.99906546%
         3     0    0    7    7   0.00186907%
    -----------------------------------------
               GAS1      GAS2    Contribution
    -----------------------------------------
                  0        14     0.00186907%
                  1        13    99.99813093%
    -----------------------------------------

  ==> Pruning the Q space <==

  Added 1 missing determinants in aimed selection (prune_q_space).
  Cycle 2 took: 0.018664 s


  ---------------------------------- Cycle 3 -----------------------------------

  ==> Diagonalizing the Hamiltonian in the P space <==

  Initial P space dimension: 70
  Spin-complete dimension of the P space: 114 determinants

  Davidson-Liu solver algorithm using SigmaVectorSparseList sigma algorithm

  Performing full diagonalization of the H matrix
  Found 37 roots with 2S+1 = 1
  Found 55 roots with 2S+1 = 3 *
  Found 20 roots with 2S+1 = 5
  Found 2 roots with 2S+1 = 7
  Time spent diagonalizing H:   0.005894 s

    P-space  CI Energy Root   0        = -92.689195118890 Eh =   0.0000 eV, S^2 = 2.000000


  ==> Finding the Q space <==

  Using SR screening algorithm
  Time spent forming F space:             0.000980
  Time spent merging thread F spaces:             0.000087
  Size of F space: 1456
  Time spent building sorting list: 0.000332
  Dimension of the PQ space:                  142
  Dimension of the PQ space (spin-complete) : 172
  Time spent building the model space: 0.001820

  ==> Diagonalizing the Hamiltonian in the P + Q space <==

  Number of reference roots: 1

  Davidson-Liu solver algorithm using SigmaVectorSparseList sigma algorithm

  Performing full diagonalization of the H matrix
  Found 56 roots with 2S+1 = 1
  Found 83 roots with 2S+1 = 3 *
  Found 30 roots with 2S+1 = 5
  Found 3 roots with 2S+1 = 7
  Total time spent diagonalizing H:   0.010310 s

    PQ-space CI Energy Root   0        = -92.691245382438 Eh =   0.0000 eV, S^2 = 2.000000
    PQ-space CI Energy + EPT2 Root   0 = -92.692238644139 Eh =   0.0000 eV


  ==> GAS Contribution Analysis <==

  Root 0:
    Config.  1_A  1_B  2_A  2_B  Contribution
    -----------------------------------------
         1     1    0    6    7  49.99906566%
         2     0    1    7    6  49.99906566%
         3     0    0    7    7   0.00186867%
    -----------------------------------------
               GAS1      GAS2    Contribution
    -----------------------------------------
                  0        14     0.00186867%
                  1        13    99.99813133%
    -----------------------------------------

  ==> Pruning the Q space <==

  Cycle 3 took: 0.019537 s


  ---------------------------------- Cycle 4 -----------------------------------

  ==> Diagonalizing the Hamiltonian in the P space <==

  Initial P space dimension: 70
  Spin-complete dimension of the P space: 114 determinants

  Davidson-Liu solver algorithm using SigmaVectorSparseList sigma algorithm

  Performing full diagonalization of the H matrix
  Found 37 roots with 2S+1 = 1
  Found 55 roots with 2S+1 = 3 *
  Found 20 roots with 2S+1 = 5
  Found 2 roots with 2S+1 = 7
  Time spent diagonalizing H:   0.005928 s

    P-space  CI Energy Root   0        = -92.689195118890 Eh =   0.0000 eV, S^2 = 2.000000


  ==> Finding the Q space <==

  Using SR screening algorithm
  Time spent forming F space:             0.000981
  Time spent merging thread F spaces:             0.000086
  Size of F space: 1456
  Time spent building sorting list: 0.000332
  Dimension of the PQ space:                  142
  Dimension of the PQ space (spin-complete) : 172
  Time spent building the model space: 0.001819

  ==> Diagonalizing the Hamiltonian in the P + Q space <==

  Number of reference roots: 1

  Davidson-Liu solver algorithm using SigmaVectorSparseList sigma algorithm

  Performing full diagonalization of the H matrix
  Found 56 roots with 2S+1 = 1
  Found 83 roots with 2S+1 = 3 *
  Found 30 roots with 2S+1 = 5
  Found 3 roots with 2S+1 = 7
  Total time spent diagonalizing H:   0.010404 s

    PQ-space CI Energy Root   0        = -92.691245382438 Eh =   0.0000 eV, S^2 = 2.000000
    PQ-space CI Energy + EPT2 Root   0 = -92.692238644139 Eh =   0.0000 eV


  ==> GAS Contribution Analysis <==

  Root 0:
    Config.  1_A  1_B  2_A  2_B  Contribution
    -----------------------------------------
         1     1    0    6    7  49.99906566%
         2     0    1    7    6  49.99906566%
         3     0    0    7    7   0.00186867%
    -----------------------------------------
               GAS1      GAS2    Contribution
    -----------------------------------------
                  0        14     0.00186867%
                  1        13    99.99813133%
    -----------------------------------------
  ***** Calculation Converged *****

  ==> ACI Natural Orbitals <==

        1A1     2.000000      2A1     1.999789      3A1     1.999580  
        1B1     1.999184      1B2     1.997983      4A1     1.963023  
        2B1     1.000816      5A1     0.999996      2B2     0.036632  
        6A1     0.002997  

  ==> Excited state solver summary <==

  Iterations required:                         4
  Dimension of optimized determinant space:    172

  * Selected-CI Energy Root   0        = -92.691245382438 Eh =   0.0000 eV
  * Selected-CI Energy Root   0 + EPT2 = -92.692238644139 Eh =   0.0000 eV

  ==> Wavefunction Information <==

  Most important contributions to root   0:
    0  -0.623729 0.389038344          68 |+222202-20>
    1   0.623729 0.389038344          69 |-222202+20>
    2  -0.176472 0.031142374          67 |-222202++->
    3   0.176472 0.031142374          66 |+222202--+>
    4   0.174884 0.030584554          64 |+22220-220>
    5  -0.174884 0.030584554          65 |-22220+220>
    6  -0.164180 0.026954930          62 |-222202+-+>
    7   0.164180 0.026954930          63 |+222202-+->
    8  -0.078367 0.006141452          60 |+222002-22>
    9   0.078367 0.006141452          61 |-222002+22>

  Saving information for root: 0

  ==> Energy Summary <==

    Multi.(2ms)  Irrep.  No.               Energy      <S^2>
    --------------------------------------------------------
       3  (  0)    B1     0      -92.691245382438   2.000000
    --------------------------------------------------------
  1-RDM  took 0.001010 s (determinant)

  ==> Dipole Moments [e a0] (Nuclear + Electronic) for Triplet (Ms = 0) B1 <==

       State           DM_X           DM_Y           DM_Z           |DM|
    --------------------------------------------------------------------
         0B1     0.00000000     0.00000000     0.45616756     0.45616756
    --------------------------------------------------------------------
     Nuclear     0.00000000     0.00000000     0.00231445     0.00231445
    --------------------------------------------------------------------
  1-RDM  took 0.001010 s (determinant)

  ==> Quadrupole Moments [e a0^2] (Nuclear + Electronic) for Triplet (Ms = 0) B1 <==

       State          QM_XX          QM_XY          QM_XZ          QM_YY          QM_YZ          QM_ZZ
    --------------------------------------------------------------------------------------------------
         0B1    -9.65961214     0.00000000     0.00000000    -7.89107715     0.00000000   -10.45074891
    --------------------------------------------------------------------------------------------------
     Nuclear     0.00000000     0.00000000     0.00000000     0.00000000     0.00000000    15.46029913
    --------------------------------------------------------------------------------------------------

  Time to prepare integrals:        0.065 seconds
  Time to run job          :        0.086 seconds
  Total                    :        0.152 seconds
    ACI energy............................................................................PASSED
    ACI+PT2 energy........................................................................PASSED

    Psi4 stopped on: Thursday, 08 August 2024 04:50PM
    Psi4 wall time for execution: 0:00:01.10

*** Psi4 exiting successfully. Buy a developer a beer!
