
    -----------------------------------------------------------------------
          Psi4: An Open-Source Ab Initio Electronic Structure Package
                               Psi4 1.9a1.dev50 

                         Git: Rev {fixtemp} 466ebc2 


    D. G. A. Smith, L. A. Burns, A. C. Simmonett, R. M. Parrish,
    M. C. Schieber, R. Galvelis, P. Kraus, H. Kruse, R. Di Remigio,
    A. Alenaizan, A. M. James, S. Lehtola, J. P. Misiewicz, M. Scheurer,
    R. A. Shaw, J. B. Schriber, Y. Xie, Z. L. Glick, D. A. Sirianni,
    J. S. O'Brien, J. M. Waldrop, A. Kumar, E. G. Hohenstein,
    B. P. Pritchard, B. R. Brooks, H. F. Schaefer III, A. Yu. Sokolov,
    K. Patkowski, A. E. DePrince III, U. Bozkaya, R. A. King,
    F. A. Evangelista, J. M. Turney, T. D. Crawford, C. D. Sherrill,
    J. Chem. Phys. 152(18) 184108 (2020). https://doi.org/10.1063/5.0006002

                            Additional Code Authors
    E. T. Seidl, C. L. Janssen, E. F. Valeev, M. L. Leininger,
    J. F. Gonthier, R. M. Richard, H. R. McAlexander, M. Saitow, X. Wang,
    P. Verma, M. H. Lechner, A. Jiang, S. Behnle, A. G. Heide,
    M. F. Herbst, and D. L. Poole

             Previous Authors, Complete List of Code Contributors,
                       and Citations for Specific Modules
    https://github.com/psi4/psi4/blob/master/codemeta.json
    https://github.com/psi4/psi4/graphs/contributors
    http://psicode.org/psi4manual/master/introduction.html#citing-psifour

    -----------------------------------------------------------------------


    Psi4 started on: Thursday, 26 October 2023 03:02PM

    Process ID: 73411
    Host:       macbook-pro-158.wireless.emory.edu
    PSIDATADIR: /Users/fevange/Source/psi4/objdir-Release/stage/share/psi4
    Memory:     500.0 MiB
    Threads:    1
    
  ==> Input File <==

--------------------------------------------------------------------------
# Test FCI transition dipole and oscillator strengths

import forte

r_scf = -154.80914322697598
r_0ag = -154.84695193645672
r_1ag = -154.59019912152513
r_2ag = -154.45363253270600
r_0bu = -154.54629332287075
rosc_0ag_0bu = 1.086716030595
rosc_1ag_0bu = 0.013542791095
rosc_2ag_0bu = 0.041762051475

molecule butadiene{
0 1
H  1.080977 -2.558832  0.000000
H -1.080977  2.558832  0.000000
H  2.103773 -1.017723  0.000000
H -2.103773  1.017723  0.000000
H -0.973565 -1.219040  0.000000
H  0.973565  1.219040  0.000000
C  0.000000  0.728881  0.000000
C  0.000000 -0.728881  0.000000
C  1.117962 -1.474815  0.000000
C -1.117962  1.474815  0.000000
}

set {
  reference      rhf
  scf_type       df
  basis          def2-svp
  df_basis_scf   def2-universal-jkfit
  df_basis_mp2   def2-universal-jkfit
  e_convergence  10
  d_convergence  12
  maxiter        100
}
Escf, wfn = energy('scf', return_wfn=True)
compare_values(r_scf, Escf, 8, "SCF energy")

set forte{
  int_type            df
  active_space_solver fci
  e_convergence       10
  frozen_docc         [2,0,0,2]
  restricted_docc     [5,0,0,4]
  active              [0,2,2,0]
  avg_state           [[0,1,3], [3,1,1]]
  transition_dipoles  true
}
energy('forte', ref_wfn=wfn)

compare_values(r_0ag, variable("ENERGY ROOT 0 1AG"), 8, "CASCI(4,4) singlet Ag energy 0")
compare_values(r_1ag, variable("ENERGY ROOT 1 1AG"), 8, "CASCI(4,4) singlet Ag energy 1")
compare_values(r_2ag, variable("ENERGY ROOT 2 1AG"), 8, "CASCI(4,4) singlet Ag energy 2")
compare_values(r_0bu, variable("ENERGY ROOT 0 1BU"), 8, "CASCI(4,4) singlet Bu energy 0")
compare_values(rosc_0ag_0bu, variable("OSC. SINGLET 0AG -> 0BU"), 6, "Oscillator strength singlet 0Ag -> 0Bu")
compare_values(rosc_1ag_0bu, variable("OSC. SINGLET 1AG -> 0BU"), 6, "Oscillator strength singlet 1Ag -> 0Bu")
compare_values(rosc_2ag_0bu, variable("OSC. SINGLET 2AG -> 0BU"), 6, "Oscillator strength singlet 2Ag -> 0Bu")

--------------------------------------------------------------------------

Scratch directory: /tmp/
   => Libint2 <=

    Primary   basis highest AM E, G, H:  5, 4, 3
    Auxiliary basis highest AM E, G, H:  6, 5, 4
    Onebody   basis highest AM E, G, H:  6, 5, 4
    Solid Harmonics ordering:            gaussian

*** tstart() called on macbook-pro-158.wireless.emory.edu
*** at Thu Oct 26 15:02:12 2023

   => Loading Basis Set <=

    Name: DEF2-SVP
    Role: ORBITAL
    Keyword: BASIS
    atoms 1-6  entry H          line    15 file /Users/fevange/Source/psi4/objdir-Release/stage/share/psi4/basis/def2-svp.gbs 
    atoms 7-10 entry C          line    90 file /Users/fevange/Source/psi4/objdir-Release/stage/share/psi4/basis/def2-svp.gbs 


         ---------------------------------------------------------
                                   SCF
               by Justin Turney, Rob Parrish, Andy Simmonett
                          and Daniel G. A. Smith
                              RHF Reference
                        1 Threads,    500 MiB Core
         ---------------------------------------------------------

  ==> Geometry <==

    Molecular point group: c2h
    Full point group: C2h

    Geometry (in Angstrom), charge = 0, multiplicity = 1:

       Center              X                  Y                   Z               Mass       
    ------------   -----------------  -----------------  -----------------  -----------------
         H            1.080977000000    -2.558832000000     0.000000000000     1.007825032230
         H           -1.080977000000     2.558832000000     0.000000000000     1.007825032230
         H            2.103773000000    -1.017723000000     0.000000000000     1.007825032230
         H           -2.103773000000     1.017723000000     0.000000000000     1.007825032230
         H           -0.973565000000    -1.219040000000     0.000000000000     1.007825032230
         H            0.973565000000     1.219040000000     0.000000000000     1.007825032230
         C           -0.000000000000     0.728881000000     0.000000000000    12.000000000000
         C            0.000000000000    -0.728881000000     0.000000000000    12.000000000000
         C            1.117962000000    -1.474815000000     0.000000000000    12.000000000000
         C           -1.117962000000     1.474815000000     0.000000000000    12.000000000000

  Running in c2h symmetry.

  Rotational constants: A =      1.39831  B =      0.14741  C =      0.13335 [cm^-1]
  Rotational constants: A =  41920.28303  B =   4419.18036  C =   3997.74357 [MHz]
  Nuclear repulsion =  103.516094180281002

  Charge       = 0
  Multiplicity = 1
  Electrons    = 30
  Nalpha       = 15
  Nbeta        = 15

  ==> Algorithm <==

  SCF Algorithm Type is DF.
  DIIS enabled.
  MOM disabled.
  Fractional occupation disabled.
  Guess Type is SAD.
  Energy threshold   = 1.00e-10
  Density threshold  = 1.00e-12
  Integral threshold = 1.00e-12

  ==> Primary Basis <==

  Basis Set: DEF2-SVP
    Blend: DEF2-SVP
    Number of shells: 42
    Number of basis functions: 86
    Number of Cartesian functions: 90
    Spherical Harmonics?: true
    Max angular momentum: 2

   => Loading Basis Set <=

    Name: DEF2-UNIVERSAL-JKFIT
    Role: JKFIT
    Keyword: DF_BASIS_SCF
    atoms 1-6  entry H          line    18 file /Users/fevange/Source/psi4/objdir-Release/stage/share/psi4/basis/def2-universal-jkfit.gbs 
    atoms 7-10 entry C          line   198 file /Users/fevange/Source/psi4/objdir-Release/stage/share/psi4/basis/def2-universal-jkfit.gbs 

  ==> Integral Setup <==

  DFHelper Memory: AOs need 0.025 GiB; user supplied 0.366 GiB. 
  Using in-core AOs.

  ==> MemDFJK: Density-Fitted J/K Matrices <==

    J tasked:                   Yes
    K tasked:                   Yes
    wK tasked:                   No
    OpenMP threads:               1
    Memory [MiB]:               375
    Algorithm:                 Core
    Schwarz Cutoff:           1E-12
    Mask sparsity (%):       2.0011
    Fitting Condition:        1E-10

   => Auxiliary Basis Set <=

  Basis Set: DEF2-UNIVERSAL-JKFIT
    Blend: DEF2-UNIVERSAL-JKFIT
    Number of shells: 136
    Number of basis functions: 408
    Number of Cartesian functions: 476
    Spherical Harmonics?: true
    Max angular momentum: 4

  Minimum eigenvalue in the overlap matrix is 2.5253557606E-03.
  Reciprocal condition number of the overlap matrix is 5.2110279239E-04.
    Using symmetric orthogonalization.

  ==> Pre-Iterations <==

  SCF Guess: Superposition of Atomic Densities via on-the-fly atomic UHF (no occupation information).

   -------------------------
    Irrep   Nso     Nmo    
   -------------------------
     Ag        32      32 
     Bg        11      11 
     Au        11      11 
     Bu        32      32 
   -------------------------
    Total      86      86
   -------------------------

  ==> Iterations <==

                           Total Energy        Delta E     RMS |[F,P]|

   @DF-RHF iter SAD:  -153.91732540261111   -1.53917e+02   0.00000e+00 
   @DF-RHF iter   1:  -154.72066245588550   -8.03337e-01   7.29610e-03 ADIIS/DIIS
   @DF-RHF iter   2:  -154.79935571743280   -7.86933e-02   2.57893e-03 ADIIS/DIIS
   @DF-RHF iter   3:  -154.80829634074911   -8.94062e-03   6.27903e-04 ADIIS/DIIS
   @DF-RHF iter   4:  -154.80907709519596   -7.80754e-04   2.22539e-04 ADIIS/DIIS
   @DF-RHF iter   5:  -154.80914051435784   -6.34192e-05   2.95112e-05 DIIS
   @DF-RHF iter   6:  -154.80914313587803   -2.62152e-06   4.56143e-06 DIIS
   @DF-RHF iter   7:  -154.80914322224160   -8.63636e-08   1.10535e-06 DIIS
   @DF-RHF iter   8:  -154.80914322696196   -4.72036e-09   2.75838e-07 DIIS
   @DF-RHF iter   9:  -154.80914322719494   -2.32973e-10   7.26409e-08 DIIS
   @DF-RHF iter  10:  -154.80914322721213   -1.71951e-11   1.70103e-08 DIIS
   @DF-RHF iter  11:  -154.80914322721287   -7.38964e-13   2.60464e-09 DIIS
   @DF-RHF iter  12:  -154.80914322721304   -1.70530e-13   2.58646e-10 DIIS
   @DF-RHF iter  13:  -154.80914322721310   -5.68434e-14   3.97591e-11 DIIS
   @DF-RHF iter  14:  -154.80914322721310    0.00000e+00   7.18444e-12 DIIS
   @DF-RHF iter  15:  -154.80914322721321   -1.13687e-13   1.44832e-12 DIIS
   @DF-RHF iter  16:  -154.80914322721293    2.84217e-13   2.97768e-13 DIIS
  Energy and wave function converged.


  ==> Post-Iterations <==

    Orbital Energies [Eh]
    ---------------------

    Doubly Occupied:                                                      

       1Ag   -11.243124     1Bu   -11.242410     2Ag   -11.236541  
       2Bu   -11.236517     3Ag    -1.078940     3Bu    -0.987463  
       4Ag    -0.818072     4Bu    -0.748134     5Bu    -0.643712  
       5Ag    -0.634701     6Ag    -0.558610     6Bu    -0.544131  
       7Ag    -0.495371     1Au    -0.443869     1Bg    -0.322197  

    Virtual:                                                              

       2Au     0.114629     7Bu     0.202433     8Ag     0.208235  
       8Bu     0.218310     2Bg     0.237852     9Ag     0.269047  
      10Ag     0.279223     9Bu     0.295480    10Bu     0.444634  
      11Ag     0.459581    11Bu     0.535262    12Ag     0.555507  
      12Bu     0.580960    13Ag     0.603007    13Bu     0.625213  
       3Au     0.687012    14Ag     0.724716     3Bg     0.746432  
      14Bu     0.756774     4Bg     0.828193     4Au     0.847118  
      15Bu     0.874292    15Ag     0.881581    16Bu     0.900989  
      16Ag     0.905649    17Ag     0.918990    17Bu     0.950894  
      18Bu     1.023073    18Ag     1.088217    19Bu     1.090570  
      19Ag     1.227617    20Bu     1.364444    20Ag     1.392961  
       5Au     1.430889     5Bg     1.458290     6Bg     1.494105  
       6Au     1.526952     7Au     1.556506    21Ag     1.865903  
      21Bu     1.872584    22Ag     1.900788    22Bu     1.926718  
       7Bg     1.929852    23Ag     1.997455     8Au     2.040900  
      24Ag     2.049705    23Bu     2.079608    24Bu     2.085309  
       8Bg     2.177192    25Ag     2.186570     9Au     2.318316  
      25Bu     2.321201    26Bu     2.361986     9Bg     2.368748  
      26Ag     2.439444    10Au     2.574755    27Bu     2.622984  
      27Ag     2.625815    10Bg     2.668916    28Ag     2.738715  
      11Au     2.859951    11Bg     2.863134    28Bu     2.914187  
      29Ag     3.058024    29Bu     3.102155    30Ag     3.172627  
      30Bu     3.174698    31Bu     3.319895    31Ag     3.382123  
      32Bu     3.714631    32Ag     3.735700  

    Final Occupation by Irrep:
             Ag    Bg    Au    Bu 
    DOCC [     7,    1,    1,    6 ]
    NA   [     7,    1,    1,    6 ]
    NB   [     7,    1,    1,    6 ]

  @DF-RHF Final Energy:  -154.80914322721293

   => Energetics <=

    Nuclear Repulsion Energy =            103.5160941802810015
    One-Electron Energy =                -412.1828948563540962
    Two-Electron Energy =                 153.8576574488601523
    Total Energy =                       -154.8091432272129282

Computation Completed


Properties will be evaluated at   0.000000,   0.000000,   0.000000 [a0]

Properties computed using the SCF density matrix


 Multipole Moments:

 ------------------------------------------------------------------------------------
     Multipole            Electronic (a.u.)      Nuclear  (a.u.)        Total (a.u.)
 ------------------------------------------------------------------------------------

 L = 1.  Multiply by 2.5417464519 to convert [e a0] to [Debye]
 Dipole X            :          0.0000000            0.0000000            0.0000000
 Dipole Y            :          0.0000000            0.0000000            0.0000000
 Dipole Z            :          0.0000000            0.0000000            0.0000000
 Magnitude           :                                                    0.0000000

 ------------------------------------------------------------------------------------

*** tstop() called on macbook-pro-158.wireless.emory.edu at Thu Oct 26 15:02:12 2023
Module time:
	user time   =       1.36 seconds =       0.02 minutes
	system time =       1.15 seconds =       0.02 minutes
	total time  =          0 seconds =       0.00 minutes
Total time:
	user time   =       1.36 seconds =       0.02 minutes
	system time =       1.15 seconds =       0.02 minutes
	total time  =          0 seconds =       0.00 minutes
    SCF energy............................................................................PASSED

Scratch directory: /tmp/

  Forte
  ----------------------------------------------------------------------------
  A suite of quantum chemistry methods for strongly correlated electrons

    git branch: trdm - git commit: 0eeef785

  Developed by:
    Francesco A. Evangelista, Chenyang Li, Kevin P. Hannon,
    Jeffrey B. Schriber, Tianyuan Zhang, Chenxi Cai,
    Nan He, Nicholas Stair, Shuhe Wang, Renke Huang
  ----------------------------------------------------------------------------

  Size of Determinant class: 128 bits

  Preparing forte objects from a Psi4 Wavefunction object
  Read options for space FROZEN_DOCC
  Read options for space RESTRICTED_DOCC
  Read options for space ACTIVE
  Read options for space FROZEN_DOCC
  Read options for space RESTRICTED_DOCC

  ==> MO Space Information <==

  -------------------------------------------------
                       Ag    Bg    Au    Bu   Sum
  -------------------------------------------------
    FROZEN_DOCC         2     0     0     2     4
    RESTRICTED_DOCC     5     0     0     4     9
    GAS1                0     2     2     0     4
    GAS2                0     0     0     0     0
    GAS3                0     0     0     0     0
    GAS4                0     0     0     0     0
    GAS5                0     0     0     0     0
    GAS6                0     0     0     0     0
    RESTRICTED_UOCC    25     9     9    26    69
    FROZEN_UOCC         0     0     0     0     0
    Total              32    11    11    32    86
  -------------------------------------------------   => Loading Basis Set <=

    Name: DEF2-SVP
    Role: ORBITAL
    Keyword: BASIS
    atoms 1-6  entry H          line    15 file /Users/fevange/Source/psi4/objdir-Release/stage/share/psi4/basis/def2-svp.gbs 
    atoms 7-10 entry C          line    90 file /Users/fevange/Source/psi4/objdir-Release/stage/share/psi4/basis/def2-svp.gbs 


  Checking orbital orthonormality against current geometry ... Done (OK)

   => Loading Basis Set <=

    Name: DEF2-UNIVERSAL-JKFIT
    Role: RIFIT
    Keyword: DF_BASIS_MP2
    atoms 1-6  entry H          line    18 file /Users/fevange/Source/psi4/objdir-Release/stage/share/psi4/basis/def2-universal-jkfit.gbs 
    atoms 7-10 entry C          line   198 file /Users/fevange/Source/psi4/objdir-Release/stage/share/psi4/basis/def2-universal-jkfit.gbs 

   => Loading Basis Set <=

    Name: STO-3G
    Role: ORBITAL
    Keyword: MINAO_BASIS
    atoms 1-6  entry H          line    19 file /Users/fevange/Source/psi4/objdir-Release/stage/share/psi4/basis/sto-3g.gbs 
    atoms 7-10 entry C          line    61 file /Users/fevange/Source/psi4/objdir-Release/stage/share/psi4/basis/sto-3g.gbs 


  Forte will use psi4 integrals

  ==> Primary Basis Set Summary <==

  Basis Set: DEF2-SVP
    Blend: DEF2-SVP
    Number of shells: 42
    Number of basis functions: 86
    Number of Cartesian functions: 90
    Spherical Harmonics?: true
    Max angular momentum: 2


  JK created using MemDF integrals
  DFHelper Memory: AOs need 0.025 GiB; user supplied 0.391 GiB. 
  Using in-core AOs.

  ==> MemDFJK: Density-Fitted J/K Matrices <==

    J tasked:                   Yes
    K tasked:                   Yes
    wK tasked:                   No
    OpenMP threads:               1
    Memory [MiB]:               400
    Algorithm:                 Core
    Schwarz Cutoff:           1E-12
    Mask sparsity (%):       2.0011
    Fitting Condition:        1E-10

   => Auxiliary Basis Set <=

  Basis Set: DEF2-UNIVERSAL-JKFIT
    Blend: DEF2-UNIVERSAL-JKFIT
    Number of shells: 136
    Number of basis functions: 408
    Number of Cartesian functions: 476
    Spherical Harmonics?: true
    Max angular momentum: 4



  ==> Integral Transformation <==

  Number of molecular orbitals:                         86
  Number of correlated molecular orbitals:              82
  Number of frozen occupied orbitals:                    4
  Number of frozen unoccupied orbitals:                  0
  Two-electron integral type:              Density fitting


  Computing density fitted integrals

  Number of auxiliary basis functions:  408
  Need 24.14 MB to store DF integrals
  DFHelper Memory: AOs need 0.025 GiB; user supplied 0.415 GiB. 
  Using in-core AOs.

  ==> DFHelper <==
    NBF:                              86
    NAux:                            408
    Schwarz Cutoff:                1E-12
    Mask sparsity (%):                 2
    DFH Avail. Memory [GiB]:       0.415
    OpenMP threads:                    1
    Algorithm:                     STORE
    AO Core:                        True
    MO Core:                       False
    Hold Metric:                   False
    Metric Power:                 -0.500
    Fitting Condition:             1E-10
    Q Shell Max:                       9



  Transforming DF Integrals
  Timing for density-fitting transformation:                  0.019 s.

  Frozen-core energy        -176.777117606361912 a.u.
  Timing for frozen one-body operator:                        0.003 s.
  Resorting integrals after freezing core.
  Timing for resorting DF integrals:                          0.031 s.
  Timing for freezing core and virtual orbitals:              0.034 s.
  Timing for computing density-fitted integrals:              0.167 s.

  ==> Summary of Active Space Solver Input <==

    Irrep.  Multi.(2ms)      N
    --------------------------
       Ag      1  (  0)      3
       Bu      1  (  0)      1
    --------------------------
    N: number of roots
    ms: spin z component
    Total number of roots:   4
    --------------------------


  ==> String Lists <==

    number of alpha electrons                              2
    number of beta electrons                               2
    number of alpha strings                                6
    number of beta strings                                 6
    timing for strings                                 0.000 s
    timing for NN strings                              0.000 s
    timing for VO strings                              0.000 s
    timing for OO strings                              0.000 s
    timing for VVOO strings                            0.000 s
    timing for 1-hole strings                          0.000 s
    timing for 2-hole strings                          0.000 s
    timing for 3-hole strings                          0.000 s
    total timing                                       0.000 s


  ==> FCI Solver <==

    Spin adapt                                         FALSE
    Number of determinants                                20
    Symmetry                                               0
    Multiplicity                                           1
    Number of roots                                        3
    Target root                                            0

  Allocating memory for the Hamiltonian algorithm. Size: 2 x 4 x 4.   Memory: 0.000000 GB

  ==> Initial Guess <==

  Initial guess determinants:         20

  Classification of the initial guess solutions

  Number   2S+1   Selected
  ------------------------
    12       1       *
     7       3        
     1       5        
  ------------------------

    Spin    Root           Energy        <S^2>    Status
  -------------------------------------------------------
   singlet    0     -180.068391811036  -0.000000  added
   triplet    0     -179.872698487165  +2.000000  removed
   singlet    1     -179.811638996104  +0.000000  added
   quintet    0     -179.697720784023  +6.000000  removed
   triplet    1     -179.696528127786  +2.000000  removed
   singlet    2     -179.675072407288  +0.000000  added
  -------------------------------------------------------

  ==> Davidson-Liu Solver <==

    Energy convergence threshold                   1.000e-10
    Residual convergence threshold                 1.000e-06
    Schmidt orthogonality threshold                1.000e-12
    Schmidt discard threshold                      1.000e-07
    Size of the space                                     20
    Number of roots                                        3
    Maximum number of iterations                         100
    Collapse subspace size                                 6
    Maximum subspace size                                 20
    Print level                                            1


  Davidson-Liu solver: adding 3 guess vectors
  Iteration     Average Energy            max(∆E)            max(Residual)  Vectors
  ---------------------------------------------------------------------------------
       0     -154.630261196708      154.846951936268        0.000000000000      3
       1     -154.630261196708        0.000000000000        0.000000000000      6
  ---------------------------------------------------------------------------------

  ==> Root No. 0 <==

    20 20      0.96520016
    00 22     -0.16978896
    ab ba     -0.08893119
    ba ab     -0.08893119
    20 02     -0.07262258
    bb aa      0.06615050
    aa bb      0.06615050
    22 00     -0.06590688
    02 20     -0.05836425
    02 02      0.02849227
    ba ba     -0.02278069
    ab ab     -0.02278069
    ab 02      0.00624854
    ba 02      0.00624854
    02 ba     -0.00318969
    02 ab     -0.00318969
    20 ba     -0.00305210
    20 ab     -0.00305210

    Total Energy:    -154.846951936267, <S^2>: 0.000000

  ==> Root No. 1 <==

    00 22     -0.54815136
    20 ab     -0.35290789
    20 ba     -0.35290789
    ab 20      0.32525056
    ba 20      0.32525056
    20 02      0.29776710
    02 20      0.23011985
    ba ba     -0.15123000
    ab ab     -0.15123000
    22 00     -0.11923548
    aa bb     -0.11764200
    bb aa     -0.11764200
    20 20     -0.06709642
    ab ba     -0.03358800
    ba ab     -0.03358800
    ba 02     -0.02918765
    ab 02     -0.02918765
    02 ba      0.02377626
    02 ab      0.02377626
    02 02      0.00397207

    Total Energy:    -154.590199121336, <S^2>: -0.000000

  ==> Root No. 2 <==

    ab 20      0.54233992
    ba 20      0.54233992
    20 ab      0.41413373
    20 ba      0.41413373
    00 22      0.10897748
    ba 02     -0.10130526
    ab 02     -0.10130526
    20 02     -0.10108849
    02 20      0.08679560
    02 ba     -0.07944204
    02 ab     -0.07944204
    aa bb     -0.03776623
    bb aa     -0.03776623
    20 20      0.03109778
    ba ab      0.03073285
    ab ba      0.03073285
    02 02     -0.01119481
    ba ba     -0.00703338
    ab ab     -0.00703338
    22 00     -0.00351700

    Total Energy:    -154.453632532520, <S^2>: -0.000000

  ==> String Lists <==

    number of alpha electrons                              2
    number of beta electrons                               2
    number of alpha strings                                6
    number of beta strings                                 6
    timing for strings                                 0.000 s
    timing for NN strings                              0.000 s
    timing for VO strings                              0.000 s
    timing for OO strings                              0.000 s
    timing for VVOO strings                            0.000 s
    timing for 1-hole strings                          0.000 s
    timing for 2-hole strings                          0.000 s
    timing for 3-hole strings                          0.000 s
    total timing                                       0.000 s


  ==> FCI Solver <==

    Spin adapt                                         FALSE
    Number of determinants                                16
    Symmetry                                               3
    Multiplicity                                           1
    Number of roots                                        1
    Target root                                            0

  Allocating memory for the Hamiltonian algorithm. Size: 2 x 4 x 4.   Memory: 0.000000 GB

  ==> Initial Guess <==

  Initial guess determinants:         16

  Classification of the initial guess solutions

  Number   2S+1   Selected
  ------------------------
     8       1       *
     8       3        
  ------------------------

    Spin    Root           Energy        <S^2>    Status
  -------------------------------------------------------
   triplet    0     -179.939654628238  +2.000000  removed
   singlet    0     -179.767733197446  +0.000000  added
  -------------------------------------------------------

  ==> Davidson-Liu Solver <==

    Energy convergence threshold                   1.000e-10
    Residual convergence threshold                 1.000e-06
    Schmidt orthogonality threshold                1.000e-12
    Schmidt discard threshold                      1.000e-07
    Size of the space                                     16
    Number of roots                                        1
    Maximum number of iterations                         100
    Collapse subspace size                                 2
    Maximum subspace size                                 10
    Print level                                            1


  Davidson-Liu solver: adding 1 guess vectors
  Iteration     Average Energy            max(∆E)            max(Residual)  Vectors
  ---------------------------------------------------------------------------------
       0     -154.546293322678      154.546293322678        0.000000000000      1
       1     -154.546293322678        0.000000000000        0.000000000000      2
  ---------------------------------------------------------------------------------

  ==> Root No. 0 <==

    b0 2a      0.69460635
    a0 2b      0.69460635
    b0 a2      0.09740137
    a0 b2      0.09740137
    0b 2a     -0.06164903
    0a 2b     -0.06164903
    a2 0b     -0.04191676
    b2 0a     -0.04191676
    0b a2      0.04046081
    0a b2      0.04046081
    2a b0     -0.02407853
    2b a0     -0.02407853
    2a 0b     -0.01195427
    2b 0a     -0.01195427
    a2 b0      0.01084518
    b2 a0      0.01084518

    Total Energy:    -154.546293322678, <S^2>: -0.000000

  ==> Energy Summary <==

    Multi.(2ms)  Irrep.  No.               Energy      <S^2>
    --------------------------------------------------------
       1  (  0)    Ag     0     -154.846951936267   0.000000
       1  (  0)    Ag     1     -154.590199121336  -0.000000
       1  (  0)    Ag     2     -154.453632532520  -0.000000
    --------------------------------------------------------
       1  (  0)    Bu     0     -154.546293322678  -0.000000
    --------------------------------------------------------

  ==> Dipole Moments [e a0] (Nuclear + Electronic) for Singlet (Ms = 0) Ag <==


  ==> Computing RDMs <0| ... |0> <==

    Timing for 1-RDM: 0.000 s

  ==> Computing RDMs <1| ... |1> <==

    Timing for 1-RDM: 0.000 s

  ==> Computing RDMs <2| ... |2> <==

    Timing for 1-RDM: 0.000 s
       State           DM_X           DM_Y           DM_Z           |DM|
    --------------------------------------------------------------------
         0AG    -0.00000000     0.00000000     0.00000000     0.00000000
         1AG    -0.00000000     0.00000000     0.00000000     0.00000000
         2AG    -0.00000000     0.00000000     0.00000000     0.00000000
    --------------------------------------------------------------------
     Nuclear     0.00000000     0.00000000     0.00000000     0.00000000
    --------------------------------------------------------------------

  ==> Dipole Moments [e a0] (Nuclear + Electronic) for Singlet (Ms = 0) Bu <==


  ==> Computing RDMs <0| ... |0> <==

    Timing for 1-RDM: 0.000 s
       State           DM_X           DM_Y           DM_Z           |DM|
    --------------------------------------------------------------------
         0BU    -0.00000000     0.00000000     0.00000000     0.00000000
    --------------------------------------------------------------------
     Nuclear     0.00000000     0.00000000     0.00000000     0.00000000
    --------------------------------------------------------------------

  ==> Quadrupole Moments [e a0^2] (Nuclear + Electronic) for Singlet (Ms = 0) Ag <==


  ==> Computing RDMs <0| ... |0> <==

    Timing for 1-RDM: 0.000 s

  ==> Computing RDMs <1| ... |1> <==

    Timing for 1-RDM: 0.000 s

  ==> Computing RDMs <2| ... |2> <==

    Timing for 1-RDM: 0.000 s
       State          QM_XX          QM_XY          QM_XZ          QM_YY          QM_YZ          QM_ZZ
    --------------------------------------------------------------------------------------------------
         0AG   -17.22869087     0.10107551     0.00000000   -17.47554318     0.00000000   -21.74180214
         1AG   -19.42543031     1.26659561     0.00000000   -18.21742587     0.00000000   -22.37274711
         2AG   -19.29868273     1.19108357     0.00000000   -18.72308859     0.00000000   -22.30847990
    --------------------------------------------------------------------------------------------------
     Nuclear   100.28432179   -97.22584527     0.00000000   180.74959352     0.00000000     0.00000000
    --------------------------------------------------------------------------------------------------

  ==> Quadrupole Moments [e a0^2] (Nuclear + Electronic) for Singlet (Ms = 0) Bu <==


  ==> Computing RDMs <0| ... |0> <==

    Timing for 1-RDM: 0.000 s
       State          QM_XX          QM_XY          QM_XZ          QM_YY          QM_YZ          QM_ZZ
    --------------------------------------------------------------------------------------------------
         0BU   -18.56171917     1.20533437     0.00000000   -18.27748277     0.00000000   -21.99474609
    --------------------------------------------------------------------------------------------------
     Nuclear   100.28432179   -97.22584527     0.00000000   180.74959352     0.00000000     0.00000000
    --------------------------------------------------------------------------------------------------

  ==> Transition Dipole Moments [e a0] for Singlet (Ms = 0) Ag -> Singlet (Ms = 0) Ag <==


  ==> Computing RDMs <0| ... |1> <==


  ==> Computing RDMs <0| ... |2> <==


  ==> Computing RDMs <1| ... |2> <==

       Bra    Ket           DM_X           DM_Y           DM_Z           |DM|
    -------------------------------------------------------------------------
       0AG    1AG     0.00000000     0.00000000     0.00000000     0.00000000
       0AG    2AG     0.00000000     0.00000000     0.00000000     0.00000000
       1AG    2AG     0.00000000     0.00000000     0.00000000     0.00000000
    -------------------------------------------------------------------------

  ==> Transition Reduced Density Matrix Analysis for Singlet (Ms = 0) Ag -> Singlet (Ms = 0) Ag <==

    Transition from State  0AG  to State  1AG :
      Component  1 with value of W = 1.6026
        Init. Orbital: 0.7823 Orb.  2 0.2177 Orb.  3
        Final Orbital: 0.7823 Orb.  2 0.2177 Orb.  3
      Component  2 with value of W = 1.0704
        Init. Orbital: 0.9040 Orb.  0
        Final Orbital: 0.9040 Orb.  0
      Component  3 with value of W = 0.9699
        Init. Orbital: 0.2177 Orb.  2 0.7823 Orb.  3
        Final Orbital: 0.2177 Orb.  2 0.7823 Orb.  3
      Component  4 with value of W = 0.3571
        Init. Orbital: 0.9040 Orb.  1
        Final Orbital: 0.9040 Orb.  1

    Transition from State  0AG  to State  2AG :
      Component  1 with value of W = 1.5799
        Init. Orbital: 0.9981 Orb.  2
        Final Orbital: 0.9981 Orb.  2
      Component  2 with value of W = 1.3613
        Init. Orbital: 0.9475 Orb.  0
        Final Orbital: 0.9475 Orb.  0
      Component  3 with value of W = 0.6150
        Init. Orbital: 0.9475 Orb.  1
        Final Orbital: 0.9475 Orb.  1
      Component  4 with value of W = 0.4438
        Init. Orbital: 0.9981 Orb.  3
        Final Orbital: 0.9981 Orb.  3

    Transition from State  1AG  to State  2AG :
      Component  1 with value of W = 1.5799
        Init. Orbital: 0.9981 Orb.  2
        Final Orbital: 0.9981 Orb.  2
      Component  2 with value of W = 1.3613
        Init. Orbital: 0.9475 Orb.  0
        Final Orbital: 0.9475 Orb.  0
      Component  3 with value of W = 0.6150
        Init. Orbital: 0.9475 Orb.  1
        Final Orbital: 0.9475 Orb.  1
      Component  4 with value of W = 0.4438
        Init. Orbital: 0.9981 Orb.  3
        Final Orbital: 0.9981 Orb.  3


  ==> Transitions for Singlet (Ms = 0) Ag -> Singlet (Ms = 0) Ag <==

     Init.  Final  Energy [a.u.]    Energy [eV]    Osc. [a.u.]
    ----------------------------------------------------------
       0AG    1AG     0.25675281     6.98659996     0.00000000
       0AG    2AG     0.39331940    10.70276612     0.00000000
       1AG    2AG     0.13656659     3.71616617     0.00000000
    ----------------------------------------------------------

  ==> Transition Dipole Moments [e a0] for Singlet (Ms = 0) Ag -> Singlet (Ms = 0) Bu <==


  ==> Computing RDMs <0| ... |0> <==


  ==> Computing RDMs <1| ... |0> <==


  ==> Computing RDMs <2| ... |0> <==

       Bra    Ket           DM_X           DM_Y           DM_Z           |DM|
    -------------------------------------------------------------------------
       0AG    0BU     1.62897789    -1.66376337     0.00000000     2.32844960
       1AG    0BU     0.02556439    -0.67972280     0.00000000     0.68020337
       2AG    0BU     0.52079074    -0.63625805     0.00000000     0.82222096
    -------------------------------------------------------------------------

  ==> Transition Reduced Density Matrix Analysis for Singlet (Ms = 0) Ag -> Singlet (Ms = 0) Bu <==

    Transition from State  0AG  to State  0BU :
      Component  1 with value of W = 1.3496
        Init. Orbital: 0.9997 Orb.  0
        Final Orbital: 1.0000 Orb.  3
      Component  2 with value of W = 0.2436
        Init. Orbital: 0.9828 Orb.  3
        Final Orbital: 0.9965 Orb.  0

    Transition from State  1AG  to State  0BU :
      Component  1 with value of W = 0.7552
        Init. Orbital: 0.9853 Orb.  3
        Final Orbital: 0.9951 Orb.  0
      Component  2 with value of W = 0.6114
        Init. Orbital: 0.2309 Orb.  0 0.7691 Orb.  1
        Final Orbital: 0.7870 Orb.  2 0.2130 Orb.  3
      Component  3 with value of W = 0.4491
        Init. Orbital: 0.7691 Orb.  0 0.2309 Orb.  1
        Final Orbital: 0.2130 Orb.  2 0.7870 Orb.  3

    Transition from State  2AG  to State  0BU :
      Component  1 with value of W = 0.7531
        Init. Orbital: 1.0000 Orb.  1
        Final Orbital: 0.9911 Orb.  3
      Component  2 with value of W = 0.5417
        Init. Orbital: 1.0000 Orb.  0
        Final Orbital: 0.9911 Orb.  2
      Component  3 with value of W = 0.1604
        Init. Orbital: 0.9371 Orb.  3
        Final Orbital: 0.9998 Orb.  0


  ==> Transitions for Singlet (Ms = 0) Ag -> Singlet (Ms = 0) Bu <==

     Init.  Final  Energy [a.u.]    Energy [eV]    Osc. [a.u.]
    ----------------------------------------------------------
       0AG    0BU     0.30065861     8.18133759     1.08671603
       1AG    0BU     0.04390580     1.19473764     0.01354279
       2AG    0BU    -0.09266079    -2.52142853     0.04176205
    ----------------------------------------------------------

  Time to prepare integrals:        0.271 seconds
  Time to run job          :        0.008 seconds
  Total                    :        0.279 seconds
    CASCI(4,4) singlet Ag energy 0........................................................PASSED
    CASCI(4,4) singlet Ag energy 1........................................................PASSED
    CASCI(4,4) singlet Ag energy 2........................................................PASSED
    CASCI(4,4) singlet Bu energy 0........................................................PASSED
    Oscillator strength singlet 0Ag -> 0Bu................................................PASSED
    Oscillator strength singlet 1Ag -> 0Bu................................................PASSED
    Oscillator strength singlet 2Ag -> 0Bu................................................PASSED

    Psi4 stopped on: Thursday, 26 October 2023 03:02PM
    Psi4 wall time for execution: 0:00:01.10

*** Psi4 exiting successfully. Buy a developer a beer!
