    -----------------------------------------------------------------------
          Psi4: An Open-Source Ab Initio Electronic Structure Package
                              Psi4 (no tag) Driver

                          Git: Rev {master} 7baee9b dirty

    J. M. Turney, A. C. Simmonett, R. M. Parrish, E. G. Hohenstein,
    F. A. Evangelista, J. T. Fermann, B. J. Mintz, L. A. Burns, J. J. Wilke,
    M. L. Abrams, N. J. Russ, M. L. Leininger, C. L. Janssen, E. T. Seidl,
    W. D. Allen, H. F. Schaefer, R. A. King, E. F. Valeev, C. D. Sherrill,
    and T. D. Crawford, WIREs Comput. Mol. Sci. 2, 556-565 (2012)
    (doi: 10.1002/wcms.93)

                         Additional Contributions by
    A. E. DePrince, M. Saitow, U. Bozkaya, A. Yu. Sokolov
    -----------------------------------------------------------------------


    Psi4 started on: Fri Aug 28 11:54:43 2015

    Process ID:   5723
    PSI4DATADIR: /Users/kevinhannon/Programs/psi4private_clang/psi4/lib
    Memory level set to 256.000 MB

  ==> Input File <==

--------------------------------------------------------------------------
#! Generated using commit GITCOMMIT

import forte

memory 500 mb
refmcscf =   -226.575081996603
refdsrgpt2 = -226.883026728662060 

molecule mbenzyne{
  0 1
   C   0.0000000000  -2.5451795941   0.0000000000
   C   0.0000000000   2.5451795941   0.0000000000
   C  -2.2828001669  -1.3508352528   0.0000000000
   C   2.2828001669  -1.3508352528   0.0000000000
   C   2.2828001669   1.3508352528   0.0000000000
   C  -2.2828001669   1.3508352528   0.0000000000
   H  -4.0782187459  -2.3208602146   0.0000000000
   H   4.0782187459  -2.3208602146   0.0000000000
   H   4.0782187459   2.3208602146   0.0000000000
   H  -4.0782187459   2.3208602146   0.0000000000

  units bohr
}

set globals{
   basis                   sto-3g
   reference               twocon
   scf_type                pk
   d_convergence           10
   e_convergence           12
}

set mcscf{
   docc                   [5, 3, 1, 1, 0, 1, 4, 4]
   socc                   [1, 0, 0, 0, 0, 0, 1, 0]
   maxiter                500
#   level_shift            1.0
}

set forte{
   job_type               three-dsrg-mrpt2
   frozen_docc            [2, 1, 0, 0, 0, 0, 2, 1]
   restricted_docc        [3, 2, 1, 1, 0, 1, 2, 3]
   active                 [1, 0, 0, 0, 0, 0, 1, 0]
   root_sym               0
   nroot                  1
#   dsrgpt                 false
   dsrg_s                 0.5
   int_type               cholesky
   cholesky_tolerance     1e-11
}

scf = energy('mcscf')
energy('forte')

compare_values(refmcscf, scf,10,"SCF energy")
compare_values(refdsrgpt2, get_variable("CURRENT ENERGY"),10,"DSRG-MRPT2 energy")


--------------------------------------------------------------------------
/Users/kevinhannon/Programs/forte/forte.so loaded.

  Memory set to 500.000 MiB by Python script.

         ------------------------------------------
           MCSCF: a self-consistent field program
            written by Francesco A. Evangelista
         ------------------------------------------ MINTS: Wrapper to libmints.
   by Justin Turney

   Calculation information:
      Number of atoms:                  10
      Number of AO shells:              22
      Number of SO shells:               7
      Number of primitives:             66
      Number of atomic orbitals:        34
      Number of basis functions:        34

      Number of irreps:                  8
      Integral cutoff                 1.00e-12
      Number of functions per irrep: [   8    6    1    2    1    2    8    6 ]

 OEINTS: Overlap, kinetic, potential, dipole, and quadrupole integrals
         stored in file 35.

      Computing two-electron integrals...done
      Computed 26788 non-zero two-electron integrals.
        Stored in file 33.



  MOs per irrep:                  Ag  B1g  B2g  B3g  Au  B1u  B2u  B3u Total
  ----------------------------------------------------------------------------
  Total                            8    6    1    2    1    2    8    6    34
  Doubly Occupied                  5    3    1    1    0    1    4    4    19
  Active/Singly Occupied           1    0    0    0    0    0    1    0     2
  ----------------------------------------------------------------------------

  Running an SCF calculation
  TWOCON MOs = [5 (Ag),24 (B2u)]

  Generated 595 pairs
  Distributed as [122 Ag][100 B1g][40 B2g][44 B3g][40 Au][44 B1u][105 B2u][100 B3u]
  batch   0 pq = [       0,     122] index = [               0,            7503]

  Allocated the PK matrix (7503 elements) 
  Allocated the  K matrix (7503 elements) 
  Reading the two-electron integrals to form PK and K ... 
  batch   0 ... done.


  =========================================================================================
         Cycle          Energy               D(Energy)            D(Density)            DIIS
  ===========================================================================================
  Setting level shift to 0.000 S
  @SCF    0     -212.603608947831    -212.603608947831       0.212818981043
    ci      = [ 0.00000000, 0.00000000]
    ci_grad = [ 0.00000000, 0.00000000]
  Setting level shift to 0.000 S
  @SCF    1     -225.053669770607     -12.450060822776       0.210813347428
    ci      = [ 0.00000000, 0.00000000]
    ci_grad = [ 0.00000000, 0.00000000]
  Setting level shift to 0.000 S
  @SCF    2     -226.071009337475      -1.017339566868       0.056641135253
    ci      = [ 0.00000000, 0.00000000]
    ci_grad = [ 0.00000000, 0.00000000]
  Setting level shift to 0.000 S
  @SCF    3     -226.474885852571      -0.403876515095       0.028998284532
    ci      = [ 0.00000000, 0.00000000]
    ci_grad = [ 0.00000000, 0.00000000]
  Setting level shift to 0.000 S
  @SCF    4     -226.322780627168       0.152105225402       0.012997058062
    ci      = [ 0.00000000, 0.00000000]
    ci_grad = [ 0.00000000, 0.00000000]
  Setting level shift to 0.000 S
  @SCF    5     -226.454906791839      -0.132126164671       0.010853125465
    ci      = [ 0.00000000, 0.00000000]
    ci_grad = [ 0.00000000, 0.00000000]
  Setting level shift to 0.000 S
  @SCF    6     -226.349585971471       0.105320820368       0.009470330996
    ci      = [ 0.00000000, 0.00000000]
    ci_grad = [ 0.00000000, 0.00000000]
  Setting level shift to 0.000 S/E
  @SCF    7     -226.451060015785      -0.101474044314       0.008596141425
    ci      = [ 0.00000000, 0.00000000]
    ci_grad = [ 0.00000000, 0.00000000]
  Setting level shift to 0.000 S/E
  @SCF    8     -226.416907694590       0.034152321195       0.004102613904
    ci      = [ 0.00000000, 0.00000000]
    ci_grad = [ 0.00000000, 0.00000000]
  Setting level shift to 0.000 S/E
  @SCF    9     -226.416958294089      -0.000050599499       0.000125724627
    ci      = [ 0.00000000, 0.00000000]
    ci_grad = [ 0.00000000, 0.00000000]
  Setting level shift to 0.000 S/E
  @SCF   10     -226.417249778531      -0.000291484442       0.000041145215
    ci      = [ 0.00000000, 0.00000000]
    ci_grad = [ 0.00000000, 0.00000000]
  Setting level shift to 0.000 S/E
  @SCF   11     -226.417183194337       0.000066584193       0.000012644740
    ci      = [ 0.00000000, 0.00000000]
    ci_grad = [ 0.00000000, 0.00000000]
  Setting level shift to 0.000 S/E
  @SCF   12     -226.417192505496      -0.000009311159       0.000002788668
    ci      = [-0.61289446, 0.79016478]
    ci_grad = [ 0.00000000, 0.00000000]
  Setting level shift to 0.000 S/E
  @SCF   13     -226.417190578569       0.000001926927       0.000001751323
    ci      = [-0.61289100, 0.79016747]
    ci_grad = [-0.00000258, 0.00000044]
  Setting level shift to 0.000 S/E
  @SCF   14     -226.417191354795      -0.000000776226       0.000000062112
    ci      = [-0.61289107, 0.79016741]
    ci_grad = [ 0.00000051,-0.00000059]
  Setting level shift to 0.000 S/E
  @SCF   15     -226.417197001042      -0.000005646247       0.000000656865
    ci      = [-0.61289143, 0.79016713]
    ci_grad = [ 0.00000360,-0.00000435]
  Setting level shift to 0.000 S/E
  @SCF   16     -226.417207881065      -0.000010880024       0.000001205492
    ci      = [-0.61289143, 0.79016713]
    ci_grad = [ 0.00000920,-0.00000663]
  Setting level shift to 0.000 S/E
  @SCF   17     -226.417200209867       0.000007671198       0.000001265111
    ci      = [-0.61289208, 0.79016663]
    ci_grad = [-0.00000444, 0.00000627]
  Setting level shift to 0.000 S/E
  @SCF   18     -226.417208885007      -0.000008675140       0.000002733089
    ci      = [-0.61290864, 0.79015378]
    ci_grad = [ 0.00001201,-0.00000166]
  Setting level shift to 0.000 S/E
  @SCF   19     -226.417209143437      -0.000000258429       0.000001420874
    ci      = [-0.61289889, 0.79016134]
    ci_grad = [-0.00000378,-0.00000326]
  Setting level shift to 0.000 S/E
  @SCF   20     -226.571245874410      -0.154036730973       0.021508894795
    ci      = [-0.61289889, 0.79016134]
    ci_grad = [ 0.11068116,-0.10793352]
  Setting level shift to 0.000 S/E
  @SCF   21     -226.574790168328      -0.003544293919       0.004311234132
    ci      = [-0.61289889, 0.79016134]
    ci_grad = [ 0.00906621, 0.00275133]
  Setting level shift to 0.000 S/E
  @SCF   22     -226.575042008531      -0.000251840203       0.000630850682
    ci      = [-0.61289889, 0.79016134]
    ci_grad = [ 0.00840263, 0.00649000]
  Setting level shift to 0.000 S/E
  @SCF   23     -226.575045024202      -0.000003015671       0.000158276593
    ci      = [-0.62958955, 0.77692793]
    ci_grad = [ 0.00812299, 0.00657865]
  Setting level shift to 0.000 S/E
  @SCF   24     -226.575045805334      -0.000000781132       0.000036761532
    ci      = [-0.62959485, 0.77692363]
    ci_grad = [ 0.00000310, 0.00000150]
  Setting level shift to 0.000 S/E
  @SCF   25     -226.575046225377      -0.000000420043       0.000001876106
    ci      = [-0.62961034, 0.77691108]
    ci_grad = [ 0.00000787, 0.00000583]
  Setting level shift to 0.000 S/E
  @SCF   26     -226.575055952810      -0.000009727433       0.000047552067
    ci      = [-0.62999823, 0.77659657]
    ci_grad = [ 0.00019658, 0.00014695]
  Setting level shift to 0.000 S/E
  @SCF   27     -226.575072774703      -0.000016821893       0.000112230030
    ci      = [-0.62999823, 0.77659657]
    ci_grad = [ 0.00045924, 0.00035177]
  Setting level shift to 0.000 S/E
  @SCF   28     -226.575081711522      -0.000008936820       0.000135799655
    ci      = [-0.63201848, 0.77495331]
    ci_grad = [ 0.00099875, 0.00080300]
  Setting level shift to 0.000 S/E
  @SCF   29     -226.575081416450       0.000000295072       0.000012370450
    ci      = [-0.63191598, 0.77503690]
    ci_grad = [-0.00005063,-0.00004090]
  Setting level shift to 0.000 S/E
  @SCF   30     -226.575081977935      -0.000000561485       0.000033709844
    ci      = [-0.63219256, 0.77481131]
    ci_grad = [ 0.00013647, 0.00011062]
  Setting level shift to 0.000 S/E
  @SCF   31     -226.575081986436      -0.000000008501       0.000001910928
    ci      = [-0.63220835, 0.77479843]
    ci_grad = [ 0.00000778, 0.00000634]
  Setting level shift to 0.000 S/E
  @SCF   32     -226.575081996086      -0.000000009650       0.000004200676
    ci      = [-0.63224291, 0.77477023]
    ci_grad = [ 0.00001702, 0.00001387]
  Setting level shift to 0.000 S/E
  @SCF   33     -226.575081996443      -0.000000000357       0.000000544448
    ci      = [-0.63224738, 0.77476658]
    ci_grad = [ 0.00000220, 0.00000179]
  Setting level shift to 0.000 S/E
  @SCF   34     -226.575081996589      -0.000000000146       0.000000483618
    ci      = [-0.63225135, 0.77476334]
    ci_grad = [ 0.00000196, 0.00000160]
  Setting level shift to 0.000 S/E
  @SCF   35     -226.575081996599      -0.000000000010       0.000000100517
    ci      = [-0.63225217, 0.77476267]
    ci_grad = [ 0.00000041, 0.00000033]
  Setting level shift to 0.000 S/E
  @SCF   36     -226.575081996603      -0.000000000003       0.000000090057
    ci      = [-0.63225291, 0.77476206]
    ci_grad = [ 0.00000036, 0.00000030]
  Setting level shift to 0.000 S/E
  @SCF   37     -226.575081996602       0.000000000000       0.000000008697
    ci      = [-0.63225284, 0.77476212]
    ci_grad = [-0.00000004,-0.00000003]
  Setting level shift to 0.000 S/E
  @SCF   38     -226.575081996603      -0.000000000000       0.000000009636
    ci      = [-0.63225292, 0.77476206]
    ci_grad = [ 0.00000004, 0.00000003]
  Setting level shift to 0.000 S/E
  @SCF   39     -226.575081996602       0.000000000000       0.000000004088
    ci      = [-0.63225296, 0.77476203]
    ci_grad = [ 0.00000002, 0.00000001]
  Setting level shift to 0.000 S/E
  @SCF   40     -226.575081996603      -0.000000000000       0.000000000222
    ci      = [-0.63225296, 0.77476203]
    ci_grad = [ 0.00000000, 0.00000000]
  Setting level shift to 0.000 S/E
  @SCF   41     -226.575081996603       0.000000000000       0.000000000674
    ci      = [-0.63225296, 0.77476202]
    ci_grad = [ 0.00000000, 0.00000000]
  Setting level shift to 0.000 S/E
  @SCF   42     -226.575081996602       0.000000000000       0.000000000183
    ci      = [-0.63225296, 0.77476202]
    ci_grad = [ 0.00000000, 0.00000000]
  Setting level shift to 0.000 S/E
  @SCF   43     -226.575081996602      -0.000000000000       0.000000000089
    ci      = [-0.63225296, 0.77476202]
    ci_grad = [ 0.00000000, 0.00000000]
  Setting level shift to 0.000 S/E
  @SCF   44     -226.575081996603      -0.000000000000       0.000000000058
    ci      = [-0.63225297, 0.77476202]
    ci_grad = [ 0.00000000, 0.00000000]
  Setting level shift to 0.000 S/E
  @SCF   45     -226.575081996603      -0.000000000000       0.000000000005
    ci      = [-0.63225297, 0.77476202]
    ci_grad = [-0.00000000,-0.00000000]
  =========================================================================================

      * SCF total energy   =    -226.575081996603


      CI coefficients  = [-0.632252965, 0.774762020]

  End of SCF
  MOs orthonormality check passed.

  Orbitals are canonicalized as:
  inactive (docc + uocc) : Fock(core)
  active   (actv)        : Fock(core)

  =========================================================================
  Eigenvalues (Eh)
  -------------------------------------------------------------------------
  Doubly occupied orbitals
      1    -11.035269 B3u      2    -11.035166  Ag      3    -11.035129 B2u
      4    -11.035092 B1g      5    -11.006182 B2u      6    -11.006037  Ag
      7     -1.093266  Ag      8     -0.957444 B3u      9     -0.932131 B2u
     10     -0.775410 B1g     11     -0.730813  Ag     12     -0.584243 B2u
     13     -0.579475  Ag     14     -0.563265 B3u     15     -0.529046 B3u
     16     -0.462169 B1u     17     -0.456729 B1g     18     -0.285586 B3g
     19     -0.280039 B2g
  Active orbitals
     20     -0.097833 B2u     21     -0.013616  Ag
  Unoccupied orbitals
     22      0.245021  Au     23      0.302774 B1u     24      0.515123 B3g
     25      0.640745  Ag     26      0.667088 B3u     27      0.684886 B2u
     28      0.733596 B1g     29      0.832576 B2u     30      0.858416  Ag
     31      0.858871 B1g     32      0.962029 B3u     33      1.129600 B1g
     34      1.138352 B2u
  =========================================================================


  MCSCF Execution Completed.


*** tstop() called on Kevins-MacBook-Pro.local at Fri Aug 28 11:54:44 2015
Module time:
	user time   =       0.64 seconds =       0.01 minutes
	system time =       0.06 seconds =       0.00 minutes
	total time  = 1440777284 seconds = 24012954.73 minutes
Total time:
	user time   =       0.64 seconds =       0.01 minutes
	system time =       0.06 seconds =       0.00 minutes
	total time  = 1440777284 seconds = 24012954.73 minutes
Reading options from the FORTE block
Calling plugin forte.so.


  ==> MO Space Information <==

  Read options for space FROZEN_DOCC
  Read options for space RESTRICTED_DOCC
  Read options for space ACTIVE
 Removing orbital 0
 Removing orbital 1
 Removing orbital 8
 Removing orbital 20
 Removing orbital 21
 Removing orbital 28
  -------------------------------------------------------------------------
                       Ag   B1g   B2g   B3g    Au   B1u   B2u   B3u   Sum
  -------------------------------------------------------------------------
    FROZEN_DOCC         2     1     0     0     0     0     2     1     6
    RESTRICTED_DOCC     3     2     1     1     0     1     2     3    13
    ACTIVE              1     0     0     0     0     0     1     0     2
    RESTRICTED_UOCC     2     3     0     1     1     1     3     2    13
    FROZEN_UOCC         0     0     0     0     0     0     0     0     0
    Total               8     6     1     2     1     2     8     6    34
  -------------------------------------------------------------------------
  Using the input to select the number of frozen core MOs.


  ==> Integral Transformation <==

  Number of molecular orbitals:               34
  Number of correlated molecular orbitals:    28
  Number of frozen occupied orbitals:          6
  Number of frozen unoccupied orbitals:        0


 Cholesky integrals time
 Computing the Cholesky Vectors 

    Computing CD Integrals               ......Done. Timing        4.142099 s
 Need 0.004031 GB to store cd integrals in core

 Number of cholesky vectors 468 to satisfy       0.000000000010 tolerance

  Frozen-core energy           -287.155405698903 a.u.
  Freezing MO 0
  Freezing MO 1
  Freezing MO 8
  Freezing MO 20
  Freezing MO 21
  Freezing MO 28

 FrozenOneBody Operator takes  0.04894800 s
  Resorting integrals after freezing core.
 CholeskyIntegrals take 4.29581100

  ***************************************************
  * Complete Active Space Configuration Interaction *
  *                 by Chenyang Li                  *
  ***************************************************


  Options:
  ----------------------------------------------------------------------------
(null)

  ==> Input Summary <==

    number of atoms                =    10
    number of electrons            =    40
    molecular charge               =     0
    number of alpha electrons      =    20
    number of beta electrons       =    20
    multiplicity                   =     1
    number of molecular orbitals   =    34

  ==> Orbital Spaces <==

    TOTAL MO                      [    8     6     1     2     1     2     8     6 ]
    FROZEN CORE                   [    2     1     0     0     0     0     2     1 ]
    FROZEN VIRTUAL                [    0     0     0     0     0     0     0     0 ]
    CORRELATED MO                 [    6     5     1     2     1     2     6     5 ]
    CORE                          [    3     2     1     1     0     1     2     3 ]
    ACTIVE                        [    1     0     0     0     0     0     1     0 ]
    VIRTUAL                       [    2     3     0     1     1     1     3     2 ]

  ==> Correlated Subspace Indices <==

    CORE                             0    1    2    6    7   11   12   15   17   18   23   24   25 
    ACTIVE                           3   19 
    HOLE                             3   19    0    1    2    6    7   11   12   15   17   18   23   24   25 
                                  
    VIRTUAL                          4    5    8    9   10   13   14   16   20   21   22   26   27 
    PARTICLE                         3   19    4    5    8    9   10   13   14   16   20   21   22   26   27 
                                  

  Forming alpha and beta strings      ...  Done. Timing        0.000030 s
  Forming determinants                ...  Done. Timing        0.000010 s

  ==> Determinants Summary <==

    number of alpha active electrons    =     1
    number of beta active electrons     =     1
    root symmetry (zero based)          =     0
    number of determinants              =     2

  Diagonalizing Hamiltonian           ...
  Time spent diagonalizing H using Full: 0.000014 s

  Reference type: TWOCON
  Threshold for spin check: 0.0001

  Spin State: S^2 = 0.000, S = 0.000, singlet (from 2 determinants)  Done. Timing        0.000108 s

  * * * * * * * * * * * * * * * * *
  *  CI Vectors & Configurations  *
  * * * * * * * * * * * * * * * * *

  ==> Root No. 1 <==

    0 2            0.77476202
    2 0           -0.63225297

    Total Energy:   -226.575081996527814


  Forming one-particle density        ...  Done. Timing        0.000060 s
  Forming generalized Fock matrix     ...  Done. Timing        0.036095 s
  Checking Fock matrices (Fa, Fb)     ...
  Nonzero criteria: > 1.00E-12
  Warning: Fa_CORE    NOT diagonal!
  Nonzero off-diagonal:     8. Largest value:  0.000000000002163
  Warning: Fb_CORE    NOT diagonal!
  Nonzero off-diagonal:     8. Largest value:  0.000000000002163
  Fa_ACTIVE  block is diagonal.
  Fb_ACTIVE  block is diagonal.
  Warning: Fa_VIRTUAL NOT diagonal!
  Nonzero off-diagonal:    30. Largest value:  0.000000000005096
  Warning: Fb_VIRTUAL NOT diagonal!
  Nonzero off-diagonal:    30. Largest value:  0.000000000005096
  Done checking Fock matrices.                   Timing        0.000049 s

  Use semi-canonical orbitals.

  Block diagonalizing Fock matrices   ...  Done. Timing        0.000249 s

 Computing the Cholesky Vectors 

    Computing CD Integrals               ......Done. Timing        4.161624 s
 Need 0.004031 GB to store cd integrals in core

 Number of cholesky vectors 468 to satisfy       0.000000000010 tolerance

  Frozen-core energy           -287.155405698903 a.u.
  Freezing MO 0
  Freezing MO 1
  Freezing MO 8
  Freezing MO 20
  Freezing MO 21
  Freezing MO 28

 FrozenOneBody Operator takes  0.04849900 s
  Resorting integrals after freezing core.
  Diagonalizing Hamiltonian           ...
  Time spent diagonalizing H using Full: 0.000012 s

  Reference type: TWOCON
  Threshold for spin check: 0.0001

  Spin State: S^2 = 0.000, S = 0.000, singlet (from 2 determinants)  Done. Timing        0.000100 s

  * * * * * * * * * * * * * * * * *
  *  CI Vectors & Configurations  *
  * * * * * * * * * * * * * * * * *

  ==> Root No. 1 <==

    0 2            0.77476202
    2 0           -0.63225297

    Total Energy:   -226.575081996527359


  Forming one-particle density        ...  Done. Timing        0.000054 s
  Forming generalized Fock matrix     ...  Done. Timing        0.035202 s
  Checking Fock matrices (Fa, Fb)     ...
  Nonzero criteria: > 1.00E-12
  Fa_CORE    block is diagonal.
  Fb_CORE    block is diagonal.
  Fa_ACTIVE  block is diagonal.
  Fb_ACTIVE  block is diagonal.
  Warning: Fa_VIRTUAL NOT diagonal!
  Nonzero off-diagonal:    16. Largest value:  0.000000000001794
  Warning: Fb_VIRTUAL NOT diagonal!
  Nonzero off-diagonal:    16. Largest value:  0.000000000001794
  Done checking Fock matrices.                   Timing        0.000037 s

  Forming Lambda2                     ...  Done. Timing        0.000161 s
  Forming Lambda3                     ...  Done. Timing        0.000085 s

	  ---------------------------------------------------------
	      DF/CD - Driven Similarity Renormalization Group MBPT2
	                   Kevin Hannon and Chenyang (York) Li
	                       1 thread(s) 
	  ---------------------------------------------------------
 Reference = TWOCON
  Reference Energy = -226.575081996528098

  ==> Calculation Information <==

    Flow parameter                           5.000e-01
    Cholesky Tolerance                       1.000e-11
    Taylor expansion threshold               1.000e-03
    int_type                                  CHOLESKY
    ccvv_algorithm                           FLY_AMBIT
    ccvv_source                                 NORMAL
    Computing T2                         ......Done. Timing        0.002247 s
    Computing T1                         ......Done. Timing        0.001479 s
    Renormalizing V                      ......Done. Timing        0.001267 s
    Renormalizing F                      ......Done. Timing        0.001697 s
    Computing <[F,T1]>                   ......Done. Timing        0.002591 s
    Computing <[F, T2]>                  ......Done. Timing        0.001318 s
    Computing <[V, T1]>                  ......Done. Timing        0.001238 s
    Computing <[V, T2]> (C_2)^4 (no ccvv) ......Done. Timing        0.082235 s
Computing <[V, T2]> (C_2)^4 ccvv     with FLY_AMBIT...Done. Timing        0.065252 s
    Computing <[V, T2]> 4HH              ......Done. Timing        0.006766 s
    Computing <V, T2]> 4PP               ...  Done. Timing        0.006746 s
    Computing [V, T2] 4PH                ...  Done. Timing        0.024734 s
    Computing [V, T2] λ3                ......Done. Timing        0.005480 s

  ==> DSRG-MRPT2 Energy Summary <==

    E0 (reference)                 =   -226.575081996528098
    <[F, T1]>                      =     -0.004853286198429
    <[F, T2]>                      =      0.004355743295914
    <[V, T1]>                      =      0.004925265678902
    <[V, T2]> (C_2)^4              =     -0.367931383594959
    <[V, T2]> C_4 (C_2)^2 HH       =      0.004345992829626
    <[V, T2]> C_4 (C_2)^2 PP       =      0.003406834114496
    <[V, T2]> C_4 (C_2)^2 PH       =      0.048649986342682
    <[V, T2]> C_6 C_2              =     -0.000843884602192
    <[V, T2]>                      =     -0.312372454910347
    DSRG-MRPT2 correlation energy  =     -0.307944732133959
    DSRG-MRPT2 total energy        =   -226.883026728662060
    max(T1)                        =      0.014696232176216
    max(T2)                        =      0.033926930812937
    ||T1||                         =      0.042810957208171
    ||T2||                         =      0.541337234538364


    CD/DF-DSRG-MRPT2 took   0.20544900 s.
 Your calculation took 9.04165900 seconds
*** PSI4 exiting successfully. Buy a developer a beer!
