
    -----------------------------------------------------------------------
          Psi4: An Open-Source Ab Initio Electronic Structure Package
                               Psi4 undefined 

                         Git: Rev {mints_oei} 4aa373e 


    R. M. Parrish, L. A. Burns, D. G. A. Smith, A. C. Simmonett,
    A. E. DePrince III, E. G. Hohenstein, U. Bozkaya, A. Yu. Sokolov,
    R. Di Remigio, R. M. Richard, J. F. Gonthier, A. M. James,
    H. R. McAlexander, A. Kumar, M. Saitow, X. Wang, B. P. Pritchard,
    P. Verma, H. F. Schaefer III, K. Patkowski, R. A. King, E. F. Valeev,
    F. A. Evangelista, J. M. Turney, T. D. Crawford, and C. D. Sherrill,
    J. Chem. Theory Comput. 13(7) pp 3185--3197 (2017).
    (doi: 10.1021/acs.jctc.7b00174)


                         Additional Contributions by
    P. Kraus, H. Kruse, M. H. Lechner, M. C. Schieber, R. A. Shaw,
    A. Alenaizan, R. Galvelis, Z. L. Glick, S. Lehtola, and J. P. Misiewicz

    -----------------------------------------------------------------------


    Psi4 started on: Sunday, 19 January 2020 02:44PM

    Process ID: 71177
    Host:       CHE-FEVANGE-01I (2)
    PSIDATADIR: /Users/fevange/Source/psi4/objdir-Debug/stage/share/psi4
    Memory:     500.0 MiB
    Threads:    1
    
  ==> Input File <==

--------------------------------------------------------------------------
#! Generated using commit GITCOMMIT 
# Basic ACI calculation with energy threshold selection

import forte

refscf = -14.84351701863007 
refaci = -14.880501440889
refacipt2 = -14.880559935217

molecule li2{
  Li
  Li 1 3.7794522658
  units bohr
}

set {
  basis cc-pcvtz
  e_convergence 10
  d_convergence 10
  r_convergence 10
  scf_type pk
  reference rhf
  docc = [2,0,0,0,0,1,0,0]
}

set scf {
}

set forte {
  active_space_solver aci
  frozen_docc [1,0,0,0,0,1,0,0]
  ACI_SELECT_TYPE aimed_energy
  diag_algorithm davidsonliulist
  sigma 0.0015
  gamma 0.0015
  nroot 1
  charge 0
  aci_enforce_spin_complete true
}

E, wfn = energy('scf', return_wfn=True)

compare_values(refscf, variable("CURRENT ENERGY"),9,"SCF energy")

energy('forte', ref_wfn=wfn)

compare_values(refaci, variable("ACI ENERGY"),9,"ACI energy")
compare_values(refacipt2, variable("ACI+PT2 ENERGY"),9,"ACI+PT2 energy")

--------------------------------------------------------------------------

Scratch directory: /tmp/

*** tstart() called on CHE-FEVANGE-01I (2)
*** at Sun Jan 19 14:44:38 2020

   => Loading Basis Set <=

    Name: CC-PCVTZ
    Role: ORBITAL
    Keyword: BASIS
    atoms 1-2 entry LI         line    83 file /Users/fevange/Source/psi4/objdir-Debug/stage/share/psi4/basis/cc-pcvtz.gbs 


         ---------------------------------------------------------
                                   SCF
               by Justin Turney, Rob Parrish, Andy Simmonett
                          and Daniel G. A. Smith
                              RHF Reference
                        1 Threads,    500 MiB Core
         ---------------------------------------------------------

  ==> Geometry <==

    Molecular point group: d2h
    Full point group: D_inf_h

    Geometry (in Bohr), charge = 0, multiplicity = 1:

       Center              X                  Y                   Z               Mass       
    ------------   -----------------  -----------------  -----------------  -----------------
         LI           0.000000000000     0.000000000000    -1.889726132900     7.016003436600
         LI           0.000000000000     0.000000000000     1.889726132900     7.016003436600

  Running in d2h symmetry.

  Rotational constants: A = ************  B =      1.20137  C =      1.20137 [cm^-1]
  Rotational constants: A = ************  B =  36016.16001  C =  36016.16001 [MHz]
  Nuclear repulsion =    2.381297438636909

  Charge       = 0
  Multiplicity = 1
  Electrons    = 6
  Nalpha       = 3
  Nbeta        = 3

  ==> Algorithm <==

  SCF Algorithm Type is PK.
  DIIS enabled.
  MOM disabled.
  Fractional occupation disabled.
  Guess Type is SAD.
  Energy threshold   = 1.00e-10
  Density threshold  = 1.00e-10
  Integral threshold = 0.00e+00

  ==> Primary Basis <==

  Basis Set: CC-PCVTZ
    Blend: CC-PCVTZ
    Number of shells: 30
    Number of basis function: 86
    Number of Cartesian functions: 98
    Spherical Harmonics?: true
    Max angular momentum: 3

  ==> Pre-Iterations <==

   -------------------------------------------------------
    Irrep   Nso     Nmo     Nalpha   Nbeta   Ndocc  Nsocc
   -------------------------------------------------------
     Ag        19      19       2       2       2       0
     B1g        4       4       0       0       0       0
     B2g       10      10       0       0       0       0
     B3g       10      10       0       0       0       0
     Au         4       4       0       0       0       0
     B1u       19      19       1       1       1       0
     B2u       10      10       0       0       0       0
     B3u       10      10       0       0       0       0
   -------------------------------------------------------
    Total      86      86       3       3       3       0
   -------------------------------------------------------

  ==> Integral Setup <==

  Using in-core PK algorithm.
   Calculation information:
      Number of atoms:                   2
      Number of AO shells:              30
      Number of primitives:             78
      Number of atomic orbitals:        98
      Number of basis functions:        86

      Integral cutoff                 1.00e-12
      Number of threads:                 1

  Performing in-core PK
  Using 13998822 doubles for integral storage.
  We computed 104112 shell quartets total.
  Whereas there are 108345 unique shell quartets.

  ==> DiskJK: Disk-Based J/K Matrices <==

    J tasked:                  Yes
    K tasked:                  Yes
    wK tasked:                  No
    Memory [MiB]:              375
    Schwarz Cutoff:          1E-12

    OpenMP threads:              1

  Minimum eigenvalue in the overlap matrix is 1.3394139910E-04.
    Using symmetric orthogonalization.
  SCF Guess: Superposition of Atomic Densities via on-the-fly atomic UHF.

  ==> Iterations <==

                        Total Energy        Delta E     RMS |[F,P]|

   @RHF iter SAD:   -14.62403919719008   -1.46240e+01   0.00000e+00 
   @RHF iter   1:   -14.84027769044411   -2.16238e-01   1.89520e-03 DIIS
   @RHF iter   2:   -14.84329203640154   -3.01435e-03   2.19179e-04 DIIS
   @RHF iter   3:   -14.84347086195283   -1.78826e-04   1.10157e-04 DIIS
   @RHF iter   4:   -14.84351448866841   -4.36267e-05   2.38959e-05 DIIS
   @RHF iter   5:   -14.84351699407855   -2.50541e-06   2.13506e-06 DIIS
   @RHF iter   6:   -14.84351701822279   -2.41442e-08   2.83534e-07 DIIS
   @RHF iter   7:   -14.84351701862261   -3.99822e-10   3.69257e-08 DIIS
   @RHF iter   8:   -14.84351701862996   -7.35412e-12   3.84678e-09 DIIS
   @RHF iter   9:   -14.84351701863008   -1.19016e-13   6.40064e-10 DIIS
   @RHF iter  10:   -14.84351701863007    1.06581e-14   4.47126e-11 DIIS
  Energy and wave function converged.


  ==> Post-Iterations <==

    Orbital Energies [Eh]
    ---------------------

    Doubly Occupied:                                                      

       1Ag    -2.463610     1B1u   -2.458435     2Ag    -0.194917  

    Virtual:                                                              

       2B1u    0.011593     1B3u    0.022923     1B2u    0.022923  
       3Ag     0.041577     1B2g    0.057489     1B3g    0.057489  
       3B1u    0.064862     4Ag     0.102285     2B3u    0.104624  
       2B2u    0.104624     5Ag     0.137875     4B1u    0.163614  
       2B2g    0.167620     2B3g    0.167620     6Ag     0.199833  
       1B1g    0.199833     5B1u    0.251672     3B3u    0.256653  
       3B2u    0.256653     1Au     0.268792     6B1u    0.268792  
       7Ag     0.306115     3B2g    0.327458     3B3g    0.327458  
       7B1u    0.398241     4B3u    0.422656     4B2u    0.422656  
       8Ag     0.428430     4B2g    0.438685     4B3g    0.438685  
       5B3u    0.505941     5B2u    0.505941     9Ag     0.572506  
       2B1g    0.578159    10Ag     0.578159     5B3g    0.615788  
       5B2g    0.615788     8B1u    0.643087     2Au     0.672107  
       9B1u    0.672107     6B3u    0.692426     6B2u    0.692426  
      11Ag     0.694287     3B1g    0.694287    10B1u    0.762201  
       6B2g    0.780930     6B3g    0.780930     7B3u    0.806092  
       7B2u    0.806092    12Ag     0.811354     3Au     0.866932  
      11B1u    0.866932     7B2g    1.040258     7B3g    1.040258  
      12B1u    1.104290    13B1u    1.887041    13Ag     2.056362  
       8B2u    3.641254     8B3u    3.641254    14Ag     3.714343  
       8B2g    4.025479     8B3g    4.025479    14B1u    4.509275  
      15B1u    8.683782    15Ag     8.769312    16B1u   14.770299  
       4B1g   14.776810    16Ag    14.776810     9B2u   14.781531  
       9B3u   14.781531     4Au    14.782743    17B1u   14.782743  
       9B3g   14.786631     9B2g   14.786631    17Ag    14.800961  
      10B2u   19.356050    10B3u   19.356050    18Ag    19.401941  
      10B2g   19.625433    10B3g   19.625433    18B1u   19.988818  
      19B1u   40.943670    19Ag    41.124028  

    Final Occupation by Irrep:
             Ag   B1g   B2g   B3g    Au   B1u   B2u   B3u 
    DOCC [     2,    0,    0,    0,    0,    1,    0,    0 ]

  @RHF Final Energy:   -14.84351701863007

   => Energetics <=

    Nuclear Repulsion Energy =              2.3812974386369086
    One-Electron Energy =                 -24.2157054179704971
    Two-Electron Energy =                   6.9908909607035152
    Total Energy =                        -14.8435170186300720

Computation Completed


Properties will be evaluated at   0.000000,   0.000000,   0.000000 [a0]

Properties computed using the SCF density matrix

  Nuclear Dipole Moment: [e a0]
     X:     0.0000      Y:     0.0000      Z:     0.0000

  Electronic Dipole Moment: [e a0]
     X:     0.0000      Y:     0.0000      Z:     0.0000

  Dipole Moment: [e a0]
     X:     0.0000      Y:     0.0000      Z:     0.0000     Total:     0.0000

  Dipole Moment: [D]
     X:     0.0000      Y:     0.0000      Z:     0.0000     Total:     0.0000


*** tstop() called on CHE-FEVANGE-01I (2) at Sun Jan 19 14:44:41 2020
Module time:
	user time   =       3.23 seconds =       0.05 minutes
	system time =       0.06 seconds =       0.00 minutes
	total time  =          3 seconds =       0.05 minutes
Total time:
	user time   =       3.23 seconds =       0.05 minutes
	system time =       0.06 seconds =       0.00 minutes
	total time  =          3 seconds =       0.05 minutes
    SCF energy........................................................PASSED

Scratch directory: /tmp/
   => Loading Basis Set <=

    Name: STO-3G
    Role: ORBITAL
    Keyword: MINAO_BASIS
    atoms 1-2 entry LI         line    31 file /Users/fevange/Source/psi4/objdir-Debug/stage/share/psi4/basis/sto-3g.gbs 


  Forte
  ----------------------------------------------------------------------------
  A suite of quantum chemistry methods for strongly correlated electrons

    git branch: master - git commit: a53ce26c

  Developed by:
    Francesco A. Evangelista, Chenyang Li, Kevin P. Hannon,
    Jeffrey B. Schriber, Tianyuan Zhang, Chenxi Cai,
    Nan He, Nicholas Stair, Shuhe Wang, Renke Huang
  ----------------------------------------------------------------------------

  Size of Determinant class: 256 bits
  Read options for space FROZEN_DOCC

  ==> MO Space Information <==

  -------------------------------------------------------------------------
                       Ag   B1g   B2g   B3g    Au   B1u   B2u   B3u   Sum
  -------------------------------------------------------------------------
    FROZEN_DOCC         1     0     0     0     0     1     0     0     2
    RESTRICTED_DOCC     0     0     0     0     0     0     0     0     0
    ACTIVE             18     4    10    10     4    18    10    10    84
    RESTRICTED_UOCC     0     0     0     0     0     0     0     0     0
    FROZEN_UOCC         0     0     0     0     0     0     0     0     0
    Total              19     4    10    10     4    19    10    10    86
  -------------------------------------------------------------------------

  ==> Integral Transformation <==

  Number of molecular orbitals:                    86
  Number of correlated molecular orbitals:         84
  Number of frozen occupied orbitals:               2
  Number of frozen unoccupied orbitals:             0
  Two-electron integral type:              Conventional


  Overall Conventional Integrals timings

	Presorting SO-basis two-electron integrals.
	Sorting File: SO Ints (nn|nn) nbuckets = 1
	Transforming the one-electron integrals and constructing Fock matrices
	Starting first half-transformation.
	Sorting half-transformed integrals.
	First half integral transformation complete.
	Starting second half-transformation.
	Two-electron integral transformation complete.

  Integral transformation done. 0.67477730 s
  Reading the two-electron integrals from disk
  Size of two-electron integrals:   1.222659 GB  Using in-core PK algorithm.
   Calculation information:
      Number of atoms:                   2
      Number of AO shells:              30
      Number of primitives:             78
      Number of atomic orbitals:        98
      Number of basis functions:        86

      Integral cutoff                 1.00e-12
      Number of threads:                 1

  Performing in-core PK
  Using 13998822 doubles for integral storage.
  We computed 104112 shell quartets total.
  Whereas there are 108345 unique shell quartets.


  Frozen-core energy            -16.589218876732 a.u.
  Timing for frozen one-body operator:                        2.732 s.
  Resorting integrals after freezing core.
  Timing for freezing core and virtual orbitals:              7.780 s.
  Conventional integrals take 16.00483272 s

  ==> Summary of Active Space Solver Input <==

    Irrep.  Multi.  Nstates
    -------------------------
      Ag       1        1
    -------------------------
    Total number of states: 1
    -------------------------


-------------------------------------------------------------------------------
               Selected Configuration Interaction Excited States
  written by Jeffrey B. Schriber, Tianyuan Zhang and Francesco A. Evangelista
-------------------------------------------------------------------------------

  ==> Reference Information <==

  ==> Calculation Information <==

  -----------------------------------------------------------------
    Multiplicity                             1    
    Symmetry                                 0    
    Number of roots                          1    
    Ms                                       0
    Excited Algorithm                        NONE
  -----------------------------------------------------------------
  Using 1 threads
  Computing wavefunction for root 0

        ---------------------------------------------------------------
                      Adaptive Configuration Interaction
          written by Jeffrey B. Schriber and Francesco A. Evangelista
        ---------------------------------------------------------------

  ==> Reference Information <==

  There are 2 frozen orbitals.
  There are 84 active orbitals.

  ==> Calculation Information <==

  -----------------------------------------------------------------
    Multiplicity                             1    
    Symmetry                                 0    
    Number of roots                          1    
    Root used for properties                 0    
    Sigma (Eh)                               1.50e-03
    Gamma (Eh^(-1))                          1.50e-03
    Convergence threshold                    1.00e-09
    Ms                                       0
    Diagonalization algorithm                DAVIDSONLIULIST
    Determinant selection criterion          Second-order Energy
    Selection criterion                      Aimed selection
    Excited Algorithm                        NONE
    Project out spin contaminants            True
    Enforce spin completeness of basis       True
    Enforce complete aimed selection         True
  -----------------------------------------------------------------
  Number of active alpha electrons: 1
  Number of active beta electrons: 1
  Maximum reference space size: 1000
  Number of reference determinants: 977
  Reference generated from 83 MOs
  Using streamlined Q-space builder.

  ==> Cycle 0 <==

  Initial P space dimension: 977
  Spin-complete dimension of the P space: 977 determinants

  ==> Computing Coupling Lists <==
  --------------------------------
        α          0.001575 s
        β          0.001620 s
        αα         0.000921 s
        ββ         0.000937 s
        αβ         0.001798 s
  --------------------------------

  Davidson-Liu solver algorithm
  Using SPARSE sigma builder
  Initial guess space is incomplete!
  Trying to add 1 determinant(s).  1 determinant(s) added.
  Initial guess found 59 solutions with 2S+1 = 1 *
  Initial guess found 42 solutions with 2S+1 = 3  
  Adding guess 0 (multiplicity = 1.000000)
  Adding guess 1 (multiplicity = 1.000000)

  ==> Diagonalizing Hamiltonian <==

  ----------------------------------------
    Iter.      Avg. Energy       Delta_E
  ----------------------------------------
      1      -17.258551995091  -1.726e+01
      2      -17.261596457751  -3.044e-03
      3      -17.261825426333  -2.290e-04
      4      -17.261849892667  -2.447e-05
      5      -17.261855041848  -5.149e-06
      6      -17.261855528199  -4.864e-07
      7      -17.261855596582  -6.838e-08
      8      -17.261855608466  -1.188e-08
      9      -17.261855611631  -3.165e-09
     10      -17.261855612145  -5.135e-10
     11      -17.261855612242  -9.748e-11
  ----------------------------------------
  The Davidson-Liu algorithm converged in 12 iterations.
  Davidson-Liu procedure took  0.887452 s
  Time spent diagonalizing H:   0.891016 s

    P-space  CI Energy Root   0        = -14.880558173605 Eh =   0.0000 eV

  Time spent forming F space:             0.649428
  Time spent merging thread F spaces:             0.000467
  Time spent preparing PQ_space: 0.000391
  Dimension of the SD space: 103 determinants
  Time spent building the external space (default): 0.650443 s

  Time spent building sorting list: 0.000358
  Time spent sorting: 0.000023
  Time spent selecting: 0.000001
  Dimension of the P + Q space: 977 determinants
  Time spent screening the model space: 0.000404 s
  Time spent building the model space: 0.650887
  Spin-complete dimension of the PQ space: 977

  ==> Computing Coupling Lists <==
  --------------------------------
        α          0.001608 s
        β          0.001610 s
        αα         0.000920 s
        ββ         0.000936 s
        αβ         0.001789 s
  --------------------------------

  Davidson-Liu solver algorithm
  Using SPARSE sigma builder
  Initial guess space is incomplete!
  Trying to add 1 determinant(s).  1 determinant(s) added.
  Initial guess found 59 solutions with 2S+1 = 1 *
  Initial guess found 42 solutions with 2S+1 = 3  
  Adding guess 0 (multiplicity = 1.000000)
  Adding guess 1 (multiplicity = 1.000000)

  ==> Diagonalizing Hamiltonian <==

  ----------------------------------------
    Iter.      Avg. Energy       Delta_E
  ----------------------------------------
      1      -17.258551995091  -1.726e+01
      2      -17.261596457751  -3.044e-03
      3      -17.261825426333  -2.290e-04
      4      -17.261849892667  -2.447e-05
      5      -17.261855041848  -5.149e-06
      6      -17.261855528199  -4.864e-07
      7      -17.261855596582  -6.838e-08
      8      -17.261855608466  -1.188e-08
      9      -17.261855611631  -3.165e-09
     10      -17.261855612145  -5.135e-10
     11      -17.261855612242  -9.748e-11
  ----------------------------------------
  The Davidson-Liu algorithm converged in 12 iterations.
  Davidson-Liu procedure took  0.844167 s
  Total time spent diagonalizing H:   0.847744 s

    PQ-space CI Energy Root   0        = -14.880558173605 Eh =   0.0000 eV
    PQ-space CI Energy + EPT2 Root   0 = -14.880559266050 Eh =   0.0000 eV


  Most important contributions to root   0:
    0  -0.937840 0.879543616         976 |200000000000000000000000000000000000000000000000000000000000000000000000000000000000>
    1   0.123109 0.015155878         933 |000000000000000000000000000000000000000000000000000000000000000020000000000000000000>
    2   0.123109 0.015155878         943 |000000000000000000000000000000000000000000000000000000000000000000000000002000000000>
    3   0.101408 0.010283557         932 |0000000000000000000000000000000000000000000000000000000000000000+-000000000000000000>
    4   0.101408 0.010283557         843 |0000000000000000000000000000000000000000000000000000000000000000-+000000000000000000>
    5   0.101408 0.010283557         942 |00000000000000000000000000000000000000000000000000000000000000000000000000+-00000000>
    6   0.101408 0.010283557         853 |00000000000000000000000000000000000000000000000000000000000000000000000000-+00000000>
    7   0.084271 0.007101617         842 |000000000000000000000000000000000000000000000000000000000000000002000000000000000000>
    8   0.084271 0.007101617         852 |000000000000000000000000000000000000000000000000000000000000000000000000000200000000>
    9   0.045099 0.002033898         959 |000000000000000000000000000000000000000000000020000000000000000000000000000000000000>

  Spin state for root 0: S^2 = 0.000000, S = 0.000, singlet
  Cycle 0 took: 2.452974 s

  ==> Cycle 1 <==

  Initial P space dimension: 352
  Spin-complete dimension of the P space: 352 determinants

  ==> Computing Coupling Lists <==
  --------------------------------
        α          0.000618 s
        β          0.000633 s
        αα         0.000347 s
        ββ         0.000394 s
        αβ         0.000792 s
  --------------------------------

  Davidson-Liu solver algorithm
  Using SPARSE sigma builder
  Initial guess found 61 solutions with 2S+1 = 1 *
  Initial guess found 39 solutions with 2S+1 = 3  
  Adding guess 0 (multiplicity = 1.000000)
  Adding guess 1 (multiplicity = 1.000000)

  ==> Diagonalizing Hamiltonian <==

  ----------------------------------------
    Iter.      Avg. Energy       Delta_E
  ----------------------------------------
      1      -17.259151866709  -1.726e+01
      2      -17.261670953081  -2.519e-03
      3      -17.261825652616  -1.547e-04
      4      -17.261840101393  -1.445e-05
      5      -17.261843251756  -3.150e-06
      6      -17.261843511385  -2.596e-07
      7      -17.261843543690  -3.230e-08
      8      -17.261843549202  -5.512e-09
      9      -17.261843550690  -1.488e-09
     10      -17.261843550915  -2.251e-10
     11      -17.261843550956  -4.088e-11
  ----------------------------------------
  The Davidson-Liu algorithm converged in 12 iterations.
  Davidson-Liu procedure took  0.237878 s
  Time spent diagonalizing H:   0.239258 s

    P-space  CI Energy Root   0        = -14.880546112319 Eh =   0.0000 eV

  Time spent forming F space:             0.306411
  Time spent merging thread F spaces:             0.000460
  Time spent preparing PQ_space: 0.000168
  Dimension of the SD space: 728 determinants
  Time spent building the external space (default): 0.307189 s

  Time spent building sorting list: 0.002561
  Time spent sorting: 0.000129
  Time spent selecting: 0.000004
  Dimension of the P + Q space: 352 determinants
  Time spent screening the model space: 0.002726 s
  Time spent building the model space: 0.309998
  Spin-complete dimension of the PQ space: 352

  ==> Computing Coupling Lists <==
  --------------------------------
        α          0.000619 s
        β          0.000633 s
        αα         0.000347 s
        ββ         0.000340 s
        αβ         0.000763 s
  --------------------------------

  Davidson-Liu solver algorithm
  Using SPARSE sigma builder
  Initial guess found 61 solutions with 2S+1 = 1 *
  Initial guess found 39 solutions with 2S+1 = 3  
  Adding guess 0 (multiplicity = 1.000000)
  Adding guess 1 (multiplicity = 1.000000)

  ==> Diagonalizing Hamiltonian <==

  ----------------------------------------
    Iter.      Avg. Energy       Delta_E
  ----------------------------------------
      1      -17.259151866709  -1.726e+01
      2      -17.261670953081  -2.519e-03
      3      -17.261825652616  -1.547e-04
      4      -17.261840101393  -1.445e-05
      5      -17.261843251756  -3.150e-06
      6      -17.261843511385  -2.596e-07
      7      -17.261843543690  -3.230e-08
      8      -17.261843549202  -5.512e-09
      9      -17.261843550690  -1.488e-09
     10      -17.261843550915  -2.251e-10
     11      -17.261843550956  -4.088e-11
  ----------------------------------------
  The Davidson-Liu algorithm converged in 12 iterations.
  Davidson-Liu procedure took  0.222566 s
  Total time spent diagonalizing H:   0.223926 s

    PQ-space CI Energy Root   0        = -14.880546112319 Eh =   0.0000 eV
    PQ-space CI Energy + EPT2 Root   0 = -14.880559909345 Eh =   0.0000 eV

  Added 2 missing determinants in aimed selection.

  Most important contributions to root   0:
    0  -0.937788 0.879445779         351 |200000000000000000000000000000000000000000000000000000000000000000000000000000000000>
    1   0.123152 0.015166329         349 |000000000000000000000000000000000000000000000000000000000000000000000000002000000000>
    2   0.123152 0.015166329         350 |000000000000000000000000000000000000000000000000000000000000000020000000000000000000>
    3   0.101451 0.010292239         348 |0000000000000000000000000000000000000000000000000000000000000000+-000000000000000000>
    4   0.101451 0.010292239         347 |0000000000000000000000000000000000000000000000000000000000000000-+000000000000000000>
    5   0.101451 0.010292239         346 |00000000000000000000000000000000000000000000000000000000000000000000000000+-00000000>
    6   0.101451 0.010292239         345 |00000000000000000000000000000000000000000000000000000000000000000000000000-+00000000>
    7   0.084320 0.007109865         344 |000000000000000000000000000000000000000000000000000000000000000002000000000000000000>
    8   0.084320 0.007109865         343 |000000000000000000000000000000000000000000000000000000000000000000000000000200000000>
    9   0.045134 0.002037052         342 |000000000000000000000000000000000000000000000020000000000000000000000000000000000000>

  Spin state for root 0: S^2 = 0.000000, S = 0.000, singlet
  Cycle 1 took: 0.788481 s

  ==> Cycle 2 <==

  Initial P space dimension: 333
  Spin-complete dimension of the P space: 333 determinants

  ==> Computing Coupling Lists <==
  --------------------------------
        α          0.000586 s
        β          0.000599 s
        αα         0.000328 s
        ββ         0.000322 s
        αβ         0.000620 s
  --------------------------------

  Davidson-Liu solver algorithm
  Using SPARSE sigma builder
  Initial guess space is incomplete!
  Trying to add 1 determinant(s).  1 determinant(s) added.
  Initial guess found 62 solutions with 2S+1 = 1 *
  Initial guess found 39 solutions with 2S+1 = 3  
  Adding guess 0 (multiplicity = 1.000000)
  Adding guess 1 (multiplicity = 1.000000)

  ==> Diagonalizing Hamiltonian <==

  ----------------------------------------
    Iter.      Avg. Energy       Delta_E
  ----------------------------------------
      1      -17.259241028520  -1.726e+01
      2      -17.261681827387  -2.441e-03
      3      -17.261824156391  -1.423e-04
      4      -17.261837621816  -1.347e-05
      5      -17.261840552078  -2.930e-06
      6      -17.261840788591  -2.365e-07
      7      -17.261840816909  -2.832e-08
      8      -17.261840821629  -4.719e-09
      9      -17.261840822858  -1.229e-09
     10      -17.261840823033  -1.750e-10
     11      -17.261840823064  -3.111e-11
  ----------------------------------------
  The Davidson-Liu algorithm converged in 12 iterations.
  Davidson-Liu procedure took  0.227721 s
  Time spent diagonalizing H:   0.228981 s

    P-space  CI Energy Root   0        = -14.880543384427 Eh =   0.0000 eV

  Time spent forming F space:             0.290490
  Time spent merging thread F spaces:             0.000459
  Time spent preparing PQ_space: 0.000166
  Dimension of the SD space: 747 determinants
  Time spent building the external space (default): 0.291265 s

  Time spent building sorting list: 0.002726
  Time spent sorting: 0.000140
  Time spent selecting: 0.000004
  Dimension of the P + Q space: 333 determinants
  Time spent screening the model space: 0.002904 s
  Time spent building the model space: 0.294275
  Spin-complete dimension of the PQ space: 333

  ==> Computing Coupling Lists <==
  --------------------------------
        α          0.000585 s
        β          0.000600 s
        αα         0.000329 s
        ββ         0.000322 s
        αβ         0.000618 s
  --------------------------------

  Davidson-Liu solver algorithm
  Using SPARSE sigma builder
  Initial guess space is incomplete!
  Trying to add 1 determinant(s).  1 determinant(s) added.
  Initial guess found 62 solutions with 2S+1 = 1 *
  Initial guess found 39 solutions with 2S+1 = 3  
  Adding guess 0 (multiplicity = 1.000000)
  Adding guess 1 (multiplicity = 1.000000)

  ==> Diagonalizing Hamiltonian <==

  ----------------------------------------
    Iter.      Avg. Energy       Delta_E
  ----------------------------------------
      1      -17.259241028520  -1.726e+01
      2      -17.261681827387  -2.441e-03
      3      -17.261824156391  -1.423e-04
      4      -17.261837621816  -1.347e-05
      5      -17.261840552078  -2.930e-06
      6      -17.261840788591  -2.365e-07
      7      -17.261840816909  -2.832e-08
      8      -17.261840821629  -4.719e-09
      9      -17.261840822858  -1.229e-09
     10      -17.261840823033  -1.750e-10
     11      -17.261840823064  -3.111e-11
  ----------------------------------------
  The Davidson-Liu algorithm converged in 12 iterations.
  Davidson-Liu procedure took  0.215339 s
  Total time spent diagonalizing H:   0.216617 s

    PQ-space CI Energy Root   0        = -14.880543384427 Eh =   0.0000 eV
    PQ-space CI Energy + EPT2 Root   0 = -14.880559924655 Eh =   0.0000 eV

  Added 3 missing determinants in aimed selection.

  Most important contributions to root   0:
    0   0.937763 0.879398716         330 |200000000000000000000000000000000000000000000000000000000000000000000000000000000000>
    1  -0.123175 0.015172168         329 |000000000000000000000000000000000000000000000000000000000000000000000000002000000000>
    2  -0.123175 0.015172168         328 |000000000000000000000000000000000000000000000000000000000000000020000000000000000000>
    3  -0.101473 0.010296701         327 |0000000000000000000000000000000000000000000000000000000000000000+-000000000000000000>
    4  -0.101473 0.010296701         326 |0000000000000000000000000000000000000000000000000000000000000000-+000000000000000000>
    5  -0.101473 0.010296701         325 |00000000000000000000000000000000000000000000000000000000000000000000000000+-00000000>
    6  -0.101473 0.010296701         324 |00000000000000000000000000000000000000000000000000000000000000000000000000-+00000000>
    7  -0.084340 0.007113289         323 |000000000000000000000000000000000000000000000000000000000000000002000000000000000000>
    8  -0.084340 0.007113289         322 |000000000000000000000000000000000000000000000000000000000000000000000000000200000000>
    9  -0.045152 0.002038705         321 |000000000000000000000000000000000000000000000020000000000000000000000000000000000000>

  Spin state for root 0: S^2 = 0.000000, S = 0.000, singlet
  Cycle 2 took: 0.755054 s

  ==> Cycle 3 <==

  Initial P space dimension: 320
  Spin-complete dimension of the P space: 320 determinants

  ==> Computing Coupling Lists <==
  --------------------------------
        α          0.000702 s
        β          0.000621 s
        αα         0.000335 s
        ββ         0.000327 s
        αβ         0.000643 s
  --------------------------------

  Davidson-Liu solver algorithm
  Using SPARSE sigma builder
  Initial guess space is incomplete!
  Trying to add 1 determinant(s).  1 determinant(s) added.
  Initial guess found 62 solutions with 2S+1 = 1 *
  Initial guess found 39 solutions with 2S+1 = 3  
  Adding guess 0 (multiplicity = 1.000000)
  Adding guess 1 (multiplicity = 1.000000)

  ==> Diagonalizing Hamiltonian <==

  ----------------------------------------
    Iter.      Avg. Energy       Delta_E
  ----------------------------------------
      1      -17.259241028520  -1.726e+01
      2      -17.261677732048  -2.437e-03
      3      -17.261818901856  -1.412e-04
      4      -17.261832183135  -1.328e-05
      5      -17.261835048767  -2.866e-06
      6      -17.261835281361  -2.326e-07
      7      -17.261835309003  -2.764e-08
      8      -17.261835313584  -4.581e-09
      9      -17.261835314755  -1.171e-09
     10      -17.261835314921  -1.656e-10
     11      -17.261835314950  -2.932e-11
  ----------------------------------------
  The Davidson-Liu algorithm converged in 12 iterations.
  Davidson-Liu procedure took  0.209697 s
  Time spent diagonalizing H:   0.210992 s

    P-space  CI Energy Root   0        = -14.880537876313 Eh =   0.0000 eV

  Time spent forming F space:             0.278826
  Time spent merging thread F spaces:             0.000455
  Time spent preparing PQ_space: 0.000162
  Dimension of the SD space: 760 determinants
  Time spent building the external space (default): 0.279597 s

  Time spent building sorting list: 0.002718
  Time spent sorting: 0.000142
  Time spent selecting: 0.000004
  Dimension of the P + Q space: 320 determinants
  Time spent screening the model space: 0.002898 s
  Time spent building the model space: 0.282578
  Spin-complete dimension of the PQ space: 320

  ==> Computing Coupling Lists <==
  --------------------------------
        α          0.000566 s
        β          0.000579 s
        αα         0.000316 s
        ββ         0.000309 s
        αβ         0.000599 s
  --------------------------------

  Davidson-Liu solver algorithm
  Using SPARSE sigma builder
  Initial guess space is incomplete!
  Trying to add 1 determinant(s).  1 determinant(s) added.
  Initial guess found 62 solutions with 2S+1 = 1 *
  Initial guess found 39 solutions with 2S+1 = 3  
  Adding guess 0 (multiplicity = 1.000000)
  Adding guess 1 (multiplicity = 1.000000)

  ==> Diagonalizing Hamiltonian <==

  ----------------------------------------
    Iter.      Avg. Energy       Delta_E
  ----------------------------------------
      1      -17.259241028520  -1.726e+01
      2      -17.261677732048  -2.437e-03
      3      -17.261818901856  -1.412e-04
      4      -17.261832183135  -1.328e-05
      5      -17.261835048767  -2.866e-06
      6      -17.261835281361  -2.326e-07
      7      -17.261835309003  -2.764e-08
      8      -17.261835313584  -4.581e-09
      9      -17.261835314755  -1.171e-09
     10      -17.261835314921  -1.656e-10
     11      -17.261835314950  -2.932e-11
  ----------------------------------------
  The Davidson-Liu algorithm converged in 12 iterations.
  Davidson-Liu procedure took  0.209610 s
  Total time spent diagonalizing H:   0.210835 s

    PQ-space CI Energy Root   0        = -14.880537876313 Eh =   0.0000 eV
    PQ-space CI Energy + EPT2 Root   0 = -14.880559843956 Eh =   0.0000 eV

  Added 1 missing determinants in aimed selection.

  Most important contributions to root   0:
    0   0.937766 0.879404429         316 |200000000000000000000000000000000000000000000000000000000000000000000000000000000000>
    1  -0.123175 0.015172172         315 |000000000000000000000000000000000000000000000000000000000000000000000000002000000000>
    2  -0.123175 0.015172172         314 |000000000000000000000000000000000000000000000000000000000000000020000000000000000000>
    3  -0.101469 0.010296043         313 |0000000000000000000000000000000000000000000000000000000000000000+-000000000000000000>
    4  -0.101469 0.010296043         312 |0000000000000000000000000000000000000000000000000000000000000000-+000000000000000000>
    5  -0.101469 0.010296043         311 |00000000000000000000000000000000000000000000000000000000000000000000000000+-00000000>
    6  -0.101469 0.010296043         310 |00000000000000000000000000000000000000000000000000000000000000000000000000-+00000000>
    7  -0.084331 0.007111738         309 |000000000000000000000000000000000000000000000000000000000000000002000000000000000000>
    8  -0.084331 0.007111738         308 |000000000000000000000000000000000000000000000000000000000000000000000000000200000000>
    9  -0.045162 0.002039631         307 |000000000000000000000000000000000000000000000020000000000000000000000000000000000000>

  Spin state for root 0: S^2 = 0.000000, S = 0.000, singlet
  Cycle 3 took: 0.718514 s

  ==> Cycle 4 <==

  Initial P space dimension: 308
  Spin-complete dimension of the P space: 308 determinants

  ==> Computing Coupling Lists <==
  --------------------------------
        α          0.000546 s
        β          0.000560 s
        αα         0.000304 s
        ββ         0.000298 s
        αβ         0.000576 s
  --------------------------------

  Davidson-Liu solver algorithm
  Using SPARSE sigma builder
  Initial guess space is incomplete!
  Trying to add 1 determinant(s).  1 determinant(s) added.
  Initial guess found 62 solutions with 2S+1 = 1 *
  Initial guess found 39 solutions with 2S+1 = 3  
  Adding guess 0 (multiplicity = 1.000000)
  Adding guess 1 (multiplicity = 1.000000)

  ==> Diagonalizing Hamiltonian <==

  ----------------------------------------
    Iter.      Avg. Energy       Delta_E
  ----------------------------------------
      1      -17.259241028520  -1.726e+01
      2      -17.261670998501  -2.430e-03
      3      -17.261811703763  -1.407e-04
      4      -17.261824891403  -1.319e-05
      5      -17.261827741810  -2.850e-06
      6      -17.261827972524  -2.307e-07
      7      -17.261827999953  -2.743e-08
      8      -17.261828004499  -4.546e-09
      9      -17.261828005665  -1.165e-09
     10      -17.261828005830  -1.649e-10
     11      -17.261828005859  -2.914e-11
  ----------------------------------------
  The Davidson-Liu algorithm converged in 12 iterations.
  Davidson-Liu procedure took  0.205070 s
  Time spent diagonalizing H:   0.206230 s

    P-space  CI Energy Root   0        = -14.880530567222 Eh =   0.0000 eV

  Time spent forming F space:             0.267153
  Time spent merging thread F spaces:             0.000456
  Time spent preparing PQ_space: 0.000162
  Dimension of the SD space: 772 determinants
  Time spent building the external space (default): 0.267920 s

  Time spent building sorting list: 0.002775
  Time spent sorting: 0.000145
  Time spent selecting: 0.000004
  Dimension of the P + Q space: 308 determinants
  Time spent screening the model space: 0.002957 s
  Time spent building the model space: 0.270962
  Spin-complete dimension of the PQ space: 308

  ==> Computing Coupling Lists <==
  --------------------------------
        α          0.000597 s
        β          0.000562 s
        αα         0.000304 s
        ββ         0.000298 s
        αβ         0.000576 s
  --------------------------------

  Davidson-Liu solver algorithm
  Using SPARSE sigma builder
  Initial guess space is incomplete!
  Trying to add 1 determinant(s).  1 determinant(s) added.
  Initial guess found 62 solutions with 2S+1 = 1 *
  Initial guess found 39 solutions with 2S+1 = 3  
  Adding guess 0 (multiplicity = 1.000000)
  Adding guess 1 (multiplicity = 1.000000)

  ==> Diagonalizing Hamiltonian <==

  ----------------------------------------
    Iter.      Avg. Energy       Delta_E
  ----------------------------------------
      1      -17.259241028520  -1.726e+01
      2      -17.261670998501  -2.430e-03
      3      -17.261811703763  -1.407e-04
      4      -17.261824891403  -1.319e-05
      5      -17.261827741810  -2.850e-06
      6      -17.261827972524  -2.307e-07
      7      -17.261827999953  -2.743e-08
      8      -17.261828004499  -4.546e-09
      9      -17.261828005665  -1.165e-09
     10      -17.261828005830  -1.649e-10
     11      -17.261828005859  -2.914e-11
  ----------------------------------------
  The Davidson-Liu algorithm converged in 12 iterations.
  Davidson-Liu procedure took  0.203935 s
  Total time spent diagonalizing H:   0.205128 s

    PQ-space CI Energy Root   0        = -14.880530567222 Eh =   0.0000 eV
    PQ-space CI Energy + EPT2 Root   0 = -14.880559959975 Eh =   0.0000 eV

  Added 1 missing determinants in aimed selection.

  Most important contributions to root   0:
    0   0.937760 0.879393619         306 |200000000000000000000000000000000000000000000000000000000000000000000000000000000000>
    1  -0.123183 0.015174083         304 |000000000000000000000000000000000000000000000000000000000000000020000000000000000000>
    2  -0.123183 0.015174083         305 |000000000000000000000000000000000000000000000000000000000000000000000000002000000000>
    3  -0.101474 0.010296948         303 |0000000000000000000000000000000000000000000000000000000000000000+-000000000000000000>
    4  -0.101474 0.010296948         302 |0000000000000000000000000000000000000000000000000000000000000000-+000000000000000000>
    5  -0.101474 0.010296948         301 |00000000000000000000000000000000000000000000000000000000000000000000000000+-00000000>
    6  -0.101474 0.010296948         300 |00000000000000000000000000000000000000000000000000000000000000000000000000-+00000000>
    7  -0.084334 0.007112159         299 |000000000000000000000000000000000000000000000000000000000000000002000000000000000000>
    8  -0.084334 0.007112159         298 |000000000000000000000000000000000000000000000000000000000000000000000000000200000000>
    9  -0.045175 0.002040753         297 |000000000000000000000000000000000000000000000020000000000000000000000000000000000000>

  Spin state for root 0: S^2 = 0.000000, S = 0.000, singlet
  Cycle 4 took: 0.695322 s

  ==> Cycle 5 <==

  Initial P space dimension: 298
  Spin-complete dimension of the P space: 298 determinants

  ==> Computing Coupling Lists <==
  --------------------------------
        α          0.000531 s
        β          0.000609 s
        αα         0.000296 s
        ββ         0.000289 s
        αβ         0.000556 s
  --------------------------------

  Davidson-Liu solver algorithm
  Using SPARSE sigma builder
  Initial guess space is incomplete!
  Trying to add 1 determinant(s).  1 determinant(s) added.
  Initial guess found 61 solutions with 2S+1 = 1 *
  Initial guess found 40 solutions with 2S+1 = 3  
  Adding guess 0 (multiplicity = 1.000000)
  Adding guess 1 (multiplicity = 1.000000)

  ==> Diagonalizing Hamiltonian <==

  ----------------------------------------
    Iter.      Avg. Energy       Delta_E
  ----------------------------------------
      1      -17.259290300201  -1.726e+01
      2      -17.261670546104  -2.380e-03
      3      -17.261806824690  -1.363e-04
      4      -17.261819825510  -1.300e-05
      5      -17.261822648096  -2.823e-06
      6      -17.261822886259  -2.382e-07
      7      -17.261822916100  -2.984e-08
      8      -17.261822921210  -5.110e-09
      9      -17.261822922579  -1.369e-09
     10      -17.261822922783  -2.040e-10
     11      -17.261822922820  -3.669e-11
  ----------------------------------------
  The Davidson-Liu algorithm converged in 12 iterations.
  Davidson-Liu procedure took  0.199600 s
  Time spent diagonalizing H:   0.200728 s

    P-space  CI Energy Root   0        = -14.880525484183 Eh =   0.0000 eV

  Time spent forming F space:             0.259406
  Time spent merging thread F spaces:             0.000457
  Time spent preparing PQ_space: 0.000153
  Dimension of the SD space: 782 determinants
  Time spent building the external space (default): 0.260163 s

  Time spent building sorting list: 0.002791
  Time spent sorting: 0.000150
  Time spent selecting: 0.000005
  Dimension of the P + Q space: 298 determinants
  Time spent screening the model space: 0.002978 s
  Time spent building the model space: 0.263227
  Spin-complete dimension of the PQ space: 298

  ==> Computing Coupling Lists <==
  --------------------------------
        α          0.000533 s
        β          0.000543 s
        αα         0.000295 s
        ββ         0.000288 s
        αβ         0.000621 s
  --------------------------------

  Davidson-Liu solver algorithm
  Using SPARSE sigma builder
  Initial guess space is incomplete!
  Trying to add 1 determinant(s).  1 determinant(s) added.
  Initial guess found 61 solutions with 2S+1 = 1 *
  Initial guess found 40 solutions with 2S+1 = 3  
  Adding guess 0 (multiplicity = 1.000000)
  Adding guess 1 (multiplicity = 1.000000)

  ==> Diagonalizing Hamiltonian <==

  ----------------------------------------
    Iter.      Avg. Energy       Delta_E
  ----------------------------------------
      1      -17.259290300201  -1.726e+01
      2      -17.261670546104  -2.380e-03
      3      -17.261806824690  -1.363e-04
      4      -17.261819825510  -1.300e-05
      5      -17.261822648096  -2.823e-06
      6      -17.261822886259  -2.382e-07
      7      -17.261822916100  -2.984e-08
      8      -17.261822921210  -5.110e-09
      9      -17.261822922579  -1.369e-09
     10      -17.261822922783  -2.040e-10
     11      -17.261822922820  -3.669e-11
  ----------------------------------------
  The Davidson-Liu algorithm converged in 12 iterations.
  Davidson-Liu procedure took  0.201753 s
  Total time spent diagonalizing H:   0.202957 s

    PQ-space CI Energy Root   0        = -14.880525484183 Eh =   0.0000 eV
    PQ-space CI Energy + EPT2 Root   0 = -14.880559896290 Eh =   0.0000 eV


  Most important contributions to root   0:
    0   0.937747 0.879369715         296 |200000000000000000000000000000000000000000000000000000000000000000000000000000000000>
    1  -0.123214 0.015181591         295 |000000000000000000000000000000000000000000000000000000000000000020000000000000000000>
    2  -0.123214 0.015181591         294 |000000000000000000000000000000000000000000000000000000000000000000000000002000000000>
    3  -0.101474 0.010296936         293 |0000000000000000000000000000000000000000000000000000000000000000+-000000000000000000>
    4  -0.101474 0.010296936         292 |0000000000000000000000000000000000000000000000000000000000000000-+000000000000000000>
    5  -0.101474 0.010296936         291 |00000000000000000000000000000000000000000000000000000000000000000000000000+-00000000>
    6  -0.101474 0.010296936         290 |00000000000000000000000000000000000000000000000000000000000000000000000000-+00000000>
    7  -0.084339 0.007113136         289 |000000000000000000000000000000000000000000000000000000000000000002000000000000000000>
    8  -0.084339 0.007113136         288 |000000000000000000000000000000000000000000000000000000000000000000000000000200000000>
    9  -0.045216 0.002044477         287 |000000000000000000000000000000000000000000000020000000000000000000000000000000000000>

  Spin state for root 0: S^2 = 0.000000, S = 0.000, singlet
  Cycle 5 took: 0.679547 s

  ==> Cycle 6 <==

  Initial P space dimension: 290
  Spin-complete dimension of the P space: 290 determinants

  ==> Computing Coupling Lists <==
  --------------------------------
        α          0.000518 s
        β          0.000529 s
        αα         0.000286 s
        ββ         0.000280 s
        αβ         0.000546 s
  --------------------------------

  Davidson-Liu solver algorithm
  Using SPARSE sigma builder
  Initial guess space is incomplete!
  Trying to add 1 determinant(s).  1 determinant(s) added.
  Initial guess found 61 solutions with 2S+1 = 1 *
  Initial guess found 40 solutions with 2S+1 = 3  
  Adding guess 0 (multiplicity = 1.000000)
  Adding guess 1 (multiplicity = 1.000000)

  ==> Diagonalizing Hamiltonian <==

  ----------------------------------------
    Iter.      Avg. Energy       Delta_E
  ----------------------------------------
      1      -17.259290300201  -1.726e+01
      2      -17.261664550950  -2.374e-03
      3      -17.261799434595  -1.349e-04
      4      -17.261812090613  -1.266e-05
      5      -17.261814835875  -2.745e-06
      6      -17.261815066006  -2.301e-07
      7      -17.261815094762  -2.876e-08
      8      -17.261815099682  -4.920e-09
      9      -17.261815101002  -1.320e-09
     10      -17.261815101199  -1.969e-10
     11      -17.261815101235  -3.529e-11
  ----------------------------------------
  The Davidson-Liu algorithm converged in 12 iterations.
  Davidson-Liu procedure took  0.198425 s
  Time spent diagonalizing H:   0.199562 s

    P-space  CI Energy Root   0        = -14.880517662598 Eh =   0.0000 eV

  Time spent forming F space:             0.253746
  Time spent merging thread F spaces:             0.000458
  Time spent preparing PQ_space: 0.000151
  Dimension of the SD space: 790 determinants
  Time spent building the external space (default): 0.254505 s

  Time spent building sorting list: 0.002938
  Time spent sorting: 0.000148
  Time spent selecting: 0.000005
  Dimension of the P + Q space: 290 determinants
  Time spent screening the model space: 0.003133 s
  Time spent building the model space: 0.257727
  Spin-complete dimension of the PQ space: 290

  ==> Computing Coupling Lists <==
  --------------------------------
        α          0.000518 s
        β          0.000530 s
        αα         0.000287 s
        ββ         0.000280 s
        αβ         0.000544 s
  --------------------------------

  Davidson-Liu solver algorithm
  Using SPARSE sigma builder
  Initial guess space is incomplete!
  Trying to add 1 determinant(s).  1 determinant(s) added.
  Initial guess found 61 solutions with 2S+1 = 1 *
  Initial guess found 40 solutions with 2S+1 = 3  
  Adding guess 0 (multiplicity = 1.000000)
  Adding guess 1 (multiplicity = 1.000000)

  ==> Diagonalizing Hamiltonian <==

  ----------------------------------------
    Iter.      Avg. Energy       Delta_E
  ----------------------------------------
      1      -17.259290300201  -1.726e+01
      2      -17.261664550950  -2.374e-03
      3      -17.261799434595  -1.349e-04
      4      -17.261812090613  -1.266e-05
      5      -17.261814835875  -2.745e-06
      6      -17.261815066006  -2.301e-07
      7      -17.261815094762  -2.876e-08
      8      -17.261815099682  -4.920e-09
      9      -17.261815101002  -1.320e-09
     10      -17.261815101199  -1.969e-10
     11      -17.261815101235  -3.529e-11
  ----------------------------------------
  The Davidson-Liu algorithm converged in 12 iterations.
  Davidson-Liu procedure took  0.197656 s
  Total time spent diagonalizing H:   0.198786 s

    PQ-space CI Energy Root   0        = -14.880517662598 Eh =   0.0000 eV
    PQ-space CI Energy + EPT2 Root   0 = -14.880559831390 Eh =   0.0000 eV

  Added 1 missing determinants in aimed selection.

  Most important contributions to root   0:
    0   0.937725 0.879327632         289 |200000000000000000000000000000000000000000000000000000000000000000000000000000000000>
    1  -0.123232 0.015186083         287 |000000000000000000000000000000000000000000000000000000000000000000000000002000000000>
    2  -0.123232 0.015186083         288 |000000000000000000000000000000000000000000000000000000000000000020000000000000000000>
    3  -0.101490 0.010300252         284 |00000000000000000000000000000000000000000000000000000000000000000000000000+-00000000>
    4  -0.101490 0.010300252         283 |00000000000000000000000000000000000000000000000000000000000000000000000000-+00000000>
    5  -0.101490 0.010300252         286 |0000000000000000000000000000000000000000000000000000000000000000+-000000000000000000>
    6  -0.101490 0.010300252         285 |0000000000000000000000000000000000000000000000000000000000000000-+000000000000000000>
    7  -0.084355 0.007115822         282 |000000000000000000000000000000000000000000000000000000000000000002000000000000000000>
    8  -0.084355 0.007115822         281 |000000000000000000000000000000000000000000000000000000000000000000000000000200000000>
    9  -0.045230 0.002045775         280 |000000000000000000000000000000000000000000000020000000000000000000000000000000000000>

  Spin state for root 0: S^2 = 0.000000, S = 0.000, singlet
  Cycle 6 took: 0.667785 s

  ==> Cycle 7 <==

  Initial P space dimension: 284
  Spin-complete dimension of the P space: 284 determinants

  ==> Computing Coupling Lists <==
  --------------------------------
        α          0.000506 s
        β          0.000518 s
        αα         0.000280 s
        ββ         0.000275 s
        αβ         0.000534 s
  --------------------------------

  Davidson-Liu solver algorithm
  Using SPARSE sigma builder
  Initial guess space is incomplete!
  Trying to add 1 determinant(s).  1 determinant(s) added.
  Initial guess found 61 solutions with 2S+1 = 1 *
  Initial guess found 40 solutions with 2S+1 = 3  
  Adding guess 0 (multiplicity = 1.000000)
  Adding guess 1 (multiplicity = 1.000000)

  ==> Diagonalizing Hamiltonian <==

  ----------------------------------------
    Iter.      Avg. Energy       Delta_E
  ----------------------------------------
      1      -17.259290300201  -1.726e+01
      2      -17.261661985983  -2.372e-03
      3      -17.261796545474  -1.346e-04
      4      -17.261809179827  -1.263e-05
      5      -17.261811922409  -2.743e-06
      6      -17.261812151985  -2.296e-07
      7      -17.261812180639  -2.865e-08
      8      -17.261812185544  -4.906e-09
      9      -17.261812186863  -1.318e-09
     10      -17.261812187059  -1.964e-10
     11      -17.261812187094  -3.515e-11
  ----------------------------------------
  The Davidson-Liu algorithm converged in 12 iterations.
  Davidson-Liu procedure took  0.195514 s
  Time spent diagonalizing H:   0.196646 s

    P-space  CI Energy Root   0        = -14.880514748457 Eh =   0.0000 eV

  Time spent forming F space:             0.252248
  Time spent merging thread F spaces:             0.000471
  Time spent preparing PQ_space: 0.000153
  Dimension of the SD space: 796 determinants
  Time spent building the external space (default): 0.253019 s

  Time spent building sorting list: 0.002867
  Time spent sorting: 0.000156
  Time spent selecting: 0.000005
  Dimension of the P + Q space: 284 determinants
  Time spent screening the model space: 0.003070 s
  Time spent building the model space: 0.256177
  Spin-complete dimension of the PQ space: 284

  ==> Computing Coupling Lists <==
  --------------------------------
        α          0.000507 s
        β          0.000518 s
        αα         0.000280 s
        ββ         0.000275 s
        αβ         0.000534 s
  --------------------------------

  Davidson-Liu solver algorithm
  Using SPARSE sigma builder
  Initial guess space is incomplete!
  Trying to add 1 determinant(s).  1 determinant(s) added.
  Initial guess found 61 solutions with 2S+1 = 1 *
  Initial guess found 40 solutions with 2S+1 = 3  
  Adding guess 0 (multiplicity = 1.000000)
  Adding guess 1 (multiplicity = 1.000000)

  ==> Diagonalizing Hamiltonian <==

  ----------------------------------------
    Iter.      Avg. Energy       Delta_E
  ----------------------------------------
      1      -17.259290300201  -1.726e+01
      2      -17.261661985983  -2.372e-03
      3      -17.261796545474  -1.346e-04
      4      -17.261809179827  -1.263e-05
      5      -17.261811922409  -2.743e-06
      6      -17.261812151985  -2.296e-07
      7      -17.261812180639  -2.865e-08
      8      -17.261812185544  -4.906e-09
      9      -17.261812186863  -1.318e-09
     10      -17.261812187059  -1.964e-10
     11      -17.261812187094  -3.515e-11
  ----------------------------------------
  The Davidson-Liu algorithm converged in 12 iterations.
  Davidson-Liu procedure took  0.195091 s
  Total time spent diagonalizing H:   0.196198 s

    PQ-space CI Energy Root   0        = -14.880514748457 Eh =   0.0000 eV
    PQ-space CI Energy + EPT2 Root   0 = -14.880559871768 Eh =   0.0000 eV

  Added 3 missing determinants in aimed selection.

  Most important contributions to root   0:
    0   0.937724 0.879325818         282 |200000000000000000000000000000000000000000000000000000000000000000000000000000000000>
    1  -0.123233 0.015186468         281 |000000000000000000000000000000000000000000000000000000000000000000000000002000000000>
    2  -0.123233 0.015186468         280 |000000000000000000000000000000000000000000000000000000000000000020000000000000000000>
    3  -0.101497 0.010301550         277 |0000000000000000000000000000000000000000000000000000000000000000+-000000000000000000>
    4  -0.101497 0.010301550         276 |0000000000000000000000000000000000000000000000000000000000000000-+000000000000000000>
    5  -0.101497 0.010301550         279 |00000000000000000000000000000000000000000000000000000000000000000000000000+-00000000>
    6  -0.101497 0.010301550         278 |00000000000000000000000000000000000000000000000000000000000000000000000000-+00000000>
    7  -0.084355 0.007115769         275 |000000000000000000000000000000000000000000000000000000000000000002000000000000000000>
    8  -0.084355 0.007115769         274 |000000000000000000000000000000000000000000000000000000000000000000000000000200000000>
    9  -0.045237 0.002046400         273 |000000000000000000000000000000000000000000000020000000000000000000000000000000000000>

  Spin state for root 0: S^2 = 0.000000, S = 0.000, singlet
  Cycle 7 took: 0.660887 s

  ==> Cycle 8 <==

  Initial P space dimension: 282
  Spin-complete dimension of the P space: 282 determinants

  ==> Computing Coupling Lists <==
  --------------------------------
        α          0.000503 s
        β          0.000515 s
        αα         0.000279 s
        ββ         0.000273 s
        αβ         0.000531 s
  --------------------------------

  Davidson-Liu solver algorithm
  Using SPARSE sigma builder
  Initial guess space is incomplete!
  Trying to add 1 determinant(s).  1 determinant(s) added.
  Initial guess found 61 solutions with 2S+1 = 1 *
  Initial guess found 40 solutions with 2S+1 = 3  
  Adding guess 0 (multiplicity = 1.000000)
  Adding guess 1 (multiplicity = 1.000000)

  ==> Diagonalizing Hamiltonian <==

  ----------------------------------------
    Iter.      Avg. Energy       Delta_E
  ----------------------------------------
      1      -17.259290300201  -1.726e+01
      2      -17.261659529886  -2.369e-03
      3      -17.261794034800  -1.345e-04
      4      -17.261806656005  -1.262e-05
      5      -17.261809395810  -2.740e-06
      6      -17.261809625226  -2.294e-07
      7      -17.261809653858  -2.863e-08
      8      -17.261809658761  -4.903e-09
      9      -17.261809660079  -1.318e-09
     10      -17.261809660275  -1.964e-10
     11      -17.261809660311  -3.512e-11
  ----------------------------------------
  The Davidson-Liu algorithm converged in 12 iterations.
  Davidson-Liu procedure took  0.193094 s
  Time spent diagonalizing H:   0.194161 s

    P-space  CI Energy Root   0        = -14.880512221674 Eh =   0.0000 eV

  Time spent forming F space:             0.246055
  Time spent merging thread F spaces:             0.000462
  Time spent preparing PQ_space: 0.000149
  Dimension of the SD space: 798 determinants
  Time spent building the external space (default): 0.246818 s

  Time spent building sorting list: 0.002806
  Time spent sorting: 0.000153
  Time spent selecting: 0.000005
  Dimension of the P + Q space: 282 determinants
  Time spent screening the model space: 0.002997 s
  Time spent building the model space: 0.249902
  Spin-complete dimension of the PQ space: 282

  ==> Computing Coupling Lists <==
  --------------------------------
        α          0.000506 s
        β          0.000516 s
        αα         0.000335 s
        ββ         0.000297 s
        αβ         0.000658 s
  --------------------------------

  Davidson-Liu solver algorithm
  Using SPARSE sigma builder
  Initial guess space is incomplete!
  Trying to add 1 determinant(s).  1 determinant(s) added.
  Initial guess found 61 solutions with 2S+1 = 1 *
  Initial guess found 40 solutions with 2S+1 = 3  
  Adding guess 0 (multiplicity = 1.000000)
  Adding guess 1 (multiplicity = 1.000000)

  ==> Diagonalizing Hamiltonian <==

  ----------------------------------------
    Iter.      Avg. Energy       Delta_E
  ----------------------------------------
      1      -17.259290300201  -1.726e+01
      2      -17.261659529886  -2.369e-03
      3      -17.261794034800  -1.345e-04
      4      -17.261806656005  -1.262e-05
      5      -17.261809395810  -2.740e-06
      6      -17.261809625226  -2.294e-07
      7      -17.261809653858  -2.863e-08
      8      -17.261809658761  -4.903e-09
      9      -17.261809660079  -1.318e-09
     10      -17.261809660275  -1.964e-10
     11      -17.261809660311  -3.512e-11
  ----------------------------------------
  The Davidson-Liu algorithm converged in 12 iterations.
  Davidson-Liu procedure took  0.192846 s
  Total time spent diagonalizing H:   0.194023 s

    PQ-space CI Energy Root   0        = -14.880512221674 Eh =   0.0000 eV
    PQ-space CI Energy + EPT2 Root   0 = -14.880559891819 Eh =   0.0000 eV

  Added 1 missing determinants in aimed selection.

  Most important contributions to root   0:
    0   0.937719 0.879316586         278 |200000000000000000000000000000000000000000000000000000000000000000000000000000000000>
    1  -0.123237 0.015187369         276 |000000000000000000000000000000000000000000000000000000000000000020000000000000000000>
    2  -0.123237 0.015187369         277 |000000000000000000000000000000000000000000000000000000000000000000000000002000000000>
    3  -0.101500 0.010302261         275 |0000000000000000000000000000000000000000000000000000000000000000+-000000000000000000>
    4  -0.101500 0.010302261         274 |0000000000000000000000000000000000000000000000000000000000000000-+000000000000000000>
    5  -0.101500 0.010302261         273 |00000000000000000000000000000000000000000000000000000000000000000000000000+-00000000>
    6  -0.101500 0.010302261         272 |00000000000000000000000000000000000000000000000000000000000000000000000000-+00000000>
    7  -0.084358 0.007116346         271 |000000000000000000000000000000000000000000000000000000000000000002000000000000000000>
    8  -0.084358 0.007116346         270 |000000000000000000000000000000000000000000000000000000000000000000000000000200000000>
    9  -0.045238 0.002046461         269 |000000000000000000000000000000000000000000000020000000000000000000000000000000000000>

  Spin state for root 0: S^2 = 0.000000, S = 0.000, singlet
  Cycle 8 took: 0.650064 s

  ==> Cycle 9 <==

  Initial P space dimension: 278
  Spin-complete dimension of the P space: 278 determinants

  ==> Computing Coupling Lists <==
  --------------------------------
        α          0.000499 s
        β          0.000509 s
        αα         0.000275 s
        ββ         0.000270 s
        αβ         0.000524 s
  --------------------------------

  Davidson-Liu solver algorithm
  Using SPARSE sigma builder
  Initial guess space is incomplete!
  Trying to add 1 determinant(s).  1 determinant(s) added.
  Initial guess found 61 solutions with 2S+1 = 1 *
  Initial guess found 40 solutions with 2S+1 = 3  
  Adding guess 0 (multiplicity = 1.000000)
  Adding guess 1 (multiplicity = 1.000000)

  ==> Diagonalizing Hamiltonian <==

  ----------------------------------------
    Iter.      Avg. Energy       Delta_E
  ----------------------------------------
      1      -17.259290300201  -1.726e+01
      2      -17.261658149203  -2.368e-03
      3      -17.261792328824  -1.342e-04
      4      -17.261804823457  -1.249e-05
      5      -17.261807533313  -2.710e-06
      6      -17.261807760161  -2.268e-07
      7      -17.261807788246  -2.808e-08
      8      -17.261807793079  -4.833e-09
      9      -17.261807794380  -1.302e-09
     10      -17.261807794574  -1.939e-10
     11      -17.261807794609  -3.441e-11
  ----------------------------------------
  The Davidson-Liu algorithm converged in 12 iterations.
  Davidson-Liu procedure took  0.192412 s
  Time spent diagonalizing H:   0.193462 s

    P-space  CI Energy Root   0        = -14.880510355972 Eh =   0.0000 eV

  Time spent forming F space:             0.243742
  Time spent merging thread F spaces:             0.000456
  Time spent preparing PQ_space: 0.000148
  Dimension of the SD space: 802 determinants
  Time spent building the external space (default): 0.244484 s

  Time spent building sorting list: 0.002879
  Time spent sorting: 0.000153
  Time spent selecting: 0.000005
  Dimension of the P + Q space: 278 determinants
  Time spent screening the model space: 0.003073 s
  Time spent building the model space: 0.247645
  Spin-complete dimension of the PQ space: 278

  ==> Computing Coupling Lists <==
  --------------------------------
        α          0.000514 s
        β          0.000507 s
        αα         0.000275 s
        ββ         0.000270 s
        αβ         0.000524 s
  --------------------------------

  Davidson-Liu solver algorithm
  Using SPARSE sigma builder
  Initial guess space is incomplete!
  Trying to add 1 determinant(s).  1 determinant(s) added.
  Initial guess found 61 solutions with 2S+1 = 1 *
  Initial guess found 40 solutions with 2S+1 = 3  
  Adding guess 0 (multiplicity = 1.000000)
  Adding guess 1 (multiplicity = 1.000000)

  ==> Diagonalizing Hamiltonian <==

  ----------------------------------------
    Iter.      Avg. Energy       Delta_E
  ----------------------------------------
      1      -17.259290300201  -1.726e+01
      2      -17.261658149203  -2.368e-03
      3      -17.261792328824  -1.342e-04
      4      -17.261804823457  -1.249e-05
      5      -17.261807533313  -2.710e-06
      6      -17.261807760161  -2.268e-07
      7      -17.261807788246  -2.808e-08
      8      -17.261807793079  -4.833e-09
      9      -17.261807794380  -1.302e-09
     10      -17.261807794574  -1.939e-10
     11      -17.261807794609  -3.441e-11
  ----------------------------------------
  The Davidson-Liu algorithm converged in 12 iterations.
  Davidson-Liu procedure took  0.192284 s
  Total time spent diagonalizing H:   0.193363 s

    PQ-space CI Energy Root   0        = -14.880510355972 Eh =   0.0000 eV
    PQ-space CI Energy + EPT2 Root   0 = -14.880559870151 Eh =   0.0000 eV


  Most important contributions to root   0:
    0   0.937699 0.879280302         276 |200000000000000000000000000000000000000000000000000000000000000000000000000000000000>
    1  -0.123257 0.015192304         274 |000000000000000000000000000000000000000000000000000000000000000000000000002000000000>
    2  -0.123257 0.015192304         275 |000000000000000000000000000000000000000000000000000000000000000020000000000000000000>
    3  -0.101521 0.010306425         273 |0000000000000000000000000000000000000000000000000000000000000000+-000000000000000000>
    4  -0.101521 0.010306425         272 |0000000000000000000000000000000000000000000000000000000000000000-+000000000000000000>
    5  -0.101521 0.010306425         271 |00000000000000000000000000000000000000000000000000000000000000000000000000+-00000000>
    6  -0.101521 0.010306425         270 |00000000000000000000000000000000000000000000000000000000000000000000000000-+00000000>
    7  -0.084377 0.007119414         269 |000000000000000000000000000000000000000000000000000000000000000002000000000000000000>
    8  -0.084377 0.007119414         268 |000000000000000000000000000000000000000000000000000000000000000000000000000200000000>
    9  -0.045235 0.002046164         267 |000000000000000000000000000000000000000000000020000000000000000000000000000000000000>

  Spin state for root 0: S^2 = 0.000000, S = 0.000, singlet
  Cycle 9 took: 0.645962 s

  ==> Cycle 10 <==

  Initial P space dimension: 274
  Spin-complete dimension of the P space: 274 determinants

  ==> Computing Coupling Lists <==
  --------------------------------
        α          0.000492 s
        β          0.000503 s
        αα         0.000271 s
        ββ         0.000266 s
        αβ         0.000518 s
  --------------------------------

  Davidson-Liu solver algorithm
  Using SPARSE sigma builder
  Initial guess space is incomplete!
  Trying to add 1 determinant(s).  1 determinant(s) added.
  Initial guess found 61 solutions with 2S+1 = 1 *
  Initial guess found 40 solutions with 2S+1 = 3  
  Adding guess 0 (multiplicity = 1.000000)
  Adding guess 1 (multiplicity = 1.000000)

  ==> Diagonalizing Hamiltonian <==

  ----------------------------------------
    Iter.      Avg. Energy       Delta_E
  ----------------------------------------
      1      -17.259290300201  -1.726e+01
      2      -17.261656643479  -2.366e-03
      3      -17.261788990114  -1.323e-04
      4      -17.261801116945  -1.213e-05
      5      -17.261803725815  -2.609e-06
      6      -17.261803942563  -2.167e-07
      7      -17.261803969355  -2.679e-08
      8      -17.261803973951  -4.596e-09
      9      -17.261803975186  -1.235e-09
     10      -17.261803975370  -1.845e-10
     11      -17.261803975403  -3.264e-11
  ----------------------------------------
  The Davidson-Liu algorithm converged in 12 iterations.
  Davidson-Liu procedure took  0.194533 s
  Time spent diagonalizing H:   0.195575 s

    P-space  CI Energy Root   0        = -14.880506536766 Eh =   0.0000 eV

  Time spent forming F space:             0.242955
  Time spent merging thread F spaces:             0.000465
  Time spent preparing PQ_space: 0.000163
  Dimension of the SD space: 806 determinants
  Time spent building the external space (default): 0.243755 s

  Time spent building sorting list: 0.002979
  Time spent sorting: 0.000154
  Time spent selecting: 0.000005
  Dimension of the P + Q space: 274 determinants
  Time spent screening the model space: 0.003171 s
  Time spent building the model space: 0.247013
  Spin-complete dimension of the PQ space: 274

  ==> Computing Coupling Lists <==
  --------------------------------
        α          0.000490 s
        β          0.000503 s
        αα         0.000271 s
        ββ         0.000266 s
        αβ         0.000516 s
  --------------------------------

  Davidson-Liu solver algorithm
  Using SPARSE sigma builder
  Initial guess space is incomplete!
  Trying to add 1 determinant(s).  1 determinant(s) added.
  Initial guess found 61 solutions with 2S+1 = 1 *
  Initial guess found 40 solutions with 2S+1 = 3  
  Adding guess 0 (multiplicity = 1.000000)
  Adding guess 1 (multiplicity = 1.000000)

  ==> Diagonalizing Hamiltonian <==

  ----------------------------------------
    Iter.      Avg. Energy       Delta_E
  ----------------------------------------
      1      -17.259290300201  -1.726e+01
      2      -17.261656643479  -2.366e-03
      3      -17.261788990114  -1.323e-04
      4      -17.261801116945  -1.213e-05
      5      -17.261803725815  -2.609e-06
      6      -17.261803942563  -2.167e-07
      7      -17.261803969355  -2.679e-08
      8      -17.261803973951  -4.596e-09
      9      -17.261803975186  -1.235e-09
     10      -17.261803975370  -1.845e-10
     11      -17.261803975403  -3.264e-11
  ----------------------------------------
  The Davidson-Liu algorithm converged in 12 iterations.
  Davidson-Liu procedure took  0.191833 s
  Total time spent diagonalizing H:   0.192975 s

    PQ-space CI Energy Root   0        = -14.880506536766 Eh =   0.0000 eV
    PQ-space CI Energy + EPT2 Root   0 = -14.880559956192 Eh =   0.0000 eV


  Most important contributions to root   0:
    0   0.937655 0.879196655         273 |200000000000000000000000000000000000000000000000000000000000000000000000000000000000>
    1  -0.123292 0.015200925         271 |000000000000000000000000000000000000000000000000000000000000000020000000000000000000>
    2  -0.123292 0.015200925         272 |000000000000000000000000000000000000000000000000000000000000000000000000002000000000>
    3  -0.101557 0.010313842         270 |0000000000000000000000000000000000000000000000000000000000000000+-000000000000000000>
    4  -0.101557 0.010313842         269 |0000000000000000000000000000000000000000000000000000000000000000-+000000000000000000>
    5  -0.101557 0.010313842         268 |00000000000000000000000000000000000000000000000000000000000000000000000000+-00000000>
    6  -0.101557 0.010313842         267 |00000000000000000000000000000000000000000000000000000000000000000000000000-+00000000>
    7  -0.084419 0.007126534         266 |000000000000000000000000000000000000000000000000000000000000000002000000000000000000>
    8  -0.084419 0.007126534         265 |000000000000000000000000000000000000000000000000000000000000000000000000000200000000>
    9  -0.045250 0.002047553         264 |000000000000000000000000000000000000000000000020000000000000000000000000000000000000>

  Spin state for root 0: S^2 = 0.000000, S = 0.000, singlet
  Cycle 10 took: 0.646501 s

  ==> Cycle 11 <==

  Initial P space dimension: 271
  Spin-complete dimension of the P space: 271 determinants

  ==> Computing Coupling Lists <==
  --------------------------------
        α          0.000486 s
        β          0.000496 s
        αα         0.000269 s
        ββ         0.000262 s
        αβ         0.000531 s
  --------------------------------

  Davidson-Liu solver algorithm
  Using SPARSE sigma builder
  Initial guess space is incomplete!
  Trying to add 1 determinant(s).  1 determinant(s) added.
  Initial guess found 61 solutions with 2S+1 = 1 *
  Initial guess found 40 solutions with 2S+1 = 3  
  Adding guess 0 (multiplicity = 1.000000)
  Adding guess 1 (multiplicity = 1.000000)

  ==> Diagonalizing Hamiltonian <==

  ----------------------------------------
    Iter.      Avg. Energy       Delta_E
  ----------------------------------------
      1      -17.259290300201  -1.726e+01
      2      -17.261651717091  -2.361e-03
      3      -17.261783967199  -1.323e-04
      4      -17.261796036873  -1.207e-05
      5      -17.261798631643  -2.595e-06
      6      -17.261798846937  -2.153e-07
      7      -17.261798873531  -2.659e-08
      8      -17.261798878087  -4.557e-09
      9      -17.261798879311  -1.223e-09
     10      -17.261798879493  -1.826e-10
     11      -17.261798879525  -3.230e-11
  ----------------------------------------
  The Davidson-Liu algorithm converged in 12 iterations.
  Davidson-Liu procedure took  0.188665 s
  Time spent diagonalizing H:   0.189714 s

    P-space  CI Energy Root   0        = -14.880501440889 Eh =   0.0000 eV

  Time spent forming F space:             0.235934
  Time spent merging thread F spaces:             0.000456
  Time spent preparing PQ_space: 0.000145
  Dimension of the SD space: 809 determinants
  Time spent building the external space (default): 0.236681 s

  Time spent building sorting list: 0.002851
  Time spent sorting: 0.000158
  Time spent selecting: 0.000005
  Dimension of the P + Q space: 271 determinants
  Time spent screening the model space: 0.003046 s
  Time spent building the model space: 0.239814
  Spin-complete dimension of the PQ space: 271

  ==> Computing Coupling Lists <==
  --------------------------------
        α          0.000486 s
        β          0.000496 s
        αα         0.000269 s
        ββ         0.000263 s
        αβ         0.000512 s
  --------------------------------

  Davidson-Liu solver algorithm
  Using SPARSE sigma builder
  Initial guess space is incomplete!
  Trying to add 1 determinant(s).  1 determinant(s) added.
  Initial guess found 61 solutions with 2S+1 = 1 *
  Initial guess found 40 solutions with 2S+1 = 3  
  Adding guess 0 (multiplicity = 1.000000)
  Adding guess 1 (multiplicity = 1.000000)

  ==> Diagonalizing Hamiltonian <==

  ----------------------------------------
    Iter.      Avg. Energy       Delta_E
  ----------------------------------------
      1      -17.259290300201  -1.726e+01
      2      -17.261651717091  -2.361e-03
      3      -17.261783967199  -1.323e-04
      4      -17.261796036873  -1.207e-05
      5      -17.261798631643  -2.595e-06
      6      -17.261798846937  -2.153e-07
      7      -17.261798873531  -2.659e-08
      8      -17.261798878087  -4.557e-09
      9      -17.261798879311  -1.223e-09
     10      -17.261798879493  -1.826e-10
     11      -17.261798879525  -3.230e-11
  ----------------------------------------
  The Davidson-Liu algorithm converged in 12 iterations.
  Davidson-Liu procedure took  0.189046 s
  Total time spent diagonalizing H:   0.190099 s

    PQ-space CI Energy Root   0        = -14.880501440889 Eh =   0.0000 eV
    PQ-space CI Energy + EPT2 Root   0 = -14.880559935217 Eh =   0.0000 eV

  Added 2 missing determinants in aimed selection.

  Most important contributions to root   0:
    0   0.937643 0.879174271         270 |200000000000000000000000000000000000000000000000000000000000000000000000000000000000>
    1  -0.123303 0.015203641         268 |000000000000000000000000000000000000000000000000000000000000000000000000002000000000>
    2  -0.123303 0.015203641         269 |000000000000000000000000000000000000000000000000000000000000000020000000000000000000>
    3  -0.101566 0.010315592         267 |0000000000000000000000000000000000000000000000000000000000000000+-000000000000000000>
    4  -0.101566 0.010315592         266 |0000000000000000000000000000000000000000000000000000000000000000-+000000000000000000>
    5  -0.101566 0.010315592         265 |00000000000000000000000000000000000000000000000000000000000000000000000000+-00000000>
    6  -0.101566 0.010315592         264 |00000000000000000000000000000000000000000000000000000000000000000000000000-+00000000>
    7  -0.084428 0.007128045         263 |000000000000000000000000000000000000000000000000000000000000000002000000000000000000>
    8  -0.084428 0.007128045         262 |000000000000000000000000000000000000000000000000000000000000000000000000000200000000>
    9  -0.045260 0.002048506         261 |000000000000000000000000000000000000000000000020000000000000000000000000000000000000>

  Spin state for root 0: S^2 = 0.000000, S = 0.000, singlet
  Cycle 11 took: 0.630352 s

  ==> Cycle 12 <==

  Initial P space dimension: 270
  Spin-complete dimension of the P space: 271 determinants

  ==> Computing Coupling Lists <==
  --------------------------------
        α          0.000489 s
        β          0.000498 s
        αα         0.000269 s
        ββ         0.000263 s
        αβ         0.000512 s
  --------------------------------

  Davidson-Liu solver algorithm
  Using SPARSE sigma builder
  Initial guess space is incomplete!
  Trying to add 1 determinant(s).  1 determinant(s) added.
  Initial guess found 61 solutions with 2S+1 = 1 *
  Initial guess found 40 solutions with 2S+1 = 3  
  Adding guess 0 (multiplicity = 1.000000)
  Adding guess 1 (multiplicity = 1.000000)

  ==> Diagonalizing Hamiltonian <==

  ----------------------------------------
    Iter.      Avg. Energy       Delta_E
  ----------------------------------------
      1      -17.259290300201  -1.726e+01
      2      -17.261651717091  -2.361e-03
      3      -17.261783967199  -1.323e-04
      4      -17.261796036873  -1.207e-05
      5      -17.261798631643  -2.595e-06
      6      -17.261798846937  -2.153e-07
      7      -17.261798873531  -2.659e-08
      8      -17.261798878087  -4.557e-09
      9      -17.261798879311  -1.223e-09
     10      -17.261798879493  -1.826e-10
     11      -17.261798879525  -3.228e-11
  ----------------------------------------
  The Davidson-Liu algorithm converged in 12 iterations.
  Davidson-Liu procedure took  0.189124 s
  Time spent diagonalizing H:   0.190152 s

    P-space  CI Energy Root   0        = -14.880501440889 Eh =   0.0000 eV

  Time spent forming F space:             0.237547
  Time spent merging thread F spaces:             0.000459
  Time spent preparing PQ_space: 0.000147
  Dimension of the SD space: 809 determinants
  Time spent building the external space (default): 0.238310 s

  Time spent building sorting list: 0.002850
  Time spent sorting: 0.000157
  Time spent selecting: 0.000005
  Dimension of the P + Q space: 271 determinants
  Time spent screening the model space: 0.003044 s
  Time spent building the model space: 0.241441
  Spin-complete dimension of the PQ space: 271

  ==> Computing Coupling Lists <==
  --------------------------------
        α          0.000487 s
        β          0.000499 s
        αα         0.000291 s
        ββ         0.000302 s
        αβ         0.000512 s
  --------------------------------

  Davidson-Liu solver algorithm
  Using SPARSE sigma builder
  Initial guess space is incomplete!
  Trying to add 1 determinant(s).  1 determinant(s) added.
  Initial guess found 61 solutions with 2S+1 = 1 *
  Initial guess found 40 solutions with 2S+1 = 3  
  Adding guess 0 (multiplicity = 1.000000)
  Adding guess 1 (multiplicity = 1.000000)

  ==> Diagonalizing Hamiltonian <==

  ----------------------------------------
    Iter.      Avg. Energy       Delta_E
  ----------------------------------------
      1      -17.259290300201  -1.726e+01
      2      -17.261651717091  -2.361e-03
      3      -17.261783967199  -1.323e-04
      4      -17.261796036873  -1.207e-05
      5      -17.261798631643  -2.595e-06
      6      -17.261798846937  -2.153e-07
      7      -17.261798873531  -2.659e-08
      8      -17.261798878087  -4.557e-09
      9      -17.261798879311  -1.223e-09
     10      -17.261798879493  -1.826e-10
     11      -17.261798879525  -3.228e-11
  ----------------------------------------
  The Davidson-Liu algorithm converged in 12 iterations.
  Davidson-Liu procedure took  0.189068 s
  Total time spent diagonalizing H:   0.190126 s

    PQ-space CI Energy Root   0        = -14.880501440889 Eh =   0.0000 eV
    PQ-space CI Energy + EPT2 Root   0 = -14.880559935217 Eh =   0.0000 eV

  ***** Calculation Converged *****

  ==> Excited state solver summary <==

  Iterations required:                         12
  Dimension of optimized determinant space:    271

  * Selected-CI Energy Root   0        = -14.880501440889 Eh =   0.0000 eV
  * Selected-CI Energy Root   0 + EPT2 = -14.880559935217 Eh =   0.0000 eV

  ==> Wavefunction Information <==

  Most important contributions to root   0:
    0   0.937643 0.879174271         267 |200000000000000000000000000000000000000000000000000000000000000000000000000000000000>
    1  -0.123303 0.015203641         266 |000000000000000000000000000000000000000000000000000000000000000000000000002000000000>
    2  -0.123303 0.015203641         265 |000000000000000000000000000000000000000000000000000000000000000020000000000000000000>
    3  -0.101566 0.010315592         264 |0000000000000000000000000000000000000000000000000000000000000000+-000000000000000000>
    4  -0.101566 0.010315592         263 |0000000000000000000000000000000000000000000000000000000000000000-+000000000000000000>
    5  -0.101566 0.010315592         262 |00000000000000000000000000000000000000000000000000000000000000000000000000+-00000000>
    6  -0.101566 0.010315592         261 |00000000000000000000000000000000000000000000000000000000000000000000000000-+00000000>
    7  -0.084428 0.007128045         260 |000000000000000000000000000000000000000000000000000000000000000002000000000000000000>
    8  -0.084428 0.007128045         259 |000000000000000000000000000000000000000000000000000000000000000000000000000200000000>
    9  -0.045260 0.002048506         258 |000000000000000000000000000000000000000000000020000000000000000000000000000000000000>

  Spin state for root 0: S^2 = 0.000000, S = 0.000, singlet

  Saving information for root: 0

  ==> Energy Summary <==

    Multi.  Irrep.  No.               Energy
    -----------------------------------------
       1      Ag     0       -14.880501440889
    -----------------------------------------    ACI energy........................................................PASSED
    ACI+PT2 energy....................................................PASSED

    Psi4 stopped on: Sunday, 19 January 2020 02:45PM
    Psi4 wall time for execution: 0:00:51.97

*** Psi4 exiting successfully. Buy a developer a beer!
