
    -----------------------------------------------------------------------
          Psi4: An Open-Source Ab Initio Electronic Structure Package
                               Psi4 1.2a1.dev939 

                         Git: Rev {master} b05c0bb 


    R. M. Parrish, L. A. Burns, D. G. A. Smith, A. C. Simmonett,
    A. E. DePrince III, E. G. Hohenstein, U. Bozkaya, A. Yu. Sokolov,
    R. Di Remigio, R. M. Richard, J. F. Gonthier, A. M. James,
    H. R. McAlexander, A. Kumar, M. Saitow, X. Wang, B. P. Pritchard,
    P. Verma, H. F. Schaefer III, K. Patkowski, R. A. King, E. F. Valeev,
    F. A. Evangelista, J. M. Turney, T. D. Crawford, and C. D. Sherrill,
    J. Chem. Theory Comput. 13(7) pp 3185--3197 (2017).
    (doi: 10.1021/acs.jctc.7b00174)

    -----------------------------------------------------------------------


    Psi4 started on: Monday, 02 April 2018 11:08PM

    Process ID:  13297
    PSIDATADIR: /Users/york/src/psi4new/psi4/share/psi4
    Memory:     500.0 MiB
    Threads:    1
    
  ==> Input File <==

--------------------------------------------------------------------------
#! Generated using commit GITCOMMIT
memory 1 gb

import forte

Emcscf_avg    = -106.75288506076240
Ept3_root0    = -106.97920595717900
Ept3_root1    = -106.95836820880668
Ept3xsa_root0 = -106.97830248844411
Ept3xsa_root1 = -106.95912590532137

molecule {
  0 1
  Li
  F  1 R
  R = 10.000

  units bohr
}

basis {
  assign Li Li-cc-pvdz
  assign F  aug-cc-pvdz
[ Li-cc-pvdz ]
spherical
****
Li     0
S   8   1.00
   1469.0000000              0.0007660
    220.5000000              0.0058920
     50.2600000              0.0296710
     14.2400000              0.1091800
      4.5810000              0.2827890
      1.5800000              0.4531230
      0.5640000              0.2747740
      0.0734500              0.0097510
S   8   1.00
   1469.0000000             -0.0001200
    220.5000000             -0.0009230
     50.2600000             -0.0046890
     14.2400000             -0.0176820
      4.5810000             -0.0489020
      1.5800000             -0.0960090
      0.5640000             -0.1363800
      0.0734500              0.5751020
S   1   1.00
      0.0280500              1.0000000
P   3   1.00
      1.5340000              0.0227840
      0.2749000              0.1391070
      0.0736200              0.5003750
P   1   1.00
      0.0240300              1.0000000
D   1   1.00
      0.1239000              1.0000000
****
}

set globals{
  reference           rhf
  scf_type            pk
  maxiter             300
  e_convergence       10
  d_convergence       10
  docc                [4,0,1,1]
  restricted_docc     [3,0,1,1]
  active              [2,0,0,0]
  mcscf_r_convergence 7
  mcscf_e_convergence 10
  mcscf_maxiter       250
  mcscf_diis_start    6
  num_roots           2
  follow_root         2
  avg_states          [0,1]
}

set forte{
  job_type           dwms-dsrgpt2
  frozen_docc        [2,0,0,0]
  restricted_docc    [1,0,0,0]
  active             [3,0,2,2]
  dsrg_s             0.5
  maxiter            50
  e_convergence      10
  cas_type           cas
  avg_state          [[0,1,2]]
  dwms_algorithm     sa
  dwms_zeta          1000.0
  dwms_corrlv        pt3
}

Emcscf, wfn = energy('casscf', return_wfn=True)
compare_values(Emcscf_avg,get_variable("CURRENT ENERGY"),8,"SA-CASSCF energy")

energy('forte', ref_wfn=wfn)
E0 = get_variable("ENERGY ROOT 0")
E1 = get_variable("ENERGY ROOT 1")
compare_values(Ept3_root0,E0,8,"DWSA-DSRG-PT3 energy on root 0")
compare_values(Ept3_root1,E1,8,"DWSA-DSRG-PT3 energy on root 1")

set {
  scf_type cd
}
set forte{
  int_type           cholesky
  cholesky_tolerance 10
}

energy('forte', ref_wfn=wfn)
E0 = get_variable("ENERGY ROOT 0")
E1 = get_variable("ENERGY ROOT 1")
compare_values(Ept3_root0,E0,8,"DWSA-DSRG-PT3 (CD) energy on root 0")
compare_values(Ept3_root1,E1,8,"DWSA-DSRG-PT3 (CD) energy on root 1")

set forte{
  dwms_algorithm xsa
}

energy('forte', ref_wfn=wfn)
E0 = get_variable("ENERGY ROOT 0")
E1 = get_variable("ENERGY ROOT 1")
compare_values(Ept3xsa_root0,E0,8,"DWXSA-DSRG-PT3 (CD) energy on root 0")
compare_values(Ept3xsa_root1,E1,8,"DWXSA-DSRG-PT3 (CD) energy on root 1")
--------------------------------------------------------------------------

  Memory set to 953.674 MiB by Python driver.

*** tstart() called on dhcp189-216.emerson.emory.edu
*** at Mon Apr  2 23:08:12 2018

   => Loading Basis Set <=

    Name: ANONYMOUS4742C1A3
    Role: ORBITAL
    Keyword: BASIS
    atoms 1 entry LI         line     5 inputblock li-cc-pvdz 
    atoms 2 entry F          line   286 file /Users/york/src/psi4new/psi4/share/psi4/basis/aug-cc-pvdz.gbs 


         ---------------------------------------------------------
                                   SCF
            by Justin Turney, Rob Parrish, Andy Simmonett
                             and Daniel Smith
                              RHF Reference
                        1 Threads,    953 MiB Core
         ---------------------------------------------------------

  ==> Geometry <==

    Molecular point group: c2v
    Full point group: C_inf_v

    Geometry (in Bohr), charge = 0, multiplicity = 1:

       Center              X                  Y                   Z               Mass       
    ------------   -----------------  -----------------  -----------------  -----------------
          LI          0.000000000000     0.000000000000    -7.303031224277     7.016004548000
           F          0.000000000000     0.000000000000     2.696968775723    18.998403224000

  Running in c2v symmetry.

  Rotational constants: A = ************  B =      0.11749  C =      0.11749 [cm^-1]
  Rotational constants: A = ************  B =   3522.26409  C =   3522.26409 [MHz]
  Nuclear repulsion =    2.700000000000000

  Charge       = 0
  Multiplicity = 1
  Electrons    = 12
  Nalpha       = 6
  Nbeta        = 6

  ==> Algorithm <==

  SCF Algorithm Type is PK.
  DIIS enabled.
  MOM disabled.
  Fractional occupation disabled.
  Guess Type is SAD.
  Energy threshold   = 1.00e-10
  Density threshold  = 1.00e-10
  Integral threshold = 0.00e+00

  ==> Primary Basis <==

  Basis Set: ANONYMOUS4742C1A3
    Blend: AUG-CC-PVDZ + LI-CC-PVDZ
    Number of shells: 15
    Number of basis function: 37
    Number of Cartesian functions: 40
    Spherical Harmonics?: true
    Max angular momentum: 2

  ==> Pre-Iterations <==

   -------------------------------------------------------
    Irrep   Nso     Nmo     Nalpha   Nbeta   Ndocc  Nsocc
   -------------------------------------------------------
     A1        18      18       4       4       4       0
     A2         3       3       0       0       0       0
     B1         8       8       1       1       1       0
     B2         8       8       1       1       1       0
   -------------------------------------------------------
    Total      37      37       6       6       6       0
   -------------------------------------------------------

  ==> Integral Setup <==

  Using in-core PK algorithm.
   Calculation information:
      Number of atoms:                   2
      Number of AO shells:              15
      Number of primitives:             47
      Number of atomic orbitals:        40
      Number of basis functions:        37

      Integral cutoff                 1.00e-12
      Number of threads:                 1

  Performing in-core PK
  Using 494912 doubles for integral storage.
  We computed 7259 shell quartets total.
  Whereas there are 7260 unique shell quartets.
  ==> DiskJK: Disk-Based J/K Matrices <==

    J tasked:                  Yes
    K tasked:                  Yes
    wK tasked:                  No
    Memory (MB):               715
    Schwarz Cutoff:          1E-12

    OpenMP threads:              1
  Minimum eigenvalue in the overlap matrix is 8.8020111411E-02.
  Using Symmetric Orthogonalization.

  SCF Guess: Superposition of Atomic Densities via on-the-fly atomic UHF.

  ==> Iterations <==

                        Total Energy        Delta E     RMS |[F,P]|

   @RHF iter   0:  -106.49243849010175   -1.06492e+02   4.41641e-03 
   @RHF iter   1:  -106.67531561935651   -1.82877e-01   2.14611e-02 
   @RHF iter   2:  -105.54391759021478    1.13140e+00   5.79652e-02 DIIS
   @RHF iter   3:  -106.73990819159854   -1.19599e+00   1.07810e-02 DIIS
   @RHF iter   4:  -106.76331726463158   -2.34091e-02   2.28209e-03 DIIS
   @RHF iter   5:  -106.76471112006809   -1.39386e-03   6.44993e-04 DIIS
   @RHF iter   6:  -106.76484619546872   -1.35075e-04   1.83827e-04 DIIS
   @RHF iter   7:  -106.76485600700777   -9.81154e-06   2.43064e-05 DIIS
   @RHF iter   8:  -106.76485633757383   -3.30566e-07   3.27244e-06 DIIS
   @RHF iter   9:  -106.76485635034794   -1.27741e-08   2.09181e-06 DIIS
   @RHF iter  10:  -106.76485635166017   -1.31223e-09   3.99827e-07 DIIS
   @RHF iter  11:  -106.76485635173333   -7.31575e-11   9.00309e-08 DIIS
   @RHF iter  12:  -106.76485635173758   -4.24905e-12   3.41589e-09 DIIS
   @RHF iter  13:  -106.76485635173759   -1.42109e-14   5.87109e-10 DIIS
   @RHF iter  14:  -106.76485635173761   -1.42109e-14   6.54591e-11 DIIS

  ==> Post-Iterations <==

    Orbital Energies (a.u.)
    -----------------------

    Doubly Occupied:                                                      

       1A1   -25.949822     2A1    -2.691664     3A1    -1.181713  
       1B1    -0.282869     1B2    -0.282869     4A1    -0.281733  

    Virtual:                                                              

       5A1    -0.102315     2B1    -0.034308     2B2    -0.034308  
       6A1    -0.017926     7A1     0.059038     3B1     0.069758  
       3B2     0.069758     8A1     0.115169     9A1     0.230550  
       1A2     0.230550    10A1     0.235491     4B1     0.236544  
       4B2     0.236544     5B1     0.414969     5B2     0.414969  
      11A1     0.434294    12A1     0.463808    13A1     1.634017  
       6B2     1.634417     6B1     1.634417    14A1     1.636003  
       2A2     1.636003     7B1     1.968778     7B2     1.968778  
      15A1     1.981773    16A1     2.604672    17A1     5.197522  
       8B2     5.197552     8B1     5.197552    18A1     5.198222  
       3A2     5.198222  

    Final Occupation by Irrep:
             A1    A2    B1    B2 
    DOCC [     4,    0,    1,    1 ]

  Energy converged.

  @RHF Final Energy:  -106.76485635173761

   => Energetics <=

    Nuclear Repulsion Energy =              2.7000000000000002
    One-Electron Energy =                -157.5883761454535659
    Two-Electron Energy =                  48.1235197937159711
    PCM Polarization Energy =               0.0000000000000000
    Total Energy =                       -106.7648563517376061

    Alert: EFP and PCM quantities not currently incorporated into SCF psivars.

Properties will be evaluated at   0.000000,   0.000000,   0.000000 Bohr

Properties computed using the SCF density matrix

  Nuclear Dipole Moment: (a.u.)
     X:     0.0000      Y:     0.0000      Z:     2.3636

  Electronic Dipole Moment: (a.u.)
     X:     0.0000      Y:     0.0000      Z:   -12.2800

  Dipole Moment: (a.u.)
     X:     0.0000      Y:     0.0000      Z:    -9.9163     Total:     9.9163

  Dipole Moment: (Debye)
     X:     0.0000      Y:     0.0000      Z:   -25.2048     Total:    25.2048


*** tstop() called on dhcp189-216.emerson.emory.edu at Mon Apr  2 23:08:13 2018
Module time:
	user time   =       0.60 seconds =       0.01 minutes
	system time =       0.04 seconds =       0.00 minutes
	total time  =          1 seconds =       0.02 minutes
Total time:
	user time   =       0.60 seconds =       0.01 minutes
	system time =       0.04 seconds =       0.00 minutes
	total time  =          1 seconds =       0.02 minutes
 MINTS: Wrapper to libmints.
   by Justin Turney

   Calculation information:
      Number of threads:                 1
      Number of atoms:                   2
      Number of AO shells:              15
      Number of SO shells:              15
      Number of primitives:             47
      Number of atomic orbitals:        40
      Number of basis functions:        37

      Number of irreps:                  4
      Integral cutoff                 1.00e-12
      Number of functions per irrep: [  18    3    8    8 ]

 OEINTS: Overlap, kinetic, potential, dipole, and quadrupole integrals
         stored in file 35.

      Computing two-electron integrals...done
      Computed 54201 non-zero two-electron integrals.
        Stored in file 33.

 MINTS: Wrapper to libmints.
   by Justin Turney

   Calculation information:
      Number of threads:                 1
      Number of atoms:                   2
      Number of AO shells:              15
      Number of SO shells:              15
      Number of primitives:             47
      Number of atomic orbitals:        40
      Number of basis functions:        37

      Number of irreps:                  4
      Integral cutoff                 0.00e+00
      Number of functions per irrep: [  18    3    8    8 ]

 OEINTS: Overlap, kinetic, potential, dipole, and quadrupole integrals
         stored in file 35.

      Computing two-electron integrals...done
      Computed 55422 non-zero two-electron integrals.
        Stored in file 33.


         ---------------------------------------------------------
                Multi-Configurational Self-Consistent Field
                            (a 'D E T C I' module)

                 Daniel G. A. Smith, C. David Sherrill, and
                              Matt L. Leininger
         ---------------------------------------------------------


   ==> Parameters <==

    EX LEVEL       =        2      H0 BLOCKSIZE  =     1000
    VAL EX LEVEL   =        0      H0 GUESS SIZE =     1000
    H0COUPLINGSIZE =        0      H0 COUPLING   =       NO
    MAXITER        =       12      NUM PRINT     =       20
    NUM ROOTS      =        2      ICORE         =        1
    PRINT LVL      =        1      FCI           =      YES
    R CONV         = 1.00e-07      MIXED         =      YES
    E CONV         = 1.00e-10      MIXED4        =      YES
    R4S            =       NO      REPL OTF      =       NO
    DIAG METHOD    =      SEM      FOLLOW ROOT   =        2
    PRECONDITIONER = DAVIDSON      UPDATE        = DAVIDSON
    S              =   0.0000      Ms0           =      YES
    GUESS VECTOR   =  H0BLOCK      OPENTYPE      =     NONE
    COLLAPSE SIZE  =        1      HD AVG        = EVANGELISTI
    MAX NUM VECS   =       26      REF SYM       =     AUTO
    IOPEN        =       NO

    EX ALLOW       =  1  1 
    STATE AVERAGE  =  0(0.50)  1(0.50) 

   ==> CI Orbital and Space information <==

   ------------------------------------------------------
               Space    Total    A1    A2    B1    B2
   ------------------------------------------------------
                 Nso       37    18     3     8     8
                 Nmo       37    18     3     8     8
               Ndocc        6     4     0     1     1
               Nsocc        0     0     0     0     0
   ------------------------------------------------------
                        MCSCF Spaces
   ------------------------------------------------------
         Frozen DOCC        0     0     0     0     0
     Restricted DOCC        5     3     0     1     1
              Active        2     2     0     0     0
     Restricted UOCC       30    13     3     7     7
         Frozen UOCC        0     0     0     0     0
   ------------------------------------------------------

   ==> Setting up CI strings <==

    There are 2 alpha and 2 beta strings
    The CI space requires 4 (4.00E+00) determinants and 1 blocks

   ==> Setting up MCSCF integrals <==

  Using in-core PK algorithm.
   Calculation information:
      Number of atoms:                   2
      Number of AO shells:              15
      Number of primitives:             47
      Number of atomic orbitals:        40
      Number of basis functions:        37

      Integral cutoff                 1.00e-12
      Number of threads:                 1

  Performing in-core PK
  Using 494912 doubles for integral storage.
  We computed 7259 shell quartets total.
  Whereas there are 7260 unique shell quartets.
  ==> DiskJK: Disk-Based J/K Matrices <==

    J tasked:                  Yes
    K tasked:                  Yes
    wK tasked:                  No
    Memory (MB):              6103
    Schwarz Cutoff:          1E-12

    OpenMP threads:              1

   ==> Starting MCSCF iterations <==

        Iter         Total Energy       Delta E   Orb RMS    CI RMS  NCI NORB
(sem_iter): H0block_->H0b_diag[1][1] - H0block_->H0b_diag[2][1] = -0.707107 - 0.707107 = -1.414214 > 1.0E-8
   @MCSCF  1:   -106.719655499289    4.5201e-02  7.73e-02  3.29e-09    1    1  Initial CI
   @MCSCF  2:   -106.743591142817   -2.3936e-02  4.80e-02  7.20e-11    1    1  TS
   @MCSCF  3:   -106.749720768638   -6.1296e-03  2.62e-02  1.94e-10    1    1  TS
   @MCSCF  4:   -106.751831448251   -2.1107e-03  1.47e-02  1.41e-10    1    1  TS
   @MCSCF  5:   -106.752507378970   -6.7593e-04  8.16e-03  1.56e-10    1    1  TS
   @MCSCF  6:   -106.752745372693   -2.3799e-04  4.54e-03  1.49e-10    1    1  TS
   @MCSCF  7:   -106.752830377725   -8.5005e-05  2.53e-03  1.53e-10    1    1  TS, DIIS
   @MCSCF  8:   -106.752862680700   -3.2303e-05  1.41e-03  1.51e-10    1    1  TS, DIIS
   @MCSCF  9:   -106.752859178781    3.5019e-06  2.51e-03  1.54e-10    1    1  TS, DIIS
   @MCSCF 10:   -106.752877030055   -1.7851e-05  1.46e-03  1.52e-10    2    1  TS, DIIS
   @MCSCF 11:   -106.752884415078   -7.3850e-06  4.11e-04  1.53e-10    1    1  TS, DIIS
   @MCSCF 12:   -106.752885012120   -5.9704e-07  1.12e-04  1.53e-10    1    1  TS, DIIS
   @MCSCF 13:   -106.752885060714   -4.8594e-08  7.10e-07  1.53e-10    1    1  TS, DIIS
   @MCSCF 14:   -106.752885060711    2.6006e-12  1.11e-06  1.53e-10    1    1  TS, DIIS
   @MCSCF 15:   -106.752885060716   -4.5759e-12  3.42e-09  1.53e-10    1    1  TS, DIIS

          @MCSCF has converged!

   @MCSCF Final Energy: -106.752885060715954

   Computing CI Semicanonical Orbitals

   ==> Energetics <==

    SCF energy =         -106.764856351737606
    Total MCSCF energy = -106.752885060715954

   ==> MCSCF root 0 information <==

    MCSCF Root 0 energy =  -106.772344531465166

   Active Space Natural occupation numbers:

        A1   1.177995        A1   0.822005

   The 4 most important determinants:

    *   1   -0.699843  (    1,    0)  4A1B 5A1A 
    *   2   -0.699843  (    0,    1)  4A1A 5A1B 
    *   3   -0.142097  (    0,    0)  4A1X 
    *   4    0.015730  (    1,    1)  5A1X 


   ==> MCSCF root 1 information <==

    MCSCF Root 1 energy =  -106.733425589966117

   Active Space Natural occupation numbers:

        A1   1.999870        A1   0.000130

   The 4 most important determinants:

    *   1   -0.989853  (    0,    0)  4A1X 
    *   2    0.100467  (    1,    0)  4A1B 5A1A 
    *   3    0.100467  (    0,    1)  4A1A 5A1B 
    *   4   -0.002053  (    1,    1)  5A1X 



Properties will be evaluated at   0.000000,   0.000000,   0.000000 Bohr

Properties computed using the CASSCF density matrix

  Nuclear Dipole Moment: (a.u.)
     X:     0.0000      Y:     0.0000      Z:     2.3636

  Electronic Dipole Moment: (a.u.)
     X:     0.0000      Y:     0.0000      Z:    -7.3349

  Dipole Moment: (a.u.)
     X:     0.0000      Y:     0.0000      Z:    -4.9713     Total:     4.9713

  Dipole Moment: (Debye)
     X:     0.0000      Y:     0.0000      Z:   -12.6357     Total:    12.6357

	SA-CASSCF energy..................................................PASSED
   => Loading Basis Set <=

    Name: STO-3G
    Role: ORBITAL
    Keyword: MINAO_BASIS
    atoms 1 entry LI         line    31 file /Users/york/src/psi4new/psi4/share/psi4/basis/sto-3g.gbs 
    atoms 2 entry F          line    91 file /Users/york/src/psi4new/psi4/share/psi4/basis/sto-3g.gbs 


Reading options from the FORTE block
Calling plugin forte.so.



  Forte
  ----------------------------------------------------------------------------
  A suite of quantum chemistry methods for strongly correlated electrons

    git branch: dwsa-dsrg-pt - git commit: 5258b91f

  Developed by:
    Francesco A. Evangelista, Chenyang Li, Kevin P. Hannon,
    Jeffrey B. Schriber, Tianyuan Zhang, Chenxi Cai
  ----------------------------------------------------------------------------

  Size of Determinant class: 32

  ==> MO Space Information <==

  Read options for space FROZEN_DOCC
  Read options for space RESTRICTED_DOCC
  Read options for space ACTIVE
 Removing orbital 0
 Removing orbital 1
  -------------------------------------------------
                       A1    A2    B1    B2   Sum
  -------------------------------------------------
    FROZEN_DOCC         2     0     0     0     2
    RESTRICTED_DOCC     1     0     0     0     1
    ACTIVE              3     0     2     2     7
    RESTRICTED_UOCC    12     3     6     6    27
    FROZEN_UOCC         0     0     0     0     0
    Total              18     3     8     8    37
  -------------------------------------------------

  ==> Integral Transformation <==

  Number of molecular orbitals:               37
  Number of correlated molecular orbitals:    35
  Number of frozen occupied orbitals:          2
  Number of frozen unoccupied orbitals:        0


  Overall Conventional Integrals timings

	Presorting SO-basis two-electron integrals.
	Sorting File: SO Ints (nn|nn) nbuckets = 1
	Transforming the one-electron integrals and constructing Fock matrices
	Starting first half-transformation.
	Sorting half-transformed integrals.
	First half integral transformation complete.
	Starting second half-transformation.
	Two-electron integral transformation complete.

  Integral transformation done. 0.07860600 s
  Reading the two-electron integrals from disk
  Size of two-electron integrals:   0.041891 GB  Using in-core PK algorithm.
   Calculation information:
      Number of atoms:                   2
      Number of AO shells:              15
      Number of primitives:             47
      Number of atomic orbitals:        40
      Number of basis functions:        37

      Integral cutoff                 1.00e-12
      Number of threads:                 1

  Performing in-core PK
  Using 494912 doubles for integral storage.
  We computed 7259 shell quartets total.
  Whereas there are 7260 unique shell quartets.

  Frozen-core energy            -84.713599407175 a.u.

  FrozenOneBody Operator takes  0.26447600 s
  Resorting integrals after freezing core.
  Conventional integrals take 0.75700200 s

        ----------------------------------------------------------------
          Dynamically Weighted Driven Similarity Renormalization Group
                        Multi-State Perturbation Theory
                                  Chenyang Li
        ----------------------------------------------------------------


  ==> DWMS-DSRG Options <==

    CORRELATION LEVEL         PT3
    ZETA VALUE           1.00e+03
    REFERENCE               CASCI
    ALGORITHM                  SA

  ==> Implementation Note on SA <==

  - Perform CASCI using user-defined weights.
  - Loop over symmetry entries:
    - Initialize effective Hamiltonian Heff.
    - Loop over averaged states:
      - Compute new density weights if ζ is nonzero.
      - Semicanonicalize orbitals.
      - Put SS-DSRG-PT2 energy to diagonal of Heff.
      - Compute couplings of Heff:
        - De-normal-order Hbar.
        - Compute 1, 2, 3 transition densities.
        - <A|Heff|B> <- 0.5 * <A|Hbar(B)|B>.
  - Collect and print energies.


              ---------------------------------------------------
                Complete Active Space Configuration Interaction
                                  Chenyang Li
              ---------------------------------------------------


  ==> Input Summary <==

    No. a electrons in active      =     3
    No. b electrons in active      =     3
    multiplicity                   =     1
    spin ms (2 * Sz)               =     0

  ==> Orbital Spaces <==

    TOTAL MO                      [   18     3     8     8 ]
    FROZEN CORE                   [    2     0     0     0 ]
    FROZEN VIRTUAL                [    0     0     0     0 ]
    CORRELATED MO                 [   16     3     8     8 ]
    CORE                          [    1     0     0     0 ]
    ACTIVE                        [    3     0     2     2 ]
    VIRTUAL                       [   12     3     6     6 ]

  ==> State Averaging Summary <==

    Irrep.  Multi.  Nstates      Weights
    ------------------------------------
      A1       1        2    0.500 0.500
    ------------------------------------
    Total number of states: 2
    ------------------------------------

  Forming alpha and beta strings      ...  Done. Timing        0.000114 s
  Forming determinants                ...  Done. Timing        0.000139 s

  ==> Determinants Summary <==

    number of alpha active electrons         =     3
    number of beta active electrons          =     3
    root symmetry (zero based)               =     0
    number of determinants                   =   321

  Diagonalizing Hamiltonian           ...

  ==> Computing Coupling Lists <==
  --------------------------------
        α          0.001230 s
        β          0.001200 s
        αα         0.001046 s
        ββ         0.001036 s
        αβ         0.002840 s
  --------------------------------

  Davidson-Liu solver algorithm
  Using SPARSE sigma builder
  Initial guess space is incomplete!
  Trying to add 25 determinant(s).  25 determinant(s) added.
  Initial guess found 89 solutions with 2S+1 = 1 *
  Initial guess found 103 solutions with 2S+1 = 3  
  Initial guess found 30 solutions with 2S+1 = 5  
  Initial guess found 3 solutions with 2S+1 = 7  
  Adding guess 0 (multiplicity = 1.000000)
  Adding guess 1 (multiplicity = 1.000000)
  Adding guess 2 (multiplicity = 1.000000)
  Adding guess 3 (multiplicity = 1.000000)

  ==> Diagonalizing Hamiltonian <==

  ----------------------------------------
    Iter.      Avg. Energy       Delta_E
  ----------------------------------------
      1      -97.331220979556  -9.733e+01
      2      -97.331220979556  -5.258e-13
  ----------------------------------------
  The Davidson-Liu algorithm converged in 3 iterations.
  Davidson-Liu procedure took  0.292657 s  Done. Timing        0.302391 s

  * * * * * * * * * * * * * * * * *
  *  CI Vectors & Configurations  *
  * * * * * * * * * * * * * * * * *

  ==> Root No. 0 <==

    ba0 20 20         -0.6992227066
    ab0 20 20         -0.6992227066
    200 20 20         -0.1460778803

    Total Energy:   -106.772573835135518


  ==> Root No. 1 <==

    200 20 20         -0.9609078851
    b0a 20 20         -0.1530225595
    a0b 20 20         -0.1530225595
    ba0 20 20          0.1034192684
    ab0 20 20          0.1034192684

    Total Energy:   -106.735798150981566



  ==> Permanent Dipole Moments (A1) <==

  Only print nonzero (> 1.0e-5) elements.
  Permanent dipole moments (a.u.) 0 -> 0:  X:  0.0000  Y:  0.0000  Z: -0.2189  Total:  0.2189
  Permanent dipole moments (a.u.) 1 -> 1:  X:  0.0000  Y:  0.0000  Z: -8.9753  Total:  8.9753


  ==> Transition Dipole Moments (A1 -> A1) <==

  Only print nonzero (> 1.0e-5) elements.
  Transition dipole moments (a.u.) 0 -> 1:  X:  0.0000  Y:  0.0000  Z: -1.7577  Total:  1.7577


  ==> Oscillator Strength (A1 -> A1) <==

  Only print nonzero (> 1.0e-5) elements.
  Oscillator strength (a.u.) 0 -> 1:  X:  0.0000  Y:  0.0000  Z:  0.0757  Total:  0.0757

  Total Energy (averaged over 2 states): -106.754185993058542


  =========================================
  Build Effective Hamiltonian of Singlet A1
  =========================================


  ==> Compute DSRG-MRPT3 Energy of Root 0 <==


  ==> Original State Averaging Summary <==

    Irrep.  Multi.  Nroots       Weights
    ------------------------------------
      A1       1       2     0.500 0.500
    ------------------------------------

  ==> Reweighted State Averaging Summary <==

    Irrep.  Multi.  Nroots       Weights
    ------------------------------------
      A1       1       2     0.795 0.205
    ------------------------------------

  ==> Compute State-Averaged Cumulants <==

  Computing  1RDM (0-0) of Singlet A1 ... Writing ... Done. Timing        0.003405 s
  Computing  2RDM (0-0) of Singlet A1 ... Writing ... Done. Timing        0.006384 s
  Computing  3RDM (0-0) of Singlet A1 ... Writing ... Done. Timing        0.022787 s
  Computing  1RDM (1-1) of Singlet A1 ... Writing ... Done. Timing        0.003359 s
  Computing  2RDM (1-1) of Singlet A1 ... Writing ... Done. Timing        0.006382 s
  Computing  3RDM (1-1) of Singlet A1 ... Writing ... Done. Timing        0.021279 s
  Adding wedge product for 2-cumulants ... Done. Timing        0.002100 s
  Adding wedge product for 3-cumulants ... Done. Timing        0.226634 s

  ==> Multireference Driven Similarity Renormalization Group <==

    Reading DSRG options ............................ Done
    Setting ambit MO space .......................... Done
    Preparing tensors for density cumulants ......... Done
    Building Fock matrix ............................ Done
    Checking reference energy ....................... Done

                  -------------------------------------------
                    MR-DSRG Third-Order Perturbation Theory
                                  Chenyang Li
                  -------------------------------------------

    Reference:
      J. Chem. Phys. 2017, 146, 124132.

  ==> Calculation Information <==

    ntamp                                                 15
    flow parameter                                 5.000e-01
    taylor expansion threshold                     1.000e-03
    intruder_tamp                                  1.000e-01
    int_type                                    CONVENTIONAL
    source operator                                 STANDARD
    reference relaxation                                NONE
    state_type                                   MULTI-STATE
    multi-state type                                 SA_FULL

  ==> Memory Infomation <==

    Memory asigned                                   0.98 GB
    Memory used before DSRG                         40.09 MB
    Density Cumulants (1, 2)                        59.19 KB
    Asym MO tei (hhpp)                               1.78 MB
    Fock matrix                                     39.76 KB
    Hbar active (aa, aaaa)                          58.41 KB
    Amplitudes (hp, hhpp)                            1.72 MB
    O intermediates (hp, hhpp)                       1.72 MB
    Memory remaining                                 0.93 GB
    Energy part 1 min                                1.73 MB
    Energy part 2 min                               13.73 MB

  ==> Checking Semicanonical Orbitals <==

    Abs. max of Fock core, active, virtual blocks (Fij, i != j)
                  core          active         virtual
    --------------------------------------------------
    Fα    0.0000000000    0.0061957302    0.0349387896
    Fβ    0.0000000000    0.0061957302    0.0349387896
    --------------------------------------------------

    1-Norm of Fock core, active, virtual blocks (Fij, i != j)
                  core          active         virtual
    --------------------------------------------------
    Fα    0.0000000000    0.0275850781    1.0176866890
    Fβ    0.0000000000    0.0275850781    1.0176866890
    --------------------------------------------------

    Warning! Orbitals are not semi-canonicalized!
    Orbital invariant formalism will be employed for DSRG-MRPT3.

  ==> First-Order Amplitudes <==

    Computing T2 amplitudes                  ...  Done. Timing      0.434 s
    Computing T1 amplitudes                  ...  Done. Timing      0.019 s
    Active Indices:    1    2    3   19   20   27   28 
    Largest T1 amplitudes for spin case A:
       i       a                  i       a                  i       a               
    --------------------------------------------------------------------------------
    [ 19      25    ]-0.021257 [ 27      33    ]-0.021257 [ 19      23    ] 0.012150 
    [ 27      31    ] 0.012150 [  0      13    ] 0.011163 [  0       8    ]-0.008820 
    [  0       9    ] 0.007513 [  1      12    ]-0.005861 [ 19      22    ]-0.003528 
    [ 27      30    ]-0.003528 [  1       9    ]-0.002335 [  0       5    ] 0.001763 
    [  0       6    ]-0.001749 [  2       5    ] 0.001537 [  1      10    ]-0.001476 
    --------------------------------------------------------------------------------
    Norm of T1A vector: (nonzero elements: 75)                    0.039354624022757.
    --------------------------------------------------------------------------------
    Largest T1 amplitudes for spin case B:
       _       _                  _       _                  _       _               
       i       a                  i       a                  i       a               
    --------------------------------------------------------------------------------
    [ 19      25    ]-0.021257 [ 27      33    ]-0.021257 [ 19      23    ] 0.012150 
    [ 27      31    ] 0.012150 [  0      13    ] 0.011163 [  0       8    ]-0.008820 
    [  0       9    ] 0.007513 [  1      12    ]-0.005861 [ 19      22    ]-0.003528 
    [ 27      30    ]-0.003528 [  1       9    ]-0.002335 [  0       5    ] 0.001763 
    [  0       6    ]-0.001749 [  2       5    ] 0.001537 [  1      10    ]-0.001476 
    --------------------------------------------------------------------------------
    Norm of T1B vector: (nonzero elements: 75)                    0.039354624022757.
    --------------------------------------------------------------------------------
    Largest T2 amplitudes for spin case AA:
       i   j   a   b              i   j   a   b              i   j   a   b           
    --------------------------------------------------------------------------------
    [  1  19  12  19] 0.074236 [  1  27  12  27] 0.074236 [ 19  27  19  33] 0.071187 
    [ 19  27  25  27] 0.071187 [  1  27   1  33] 0.068689 [  1  19   1  25] 0.068689 
    [ 19  27  19  31]-0.040284 [ 19  27  23  27]-0.040284 [  1  27   1  31]-0.039196 
    [  1  19   1  23]-0.039196 [  0  19  13  19]-0.035084 [  0  27  13  27]-0.035084 
    [  0   1   1  13] 0.033894 [  0  19   8  19] 0.027266 [  0  27   8  27] 0.027266 
    --------------------------------------------------------------------------------
    Norm of T2AA vector: (nonzero elements: 18635)                0.482035650698280.
    --------------------------------------------------------------------------------
    Largest T2 amplitudes for spin case AB:
           _       _                  _       _                  _       _           
       i   j   a   b              i   j   a   b              i   j   a   b           
    --------------------------------------------------------------------------------
    [ 19  19  19  25] 0.084515 [ 27  27  27  33] 0.084515 [  1   1   1  12] 0.084417 
    [  1  19  12  19] 0.078987 [  1  27  12  27] 0.078987 [  0   0  19  19]-0.076415 
    [  0   0  27  27]-0.076415 [ 19  27  19  33] 0.075630 [ 19  27  25  27] 0.075630 
    [  1  27   1  33] 0.072674 [  1  19   1  25] 0.072674 [  0   0   1   1]-0.067128 
    [ 19  19  19  23]-0.050019 [ 27  27  27  31]-0.050019 [ 19  27  19  31]-0.043529 
    --------------------------------------------------------------------------------
    Norm of T2AB vector: (nonzero elements: 19007)                0.498061623685866.
    --------------------------------------------------------------------------------
    Largest T2 amplitudes for spin case BB:
       _   _   _   _              _   _   _   _              _   _   _   _           
       i   j   a   b              i   j   a   b              i   j   a   b           
    --------------------------------------------------------------------------------
    [  1  19  12  19] 0.074236 [  1  27  12  27] 0.074236 [ 19  27  19  33] 0.071187 
    [ 19  27  25  27] 0.071187 [  1  27   1  33] 0.068689 [  1  19   1  25] 0.068689 
    [ 19  27  19  31]-0.040284 [ 19  27  23  27]-0.040284 [  1  27   1  31]-0.039196 
    [  1  19   1  23]-0.039196 [  0  19  13  19]-0.035084 [  0  27  13  27]-0.035084 
    [  0   1   1  13] 0.033894 [  0  19   8  19] 0.027266 [  0  27   8  27] 0.027266 
    --------------------------------------------------------------------------------
    Norm of T2BB vector: (nonzero elements: 18645)                0.482035650698280.
    --------------------------------------------------------------------------------

  ==> Possible Intruders <==

    T1 amplitudes larger than 0.1000 for spin case A: NULL
    T1 amplitudes larger than 0.1000 for spin case B: NULL
    T2 amplitudes larger than 0.1000 for spin case AA: NULL
    T2 amplitudes larger than 0.1000 for spin case AB: NULL
    T2 amplitudes larger than 0.1000 for spin case BB: NULL

  ==> Computing 3rd-Order Energy Contribution (1/3) <==

    Computing 3rd-order energy (1/3)         ...  Done. Timing      1.404 s
    Computing integrals for ref. relaxation  ...  Done. Timing      0.282 s

  ==> Computing 2nd-Order Correlation Energy <==

    Renormalizing two-electron integrals     ...  Done. Timing      0.472 s
    Renormalizing Fock matrix elements       ...  Done. Timing      0.023 s
    Computing 2nd-order energy               ...  Done. Timing      0.189 s
    Computing integrals for ref. relaxation  ...  Done. Timing      0.280 s

  ==> Computing 3rd-Order Energy Contribution (2/3) <==

    Preparing 2nd-order amplitudes           ...  Done. Timing      4.027 s
    Computing T2 amplitudes                  ...  Done. Timing      0.433 s
    Computing T1 amplitudes                  ...  Done. Timing      0.025 s
    Computing 3rd-order energy (2/3)         ...  Done. Timing      0.204 s
    Computing integrals for ref. relaxation  ...  Done. Timing      0.277 s

  ==> Second-Order Amplitudes Summary <==

    Active Indices:    1    2    3   19   20   27   28 
    Largest T1 amplitudes for spin case A:
       i       a                  i       a                  i       a               
    --------------------------------------------------------------------------------
    [ 19      25    ] 0.018056 [ 27      33    ] 0.018056 [ 19      23    ]-0.011863 
    [ 27      31    ]-0.011863 [  0       8    ] 0.006226 [  0       9    ]-0.005182 
    [  0      13    ]-0.004532 [ 19      22    ] 0.003480 [ 27      30    ] 0.003480 
    [  1       9    ] 0.002940 [  1       8    ] 0.002709 [  1       6    ]-0.001928 
    [  1      12    ] 0.001442 [  0       6    ] 0.001243 [  0       5    ]-0.001180 
    --------------------------------------------------------------------------------
    Norm of T1A vector: (nonzero elements: 75)                    0.032741418148910.
    --------------------------------------------------------------------------------
    Largest T1 amplitudes for spin case B:
       _       _                  _       _                  _       _               
       i       a                  i       a                  i       a               
    --------------------------------------------------------------------------------
    [ 19      25    ] 0.018056 [ 27      33    ] 0.018056 [ 19      23    ]-0.011863 
    [ 27      31    ]-0.011863 [  0       8    ] 0.006226 [  0       9    ]-0.005182 
    [  0      13    ]-0.004532 [ 19      22    ] 0.003480 [ 27      30    ] 0.003480 
    [  1       9    ] 0.002940 [  1       8    ] 0.002709 [  1       6    ]-0.001928 
    [  1      12    ] 0.001442 [  0       6    ] 0.001243 [  0       5    ]-0.001180 
    --------------------------------------------------------------------------------
    Norm of T1B vector: (nonzero elements: 75)                    0.032741418148910.
    --------------------------------------------------------------------------------
    Largest T2 amplitudes for spin case AA:
       i   j   a   b              i   j   a   b              i   j   a   b           
    --------------------------------------------------------------------------------
    [  1  27  12  27]-0.031348 [  1  19  12  19]-0.031348 [  1  27   1  33]-0.020736 
    [  1  19   1  25]-0.020736 [ 19  27  19  33]-0.019079 [ 19  27  25  27]-0.019079 
    [ 19  27  19  31] 0.014449 [ 19  27  23  27] 0.014449 [  0   1   1  13]-0.012302 
    [  1  27   1  31] 0.011966 [  1  19   1  23] 0.011966 [  0  27  13  27] 0.011673 
    [  0  19  13  19] 0.011673 [  1  19   9  19]-0.010744 [  1  27   9  27]-0.010744 
    --------------------------------------------------------------------------------
    Norm of T2AA vector: (nonzero elements: 18638)                0.153464900998434.
    --------------------------------------------------------------------------------
    Largest T2 amplitudes for spin case AB:
           _       _                  _       _                  _       _           
       i   j   a   b              i   j   a   b              i   j   a   b           
    --------------------------------------------------------------------------------
    [  1   1   1  12]-0.028597 [  1  27  12  27]-0.028519 [  1  19  12  19]-0.028519 
    [  1  27   1  33]-0.017415 [  1  19   1  25]-0.017415 [  0   0   1   1]-0.017071 
    [ 19  27  19  33]-0.015150 [ 19  27  25  27]-0.015150 [ 19  27  19  31] 0.013765 
    [ 19  27  23  27] 0.013765 [ 27  27  27  31] 0.013472 [ 19  19  19  23] 0.013472 
    [  1  27   1  31] 0.010885 [  1  19   1  23] 0.010885 [  1  19   9  19]-0.010438 
    --------------------------------------------------------------------------------
    Norm of T2AB vector: (nonzero elements: 19007)                0.117098504066831.
    --------------------------------------------------------------------------------
    Largest T2 amplitudes for spin case BB:
       _   _   _   _              _   _   _   _              _   _   _   _           
       i   j   a   b              i   j   a   b              i   j   a   b           
    --------------------------------------------------------------------------------
    [  1  27  12  27]-0.031348 [  1  19  12  19]-0.031348 [  1  27   1  33]-0.020736 
    [  1  19   1  25]-0.020736 [ 19  27  19  33]-0.019079 [ 19  27  25  27]-0.019079 
    [ 19  27  19  31] 0.014449 [ 19  27  23  27] 0.014449 [  0   1   1  13]-0.012302 
    [  1  27   1  31] 0.011966 [  1  19   1  23] 0.011966 [  0  27  13  27] 0.011673 
    [  0  19  13  19] 0.011673 [  1  19   9  19]-0.010744 [  1  27   9  27]-0.010744 
    --------------------------------------------------------------------------------
    Norm of T2BB vector: (nonzero elements: 18642)                0.153464900998434.
    --------------------------------------------------------------------------------

  ==> Computing 3rd-Order Energy Contribution (3/3) <==

    Renormalizing Fock matrix elements       ...  Done. Timing      0.024 s
    Renormalizing two-electron integrals     ...  Done. Timing      0.478 s
    Computing 3rd-order energy (3/3)         ...  Done. Timing      0.232 s
    Computing integrals for ref. relaxation  ...  Done. Timing      0.296 s

  ==> DSRG-MRPT3 Energy Summary <==

    E0 (reference)                      =   -106.765017536741141
    2nd-order corr. energy              =     -0.220669733615794
    3rd-order corr. energy part 1       =      0.004471143089203
    3rd-order corr. energy part 2       =      0.010970766229506
    3rd-order corr. energy part 3       =      0.003380494483265
    3rd-order corr. energy              =      0.018822403801974
    DSRG-MRPT3 corr. energy             =     -0.201847329813819
    DSRG-MRPT3 total energy             =   -106.966864866554957

    Notes:
      3rd-order energy part 1: -1.0 / 12.0 * [[[H0th, A1st], A1st], A1st]
      3rd-order energy part 2: 0.5 * [H1st + Hbar1st, A2nd]
      3rd-order energy part 3: 0.5 * [Hbar2nd, A1st]
      Hbar1st = H1st + [H0th, A1st]
      Hbar2nd = 0.5 * [H1st + Hbar1st, A1st] + [H0th, A2nd]

  ==> De-Normal-Order DSRG Transformed Hamiltonian <==

    Computing the scalar term                ... Done. Timing    0.002 s
    Computing the 1-body term                ... Done. Timing    0.001 s

  ==> Rotate DSRG Transformed Hamiltonian back to Original Basis <==

    Rotating 1-body term to original basis   ... Done. Timing    0.001 s
    Rotating 2-body term to original basis   ... Done. Timing    0.018 s

  ==> Compute Elements of Effective Hamiltonian <==

  Compute densities of 0->0.
  Computing  1RDM (0-0) of Singlet A1 ... Reading ... Done. Timing        0.000133 s
  Computing  2RDM (0-0) of Singlet A1 ... Reading ... Done. Timing        0.000183 s
  Contract densities with Heff.
  Compute transition densities of 0->1.
  Computing 1TrDM (0-1) of Singlet A1 ... Writing ... Done. Timing        0.003489 s
  Computing 2TrDM (0-1) of Singlet A1 ... Writing ... Done. Timing        0.007741 s
  Contract transition densities with Heff.

  ==> Total Timings (s) for Computing Commutators <==

             [H1, T1]    [H1, T2]    [H2, T1]    [H2, T2]
    -----------------------------------------------------
    -> C0       0.007       0.020       0.022       0.761
    -> C1       0.012       0.098       0.147       2.072
    -> C2                   0.274       0.364       2.381
    -----------------------------------------------------


  ==> Compute DSRG-MRPT3 Energy of Root 1 <==


  ==> Original State Averaging Summary <==

    Irrep.  Multi.  Nroots       Weights
    ------------------------------------
      A1       1       2     0.795 0.205
    ------------------------------------

  ==> Reweighted State Averaging Summary <==

    Irrep.  Multi.  Nroots       Weights
    ------------------------------------
      A1       1       2     0.205 0.795
    ------------------------------------

  ==> Compute State-Averaged Cumulants <==

  Computing  1RDM (0-0) of Singlet A1 ... Reading ... Done. Timing        0.000121 s
  Computing  2RDM (0-0) of Singlet A1 ... Reading ... Done. Timing        0.000174 s
  Computing  3RDM (0-0) of Singlet A1 ... Reading ... Done. Timing        0.006444 s
  Computing  1RDM (1-1) of Singlet A1 ... Reading ... Done. Timing        0.000117 s
  Computing  2RDM (1-1) of Singlet A1 ... Reading ... Done. Timing        0.000169 s
  Computing  3RDM (1-1) of Singlet A1 ... Reading ... Done. Timing        0.006128 s
  Adding wedge product for 2-cumulants ... Done. Timing        0.001181 s
  Adding wedge product for 3-cumulants ... Done. Timing        0.246740 s

  ==> Multireference Driven Similarity Renormalization Group <==

    Reading DSRG options ............................ Done
    Setting ambit MO space .......................... Done
    Preparing tensors for density cumulants ......... Done
    Building Fock matrix ............................ Done
    Checking reference energy ....................... Done

                  -------------------------------------------
                    MR-DSRG Third-Order Perturbation Theory
                                  Chenyang Li
                  -------------------------------------------

    Reference:
      J. Chem. Phys. 2017, 146, 124132.

  ==> Calculation Information <==

    ntamp                                                 15
    flow parameter                                 5.000e-01
    taylor expansion threshold                     1.000e-03
    intruder_tamp                                  1.000e-01
    int_type                                    CONVENTIONAL
    source operator                                 STANDARD
    reference relaxation                                NONE
    state_type                                   MULTI-STATE
    multi-state type                                 SA_FULL

  ==> Memory Infomation <==

    Memory asigned                                   0.98 GB
    Memory used before DSRG                         40.09 MB
    Density Cumulants (1, 2)                        59.19 KB
    Asym MO tei (hhpp)                               1.78 MB
    Fock matrix                                     39.76 KB
    Hbar active (aa, aaaa)                          58.41 KB
    Amplitudes (hp, hhpp)                            1.72 MB
    O intermediates (hp, hhpp)                       1.72 MB
    Memory remaining                                 0.93 GB
    Energy part 1 min                                1.73 MB
    Energy part 2 min                               13.73 MB

  ==> Checking Semicanonical Orbitals <==

    Abs. max of Fock core, active, virtual blocks (Fij, i != j)
                  core          active         virtual
    --------------------------------------------------
    Fα    0.0000000000    0.0180095724    0.0281964714
    Fβ    0.0000000000    0.0180095724    0.0281964714
    --------------------------------------------------

    1-Norm of Fock core, active, virtual blocks (Fij, i != j)
                  core          active         virtual
    --------------------------------------------------
    Fα    0.0000000000    0.0832197457    0.7785473338
    Fβ    0.0000000000    0.0832197457    0.7785473338
    --------------------------------------------------

    Warning! Orbitals are not semi-canonicalized!
    Orbital invariant formalism will be employed for DSRG-MRPT3.

  ==> First-Order Amplitudes <==

    Computing T2 amplitudes                  ...  Done. Timing      0.468 s
    Computing T1 amplitudes                  ...  Done. Timing      0.020 s
    Active Indices:    1    2    3   19   20   27   28 
    Largest T1 amplitudes for spin case A:
       i       a                  i       a                  i       a               
    --------------------------------------------------------------------------------
    [ 27      33    ] 0.016353 [ 19      25    ] 0.016353 [  1      12    ] 0.015936 
    [  0      13    ]-0.008358 [ 27      31    ]-0.007759 [ 19      23    ]-0.007759 
    [  0       8    ] 0.006538 [  1       9    ] 0.006015 [  0       9    ]-0.005835 
    [  1       8    ] 0.004748 [  1       6    ]-0.004032 [ 27      30    ] 0.002364 
    [ 19      22    ] 0.002364 [  0       6    ] 0.001553 [  0       1    ]-0.001530 
    --------------------------------------------------------------------------------
    Norm of T1A vector: (nonzero elements: 75)                    0.034033576577975.
    --------------------------------------------------------------------------------
    Largest T1 amplitudes for spin case B:
       _       _                  _       _                  _       _               
       i       a                  i       a                  i       a               
    --------------------------------------------------------------------------------
    [ 27      33    ] 0.016353 [ 19      25    ] 0.016353 [  1      12    ] 0.015936 
    [  0      13    ]-0.008358 [ 27      31    ]-0.007759 [ 19      23    ]-0.007759 
    [  0       8    ] 0.006538 [  1       9    ] 0.006015 [  0       9    ]-0.005835 
    [  1       8    ] 0.004748 [  1       6    ]-0.004032 [ 27      30    ] 0.002364 
    [ 19      22    ] 0.002364 [  0       6    ] 0.001553 [  0       1    ]-0.001530 
    --------------------------------------------------------------------------------
    Norm of T1B vector: (nonzero elements: 75)                    0.034033576577975.
    --------------------------------------------------------------------------------
    Largest T2 amplitudes for spin case AA:
       i   j   a   b              i   j   a   b              i   j   a   b           
    --------------------------------------------------------------------------------
    [  1  19  12  19] 0.072818 [  1  27  12  27] 0.072818 [ 19  27  19  33] 0.072468 
    [ 19  27  25  27] 0.072468 [  1  27   1  33] 0.069925 [  1  19   1  25] 0.069925 
    [  0  19  13  19]-0.035134 [  0  27  13  27]-0.035134 [  0   1   1  13] 0.033909 
    [ 19  27  23  27]-0.033399 [ 19  27  19  31]-0.033399 [  1  19   1  23]-0.032488 
    [  1  27   1  31]-0.032488 [  0  19   8  19] 0.027223 [  0  27   8  27] 0.027223 
    --------------------------------------------------------------------------------
    Norm of T2AA vector: (nonzero elements: 18643)                0.473046862149257.
    --------------------------------------------------------------------------------
    Largest T2 amplitudes for spin case AB:
           _       _                  _       _                  _       _           
       i   j   a   b              i   j   a   b              i   j   a   b           
    --------------------------------------------------------------------------------
    [ 27  27  27  33] 0.086048 [ 19  19  19  25] 0.086048 [  1   1   1  12] 0.082835 
    [  1  19  12  19] 0.077487 [  1  27  12  27] 0.077487 [ 19  27  19  33] 0.076995 
    [ 19  27  25  27] 0.076995 [  0   0  19  19]-0.076415 [  0   0  27  27]-0.076415 
    [  1  27   1  33] 0.073986 [  1  19   1  25] 0.073986 [  0   0   1   1]-0.072626 
    [  0  19  13  19]-0.041690 [  0  27  13  27]-0.041690 [ 19  19  19  23]-0.041455 
    --------------------------------------------------------------------------------
    Norm of T2AB vector: (nonzero elements: 19007)                0.490236989782916.
    --------------------------------------------------------------------------------
    Largest T2 amplitudes for spin case BB:
       _   _   _   _              _   _   _   _              _   _   _   _           
       i   j   a   b              i   j   a   b              i   j   a   b           
    --------------------------------------------------------------------------------
    [  1  19  12  19] 0.072818 [  1  27  12  27] 0.072818 [ 19  27  19  33] 0.072468 
    [ 19  27  25  27] 0.072468 [  1  27   1  33] 0.069925 [  1  19   1  25] 0.069925 
    [  0  19  13  19]-0.035134 [  0  27  13  27]-0.035134 [  0   1   1  13] 0.033909 
    [ 19  27  23  27]-0.033399 [ 19  27  19  31]-0.033399 [  1  19   1  23]-0.032488 
    [  1  27   1  31]-0.032488 [  0  19   8  19] 0.027223 [  0  27   8  27] 0.027223 
    --------------------------------------------------------------------------------
    Norm of T2BB vector: (nonzero elements: 18637)                0.473046862149258.
    --------------------------------------------------------------------------------

  ==> Possible Intruders <==

    T1 amplitudes larger than 0.1000 for spin case A: NULL
    T1 amplitudes larger than 0.1000 for spin case B: NULL
    T2 amplitudes larger than 0.1000 for spin case AA: NULL
    T2 amplitudes larger than 0.1000 for spin case AB: NULL
    T2 amplitudes larger than 0.1000 for spin case BB: NULL

  ==> Computing 3rd-Order Energy Contribution (1/3) <==

    Computing 3rd-order energy (1/3)         ...  Done. Timing      1.585 s
    Computing integrals for ref. relaxation  ...  Done. Timing      0.290 s

  ==> Computing 2nd-Order Correlation Energy <==

    Renormalizing two-electron integrals     ...  Done. Timing      0.526 s
    Renormalizing Fock matrix elements       ...  Done. Timing      0.026 s
    Computing 2nd-order energy               ...  Done. Timing      0.222 s
    Computing integrals for ref. relaxation  ...  Done. Timing      0.333 s

  ==> Computing 3rd-Order Energy Contribution (2/3) <==

    Preparing 2nd-order amplitudes           ...  Done. Timing      4.204 s
    Computing T2 amplitudes                  ...  Done. Timing      0.475 s
    Computing T1 amplitudes                  ...  Done. Timing      0.021 s
    Computing 3rd-order energy (2/3)         ...  Done. Timing      0.203 s
    Computing integrals for ref. relaxation  ...  Done. Timing      0.296 s

  ==> Second-Order Amplitudes Summary <==

    Active Indices:    1    2    3   19   20   27   28 
    Largest T1 amplitudes for spin case A:
       i       a                  i       a                  i       a               
    --------------------------------------------------------------------------------
    [ 19      25    ] 0.004586 [ 27      33    ] 0.004586 [  1      12    ]-0.004519 
    [ 19      23    ]-0.004208 [ 27      31    ]-0.004208 [  0      13    ] 0.002971 
    [  0       8    ] 0.002871 [  0       9    ]-0.002438 [ 19      22    ] 0.001203 
    [ 27      30    ] 0.001203 [  3      12    ] 0.000704 [  1       9    ] 0.000681 
    [  1       8    ] 0.000644 [  0       6    ] 0.000605 [  0       5    ]-0.000533 
    --------------------------------------------------------------------------------
    Norm of T1A vector: (nonzero elements: 75)                    0.011270073621844.
    --------------------------------------------------------------------------------
    Largest T1 amplitudes for spin case B:
       _       _                  _       _                  _       _               
       i       a                  i       a                  i       a               
    --------------------------------------------------------------------------------
    [ 19      25    ] 0.004586 [ 27      33    ] 0.004586 [  1      12    ]-0.004519 
    [ 19      23    ]-0.004208 [ 27      31    ]-0.004208 [  0      13    ] 0.002971 
    [  0       8    ] 0.002871 [  0       9    ]-0.002438 [ 19      22    ] 0.001203 
    [ 27      30    ] 0.001203 [  3      12    ] 0.000704 [  1       9    ] 0.000681 
    [  1       8    ] 0.000644 [  0       6    ] 0.000605 [  0       5    ]-0.000533 
    --------------------------------------------------------------------------------
    Norm of T1B vector: (nonzero elements: 75)                    0.011270073621844.
    --------------------------------------------------------------------------------
    Largest T2 amplitudes for spin case AA:
       i   j   a   b              i   j   a   b              i   j   a   b           
    --------------------------------------------------------------------------------
    [  1  27  12  27]-0.030364 [  1  19  12  19]-0.030364 [ 19  27  19  33]-0.026673 
    [ 19  27  25  27]-0.026673 [  1  27   1  33]-0.025794 [  1  19   1  25]-0.025794 
    [  0  27  13  27] 0.014557 [  0  19  13  19] 0.014557 [  0   1   1  13]-0.014205 
    [ 19  27  19  31] 0.012866 [ 19  27  23  27] 0.012866 [  1  27   1  31] 0.011829 
    [  1  19   1  23] 0.011829 [  0  19   8  19]-0.010323 [  0  27   8  27]-0.010323 
    --------------------------------------------------------------------------------
    Norm of T2AA vector: (nonzero elements: 18640)                0.169060684856694.
    --------------------------------------------------------------------------------
    Largest T2 amplitudes for spin case AB:
           _       _                  _       _                  _       _           
       i   j   a   b              i   j   a   b              i   j   a   b           
    --------------------------------------------------------------------------------
    [  1  27  12  27]-0.027238 [  1  19  12  19]-0.027238 [ 19  27  19  33]-0.023182 
    [ 19  27  25  27]-0.023182 [  1   1   1  12]-0.022967 [  1  27   1  33]-0.022526 
    [  1  19   1  25]-0.022526 [ 27  27  27  33]-0.018356 [ 19  19  19  25]-0.018356 
    [ 19  27  19  31] 0.012178 [ 19  27  23  27] 0.012178 [ 19  19  19  23] 0.011704 
    [ 27  27  27  31] 0.011704 [  1  27   1  31] 0.011051 [  1  19   1  23] 0.011051 
    --------------------------------------------------------------------------------
    Norm of T2AB vector: (nonzero elements: 19007)                0.123656230269259.
    --------------------------------------------------------------------------------
    Largest T2 amplitudes for spin case BB:
       _   _   _   _              _   _   _   _              _   _   _   _           
       i   j   a   b              i   j   a   b              i   j   a   b           
    --------------------------------------------------------------------------------
    [  1  27  12  27]-0.030364 [  1  19  12  19]-0.030364 [ 19  27  19  33]-0.026673 
    [ 19  27  25  27]-0.026673 [  1  27   1  33]-0.025794 [  1  19   1  25]-0.025794 
    [  0  27  13  27] 0.014557 [  0  19  13  19] 0.014557 [  0   1   1  13]-0.014205 
    [ 19  27  19  31] 0.012866 [ 19  27  23  27] 0.012866 [  1  27   1  31] 0.011829 
    [  1  19   1  23] 0.011829 [  0  19   8  19]-0.010323 [  0  27   8  27]-0.010323 
    --------------------------------------------------------------------------------
    Norm of T2BB vector: (nonzero elements: 18644)                0.169060684856694.
    --------------------------------------------------------------------------------

  ==> Computing 3rd-Order Energy Contribution (3/3) <==

    Renormalizing Fock matrix elements       ...  Done. Timing      0.026 s
    Renormalizing two-electron integrals     ...  Done. Timing      0.727 s
    Computing 3rd-order energy (3/3)         ...  Done. Timing      0.221 s
    Computing integrals for ref. relaxation  ...  Done. Timing      0.303 s

  ==> DSRG-MRPT3 Energy Summary <==

    E0 (reference)                      =   -106.743354449375559
    2nd-order corr. energy              =     -0.241891751504772
    3rd-order corr. energy part 1       =     -0.000081414209739
    3rd-order corr. energy part 2       =      0.012122979409492
    3rd-order corr. energy part 3       =      0.001521332395112
    3rd-order corr. energy              =      0.013562897594865
    DSRG-MRPT3 corr. energy             =     -0.228328853909907
    DSRG-MRPT3 total energy             =   -106.971683303285459

    Notes:
      3rd-order energy part 1: -1.0 / 12.0 * [[[H0th, A1st], A1st], A1st]
      3rd-order energy part 2: 0.5 * [H1st + Hbar1st, A2nd]
      3rd-order energy part 3: 0.5 * [Hbar2nd, A1st]
      Hbar1st = H1st + [H0th, A1st]
      Hbar2nd = 0.5 * [H1st + Hbar1st, A1st] + [H0th, A2nd]

  ==> De-Normal-Order DSRG Transformed Hamiltonian <==

    Computing the scalar term                ... Done. Timing    0.002 s
    Computing the 1-body term                ... Done. Timing    0.001 s

  ==> Rotate DSRG Transformed Hamiltonian back to Original Basis <==

    Rotating 1-body term to original basis   ... Done. Timing    0.001 s
    Rotating 2-body term to original basis   ... Done. Timing    0.018 s

  ==> Compute Elements of Effective Hamiltonian <==

  Compute transition densities of 1->0. Use Hermiticity of Hbar.
  Computing 1TrDM (0-1) of Singlet A1 ... Reading ... Done. Timing        0.000106 s
  Computing 2TrDM (0-1) of Singlet A1 ... Reading ... Done. Timing        0.000167 s
  Contract transition densities with Heff.
  Compute densities of 1->1.
  Computing  1RDM (1-1) of Singlet A1 ... Reading ... Done. Timing        0.000078 s
  Computing  2RDM (1-1) of Singlet A1 ... Reading ... Done. Timing        0.000164 s
  Contract densities with Heff.

  ==> Total Timings (s) for Computing Commutators <==

             [H1, T1]    [H1, T2]    [H2, T1]    [H2, T2]
    -----------------------------------------------------
    -> C0       0.007       0.021       0.021       0.801
    -> C1       0.014       0.119       0.151       2.271
    -> C2                   0.315       0.385       2.521
    -----------------------------------------------------


  ==> Effective Hamiltonian Summary <==

  ## Heff Singlet A1 (Symmetry 0) ##
  Irrep: 1 Size: 2 x 2

                 1                   2

    1  -106.96175622858648    -0.00727898739777
    2    -0.00809892216095  -106.97581793739714



  ## Symmetrized Heff Singlet A1 (Symmetry 0) ##
  Irrep: 1 Size: 2 x 2

                 1                   2

    1  -106.96175622858648    -0.00768895477936
    2    -0.00768895477936  -106.97581793739714



  ## U of Heff (Symmetrized) with eigenvalues ##
 Irrep: 1

           1           2

    1   0.4032251  -0.9151008
    2   0.9151008   0.4032251

     -106.9792060-106.9583682



  ==> Dynamically Weighted Driven Similarity Renormalization Group Energy Summary <==

    Multi.  Irrep.  No.                   CASCI
    -------------------------------------------
       1      A1     0      -106.77257383513552
       1      A1     1      -106.73579815098157
    -------------------------------------------

    Multi.  Irrep.  No.           DW-DSRG-SAPT3
    -------------------------------------------
       1      A1     0      -106.97920595717609
       1      A1     1      -106.95836820880754
    -------------------------------------------
	DWSA-DSRG-PT3 energy on root 0....................................PASSED
	DWSA-DSRG-PT3 energy on root 1....................................PASSED
   => Loading Basis Set <=

    Name: STO-3G
    Role: ORBITAL
    Keyword: MINAO_BASIS
    atoms 1 entry LI         line    31 file /Users/york/src/psi4new/psi4/share/psi4/basis/sto-3g.gbs 
    atoms 2 entry F          line    91 file /Users/york/src/psi4new/psi4/share/psi4/basis/sto-3g.gbs 


Reading options from the FORTE block
Calling plugin forte.so.



  Forte
  ----------------------------------------------------------------------------
  A suite of quantum chemistry methods for strongly correlated electrons

    git branch: dwsa-dsrg-pt - git commit: 5258b91f

  Developed by:
    Francesco A. Evangelista, Chenyang Li, Kevin P. Hannon,
    Jeffrey B. Schriber, Tianyuan Zhang, Chenxi Cai
  ----------------------------------------------------------------------------

  Size of Determinant class: 32

  ==> MO Space Information <==

  Read options for space FROZEN_DOCC
  Read options for space RESTRICTED_DOCC
  Read options for space ACTIVE
 Removing orbital 0
 Removing orbital 1
  -------------------------------------------------
                       A1    A2    B1    B2   Sum
  -------------------------------------------------
    FROZEN_DOCC         2     0     0     0     2
    RESTRICTED_DOCC     1     0     0     0     1
    ACTIVE              3     0     2     2     7
    RESTRICTED_UOCC    12     3     6     6    27
    FROZEN_UOCC         0     0     0     0     0
    Total              18     3     8     8    37
  -------------------------------------------------

  ==> Integral Transformation <==

  Number of molecular orbitals:               37
  Number of correlated molecular orbitals:    35
  Number of frozen occupied orbitals:          2
  Number of frozen unoccupied orbitals:        0


  Cholesky integrals time
 Computing the Cholesky Vectors 

    Computing CD Integrals               ......Done. Timing        0.802016 s
 Need 0.003743 GB to store cd integrals in core

 Number of cholesky vectors 367 to satisfy       0.000000000100 tolerance

  Frozen-core energy            -84.713599407176 a.u.

  FrozenOneBody Operator takes  0.81136700 s
  Resorting integrals after freezing core.
  CholeskyIntegrals take 1.80874900

        ----------------------------------------------------------------
          Dynamically Weighted Driven Similarity Renormalization Group
                        Multi-State Perturbation Theory
                                  Chenyang Li
        ----------------------------------------------------------------


  ==> DWMS-DSRG Options <==

    CORRELATION LEVEL         PT3
    ZETA VALUE           1.00e+03
    REFERENCE               CASCI
    ALGORITHM                  SA

  ==> Implementation Note on SA <==

  - Perform CASCI using user-defined weights.
  - Loop over symmetry entries:
    - Initialize effective Hamiltonian Heff.
    - Loop over averaged states:
      - Compute new density weights if ζ is nonzero.
      - Semicanonicalize orbitals.
      - Put SS-DSRG-PT2 energy to diagonal of Heff.
      - Compute couplings of Heff:
        - De-normal-order Hbar.
        - Compute 1, 2, 3 transition densities.
        - <A|Heff|B> <- 0.5 * <A|Hbar(B)|B>.
  - Collect and print energies.


              ---------------------------------------------------
                Complete Active Space Configuration Interaction
                                  Chenyang Li
              ---------------------------------------------------


  ==> Input Summary <==

    No. a electrons in active      =     3
    No. b electrons in active      =     3
    multiplicity                   =     1
    spin ms (2 * Sz)               =     0

  ==> Orbital Spaces <==

    TOTAL MO                      [   18     3     8     8 ]
    FROZEN CORE                   [    2     0     0     0 ]
    FROZEN VIRTUAL                [    0     0     0     0 ]
    CORRELATED MO                 [   16     3     8     8 ]
    CORE                          [    1     0     0     0 ]
    ACTIVE                        [    3     0     2     2 ]
    VIRTUAL                       [   12     3     6     6 ]

  ==> State Averaging Summary <==

    Irrep.  Multi.  Nstates      Weights
    ------------------------------------
      A1       1        2    0.500 0.500
    ------------------------------------
    Total number of states: 2
    ------------------------------------

  Forming alpha and beta strings      ...  Done. Timing        0.000094 s
  Forming determinants                ...  Done. Timing        0.000138 s

  ==> Determinants Summary <==

    number of alpha active electrons         =     3
    number of beta active electrons          =     3
    root symmetry (zero based)               =     0
    number of determinants                   =   321

  Diagonalizing Hamiltonian           ...

  ==> Computing Coupling Lists <==
  --------------------------------
        α          0.001250 s
        β          0.001255 s
        αα         0.001212 s
        ββ         0.001068 s
        αβ         0.002800 s
  --------------------------------

  Davidson-Liu solver algorithm
  Using SPARSE sigma builder
  Initial guess space is incomplete!
  Trying to add 25 determinant(s).  25 determinant(s) added.
  Initial guess found 89 solutions with 2S+1 = 1 *
  Initial guess found 103 solutions with 2S+1 = 3  
  Initial guess found 30 solutions with 2S+1 = 5  
  Initial guess found 3 solutions with 2S+1 = 7  
  Adding guess 0 (multiplicity = 1.000000)
  Adding guess 1 (multiplicity = 1.000000)
  Adding guess 2 (multiplicity = 1.000000)
  Adding guess 3 (multiplicity = 1.000000)

  ==> Diagonalizing Hamiltonian <==

  ----------------------------------------
    Iter.      Avg. Energy       Delta_E
  ----------------------------------------
      1      -97.331220979556  -9.733e+01
      2      -97.331220979556  -5.400e-13
  ----------------------------------------
  The Davidson-Liu algorithm converged in 3 iterations.
  Davidson-Liu procedure took  0.318434 s  Done. Timing        0.328390 s

  * * * * * * * * * * * * * * * * *
  *  CI Vectors & Configurations  *
  * * * * * * * * * * * * * * * * *

  ==> Root No. 0 <==

    ba0 20 20          0.6992227066
    ab0 20 20          0.6992227066
    200 20 20          0.1460778803

    Total Energy:   -106.772573835135489


  ==> Root No. 1 <==

    200 20 20         -0.9609078851
    b0a 20 20         -0.1530225596
    a0b 20 20         -0.1530225596
    ba0 20 20          0.1034192684
    ab0 20 20          0.1034192684

    Total Energy:   -106.735798150981935



  ==> Permanent Dipole Moments (A1) <==

  Only print nonzero (> 1.0e-5) elements.
  Permanent dipole moments (a.u.) 0 -> 0:  X:  0.0000  Y:  0.0000  Z: -0.2189  Total:  0.2189
  Permanent dipole moments (a.u.) 1 -> 1:  X:  0.0000  Y:  0.0000  Z: -8.9753  Total:  8.9753


  ==> Transition Dipole Moments (A1 -> A1) <==

  Only print nonzero (> 1.0e-5) elements.
  Transition dipole moments (a.u.) 0 -> 1:  X:  0.0000  Y:  0.0000  Z:  1.7577  Total:  1.7577


  ==> Oscillator Strength (A1 -> A1) <==

  Only print nonzero (> 1.0e-5) elements.
  Oscillator strength (a.u.) 0 -> 1:  X:  0.0000  Y:  0.0000  Z:  0.0757  Total:  0.0757

  Total Energy (averaged over 2 states): -106.754185993058712


  =========================================
  Build Effective Hamiltonian of Singlet A1
  =========================================


  ==> Compute DSRG-MRPT3 Energy of Root 0 <==


  ==> Original State Averaging Summary <==

    Irrep.  Multi.  Nroots       Weights
    ------------------------------------
      A1       1       2     0.500 0.500
    ------------------------------------

  ==> Reweighted State Averaging Summary <==

    Irrep.  Multi.  Nroots       Weights
    ------------------------------------
      A1       1       2     0.795 0.205
    ------------------------------------

  ==> Compute State-Averaged Cumulants <==

  Computing  1RDM (0-0) of Singlet A1 ... Writing ... Done. Timing        0.003417 s
  Computing  2RDM (0-0) of Singlet A1 ... Writing ... Done. Timing        0.006556 s
  Computing  3RDM (0-0) of Singlet A1 ... Writing ... Done. Timing        0.025505 s
  Computing  1RDM (1-1) of Singlet A1 ... Writing ... Done. Timing        0.003443 s
  Computing  2RDM (1-1) of Singlet A1 ... Writing ... Done. Timing        0.007105 s
  Computing  3RDM (1-1) of Singlet A1 ... Writing ... Done. Timing        0.025827 s
  Adding wedge product for 2-cumulants ... Done. Timing        0.001157 s
  Adding wedge product for 3-cumulants ... Done. Timing        0.226276 s

  ==> Multireference Driven Similarity Renormalization Group <==

    Reading DSRG options ............................ Done
    Setting ambit MO space .......................... Done
    Preparing tensors for density cumulants ......... Done
    Building Fock matrix ............................ Done
    Checking reference energy ....................... Done

                  -------------------------------------------
                    MR-DSRG Third-Order Perturbation Theory
                                  Chenyang Li
                  -------------------------------------------

    Reference:
      J. Chem. Phys. 2017, 146, 124132.

  ==> Calculation Information <==

    ntamp                                                 15
    flow parameter                                 5.000e-01
    taylor expansion threshold                     1.000e-03
    intruder_tamp                                  1.000e-01
    int_type                                        CHOLESKY
    source operator                                 STANDARD
    reference relaxation                                NONE
    state_type                                   MULTI-STATE
    multi-state type                                 SA_FULL

  ==> Memory Infomation <==

    Memory asigned                                   0.98 GB
    Memory used before DSRG                          7.67 MB
    Tensor B (3 index)                               7.19 MB
    Density Cumulants (1, 2)                        59.19 KB
    Asym MO tei (hhpp)                               1.78 MB
    Fock matrix                                     39.76 KB
    Hbar active (aa, aaaa)                          58.41 KB
    Amplitudes (hp, hhpp)                            1.72 MB
    O intermediates (hp, hhpp)                       1.72 MB
    Memory remaining                                 0.96 GB
    Energy part 1 min                                1.73 MB
    Energy part 2 min                                1.73 MB

  ==> Checking Semicanonical Orbitals <==

    Abs. max of Fock core, active, virtual blocks (Fij, i != j)
                  core          active         virtual
    --------------------------------------------------
    Fα    0.0000000000    0.0061957302    0.0349387895
    Fβ    0.0000000000    0.0061957302    0.0349387895
    --------------------------------------------------

    1-Norm of Fock core, active, virtual blocks (Fij, i != j)
                  core          active         virtual
    --------------------------------------------------
    Fα    0.0000000000    0.0275850781    1.0176866892
    Fβ    0.0000000000    0.0275850781    1.0176866892
    --------------------------------------------------

    Warning! Orbitals are not semi-canonicalized!
    Orbital invariant formalism will be employed for DSRG-MRPT3.

  ==> First-Order Amplitudes <==

    Computing T2 amplitudes                  ...  Done. Timing      0.496 s
    Computing T1 amplitudes                  ...  Done. Timing      0.024 s
    Active Indices:    1    2    3   19   20   27   28 
    Largest T1 amplitudes for spin case A:
       i       a                  i       a                  i       a               
    --------------------------------------------------------------------------------
    [ 27      33    ]-0.021257 [ 19      25    ]-0.021257 [ 19      23    ] 0.012150 
    [ 27      31    ] 0.012150 [  0      13    ] 0.011163 [  0       8    ]-0.008820 
    [  0       9    ] 0.007513 [  1      12    ]-0.005861 [ 27      30    ]-0.003528 
    [ 19      22    ]-0.003528 [  1       9    ]-0.002335 [  0       5    ] 0.001763 
    [  0       6    ]-0.001749 [  2       5    ] 0.001537 [  1      10    ]-0.001476 
    --------------------------------------------------------------------------------
    Norm of T1A vector: (nonzero elements: 75)                    0.039354624022547.
    --------------------------------------------------------------------------------
    Largest T1 amplitudes for spin case B:
       _       _                  _       _                  _       _               
       i       a                  i       a                  i       a               
    --------------------------------------------------------------------------------
    [ 27      33    ]-0.021257 [ 19      25    ]-0.021257 [ 19      23    ] 0.012150 
    [ 27      31    ] 0.012150 [  0      13    ] 0.011163 [  0       8    ]-0.008820 
    [  0       9    ] 0.007513 [  1      12    ]-0.005861 [ 27      30    ]-0.003528 
    [ 19      22    ]-0.003528 [  1       9    ]-0.002335 [  0       5    ] 0.001763 
    [  0       6    ]-0.001749 [  2       5    ] 0.001537 [  1      10    ]-0.001476 
    --------------------------------------------------------------------------------
    Norm of T1B vector: (nonzero elements: 75)                    0.039354624022547.
    --------------------------------------------------------------------------------
    Largest T2 amplitudes for spin case AA:
       i   j   a   b              i   j   a   b              i   j   a   b           
    --------------------------------------------------------------------------------
    [  1  27  12  27] 0.074236 [  1  19  12  19] 0.074236 [ 19  27  25  27] 0.071187 
    [ 19  27  19  33] 0.071187 [  1  19   1  25] 0.068689 [  1  27   1  33] 0.068689 
    [ 19  27  19  31]-0.040284 [ 19  27  23  27]-0.040284 [  1  27   1  31]-0.039196 
    [  1  19   1  23]-0.039196 [  0  19  13  19]-0.035084 [  0  27  13  27]-0.035084 
    [  0   1   1  13] 0.033894 [  0  27   8  27] 0.027266 [  0  19   8  19] 0.027266 
    --------------------------------------------------------------------------------
    Norm of T2AA vector: (nonzero elements: 18635)                0.482035650701311.
    --------------------------------------------------------------------------------
    Largest T2 amplitudes for spin case AB:
           _       _                  _       _                  _       _           
       i   j   a   b              i   j   a   b              i   j   a   b           
    --------------------------------------------------------------------------------
    [ 19  19  19  25] 0.084515 [ 27  27  27  33] 0.084515 [  1   1   1  12] 0.084417 
    [  1  27  12  27] 0.078987 [  1  19  12  19] 0.078987 [  0   0  27  27]-0.076415 
    [  0   0  19  19]-0.076415 [ 19  27  25  27] 0.075630 [ 19  27  19  33] 0.075630 
    [  1  19   1  25] 0.072674 [  1  27   1  33] 0.072674 [  0   0   1   1]-0.067128 
    [ 27  27  27  31]-0.050019 [ 19  19  19  23]-0.050019 [ 19  27  19  31]-0.043529 
    --------------------------------------------------------------------------------
    Norm of T2AB vector: (nonzero elements: 19007)                0.498061623688579.
[...]
  Computing  2RDM (0-0) of Singlet A1 ... Reading ... Done. Timing        0.000165 s
  Contract densities with Heff.
  Compute transition densities of 0->1.
  Computing 1TrDM (0-1) of Singlet A1 ... Writing ... Done. Timing        0.003293 s
  Computing 2TrDM (0-1) of Singlet A1 ... Writing ... Done. Timing        0.006314 s
  Contract transition densities with Heff.

  ==> Total Timings (s) for Computing Commutators <==

             [H1, T1]    [H1, T2]    [H2, T1]    [H2, T2]
    -----------------------------------------------------
    -> C0       0.007       0.020       0.020       0.782
    -> C1       0.014       0.105       0.230       2.194
    -> C2                   0.297       0.480       2.364
    -----------------------------------------------------


  ==> Compute DSRG-MRPT3 Energy of Root 1 <==


  ==> Original State Averaging Summary <==

    Irrep.  Multi.  Nroots       Weights
    ------------------------------------
      A1       1       2     0.795 0.205
    ------------------------------------

  ==> Reweighted State Averaging Summary <==

    Irrep.  Multi.  Nroots       Weights
    ------------------------------------
      A1       1       2     0.205 0.795
    ------------------------------------

  ==> Compute State-Averaged Cumulants <==

  Computing  1RDM (0-0) of Singlet A1 ... Reading ... Done. Timing        0.000114 s
  Computing  2RDM (0-0) of Singlet A1 ... Reading ... Done. Timing        0.000167 s
  Computing  3RDM (0-0) of Singlet A1 ... Reading ... Done. Timing        0.005095 s
  Computing  1RDM (1-1) of Singlet A1 ... Reading ... Done. Timing        0.000124 s
  Computing  2RDM (1-1) of Singlet A1 ... Reading ... Done. Timing        0.000164 s
  Computing  3RDM (1-1) of Singlet A1 ... Reading ... Done. Timing        0.004789 s
  Adding wedge product for 2-cumulants ... Done. Timing        0.001046 s
  Adding wedge product for 3-cumulants ... Done. Timing        0.198302 s

  ==> Multireference Driven Similarity Renormalization Group <==

    Reading DSRG options ............................ Done
    Setting ambit MO space .......................... Done
    Preparing tensors for density cumulants ......... Done
    Building Fock matrix ............................ Done
    Checking reference energy ....................... Done

                  -------------------------------------------
                    MR-DSRG Third-Order Perturbation Theory
                                  Chenyang Li
                  -------------------------------------------

    Reference:
      J. Chem. Phys. 2017, 146, 124132.

  ==> Calculation Information <==

    ntamp                                                 15
    flow parameter                                 5.000e-01
    taylor expansion threshold                     1.000e-03
    intruder_tamp                                  1.000e-01
    int_type                                        CHOLESKY
    source operator                                 STANDARD
    reference relaxation                                NONE
    state_type                                   MULTI-STATE
    multi-state type                                 SA_FULL

  ==> Memory Infomation <==

    Memory asigned                                   0.98 GB
    Memory used before DSRG                          7.67 MB
    Tensor B (3 index)                               7.19 MB
    Density Cumulants (1, 2)                        59.19 KB
    Asym MO tei (hhpp)                               1.78 MB
    Fock matrix                                     39.76 KB
    Hbar active (aa, aaaa)                          58.41 KB
    Amplitudes (hp, hhpp)                            1.72 MB
    O intermediates (hp, hhpp)                       1.72 MB
    Memory remaining                                 0.96 GB
    Energy part 1 min                                1.73 MB
    Energy part 2 min                                1.73 MB

  ==> Checking Semicanonical Orbitals <==

    Abs. max of Fock core, active, virtual blocks (Fij, i != j)
                  core          active         virtual
    --------------------------------------------------
    Fα    0.0000000000    0.0067499939    0.0364472707
    Fβ    0.0000000000    0.0067499939    0.0364472707
    --------------------------------------------------

    1-Norm of Fock core, active, virtual blocks (Fij, i != j)
                  core          active         virtual
    --------------------------------------------------
    Fα    0.0000000000    0.0208157400    1.0498491906
    Fβ    0.0000000000    0.0208157400    1.0498491906
    --------------------------------------------------

    Warning! Orbitals are not semi-canonicalized!
    Orbital invariant formalism will be employed for DSRG-MRPT3.

  ==> First-Order Amplitudes <==

    Computing T2 amplitudes                  ...  Done. Timing      0.537 s
    Computing T1 amplitudes                  ...  Done. Timing      0.019 s
    Active Indices:    1    2    3   19   20   27   28 
    Largest T1 amplitudes for spin case A:
       i       a                  i       a                  i       a               
    --------------------------------------------------------------------------------
    [ 27      33    ]-0.021811 [ 19      25    ]-0.021811 [ 19      23    ] 0.012525 
    [ 27      31    ] 0.012525 [  0      13    ] 0.011452 [  0       8    ]-0.009046 
    [  0       9    ] 0.007736 [  1      12    ]-0.006167 [ 27      30    ]-0.003647 
    [ 19      22    ]-0.003647 [  1       9    ]-0.002535 [  0       6    ]-0.001852 
    [  0       5    ] 0.001797 [  1       8    ]-0.001559 [  2       5    ] 0.001530 
    --------------------------------------------------------------------------------
    Norm of T1A vector: (nonzero elements: 75)                    0.040467443272846.
    --------------------------------------------------------------------------------
    Largest T1 amplitudes for spin case B:
       _       _                  _       _                  _       _               
       i       a                  i       a                  i       a               
    --------------------------------------------------------------------------------
    [ 27      33    ]-0.021811 [ 19      25    ]-0.021811 [ 19      23    ] 0.012525 
    [ 27      31    ] 0.012525 [  0      13    ] 0.011452 [  0       8    ]-0.009046 
    [  0       9    ] 0.007736 [  1      12    ]-0.006167 [ 27      30    ]-0.003647 
    [ 19      22    ]-0.003647 [  1       9    ]-0.002535 [  0       6    ]-0.001852 
    [  0       5    ] 0.001797 [  1       8    ]-0.001559 [  2       5    ] 0.001530 
    --------------------------------------------------------------------------------
    Norm of T1B vector: (nonzero elements: 75)                    0.040467443272846.
    --------------------------------------------------------------------------------
    Largest T2 amplitudes for spin case AA:
       i   j   a   b              i   j   a   b              i   j   a   b           
    --------------------------------------------------------------------------------
    [  1  27  12  27] 0.074261 [  1  19  12  19] 0.074261 [ 19  27  25  27] 0.071170 
    [ 19  27  19  33] 0.071170 [  1  19   1  25] 0.068673 [  1  27   1  33] 0.068673 
    [ 19  27  19  31]-0.040378 [ 19  27  23  27]-0.040378 [  1  27   1  31]-0.039291 
    [  1  19   1  23]-0.039291 [  0  19  13  19]-0.035084 [  0  27  13  27]-0.035084 
    [  0   1   1  13] 0.033895 [  0  27   8  27] 0.027263 [  0  19   8  19] 0.027263 
    --------------------------------------------------------------------------------
    Norm of T2AA vector: (nonzero elements: 18641)                0.482191484136992.
    --------------------------------------------------------------------------------
    Largest T2 amplitudes for spin case AB:
           _       _                  _       _                  _       _           
       i   j   a   b              i   j   a   b              i   j   a   b           
    --------------------------------------------------------------------------------
    [ 19  19  19  25] 0.084496 [ 27  27  27  33] 0.084496 [  1   1   1  12] 0.084446 
    [  1  27  12  27] 0.079013 [  1  19  12  19] 0.079013 [  0   0  27  27]-0.076415 
    [  0   0  19  19]-0.076415 [ 19  27  25  27] 0.075612 [ 19  27  19  33] 0.075612 
    [  1  19   1  25] 0.072658 [  1  27   1  33] 0.072658 [  0   0   1   1]-0.067024 
    [ 27  27  27  31]-0.050136 [ 19  19  19  23]-0.050136 [ 19  27  19  31]-0.043631 
    --------------------------------------------------------------------------------
    Norm of T2AB vector: (nonzero elements: 19007)                0.498198260974570.
    --------------------------------------------------------------------------------
    Largest T2 amplitudes for spin case BB:
       _   _   _   _              _   _   _   _              _   _   _   _           
       i   j   a   b              i   j   a   b              i   j   a   b           
    --------------------------------------------------------------------------------
    [  1  27  12  27] 0.074261 [  1  19  12  19] 0.074261 [ 19  27  25  27] 0.071170 
    [ 19  27  19  33] 0.071170 [  1  19   1  25] 0.068673 [  1  27   1  33] 0.068673 
    [ 19  27  19  31]-0.040378 [ 19  27  23  27]-0.040378 [  1  27   1  31]-0.039291 
    [  1  19   1  23]-0.039291 [  0  19  13  19]-0.035084 [  0  27  13  27]-0.035084 
    [  0   1   1  13] 0.033895 [  0  27   8  27] 0.027263 [  0  19   8  19] 0.027263 
    --------------------------------------------------------------------------------
    Norm of T2BB vector: (nonzero elements: 18641)                0.482191484136992.
    --------------------------------------------------------------------------------

  ==> Possible Intruders <==

    T1 amplitudes larger than 0.1000 for spin case A: NULL
    T1 amplitudes larger than 0.1000 for spin case B: NULL
    T2 amplitudes larger than 0.1000 for spin case AA: NULL
    T2 amplitudes larger than 0.1000 for spin case AB: NULL
    T2 amplitudes larger than 0.1000 for spin case BB: NULL

  ==> Computing 3rd-Order Energy Contribution (1/3) <==

    Computing 3rd-order energy (1/3)         ...  Done. Timing      1.458 s
    Computing integrals for ref. relaxation  ...  Done. Timing      0.284 s

  ==> Computing 2nd-Order Correlation Energy <==

    Renormalizing two-electron integrals     ...  Done. Timing      0.513 s
    Renormalizing Fock matrix elements       ...  Done. Timing      0.025 s
    Computing 2nd-order energy               ...  Done. Timing      0.203 s
    Computing integrals for ref. relaxation  ...  Done. Timing      0.311 s

  ==> Computing 3rd-Order Energy Contribution (2/3) <==

    Preparing 2nd-order amplitudes           ...  Done. Timing      3.012 s
    Computing T2 amplitudes                  ...  Done. Timing      0.437 s
    Computing T1 amplitudes                  ...  Done. Timing      0.019 s
    Computing 3rd-order energy (2/3)         ...  Done. Timing      0.190 s
    Computing integrals for ref. relaxation  ...  Done. Timing      0.277 s

  ==> Second-Order Amplitudes Summary <==

    Active Indices:    1    2    3   19   20   27   28 
    Largest T1 amplitudes for spin case A:
       i       a                  i       a                  i       a               
    --------------------------------------------------------------------------------
    [ 27      33    ] 0.018263 [ 19      25    ] 0.018263 [ 27      31    ]-0.011974 
    [ 19      23    ]-0.011974 [  0       8    ] 0.006254 [  0       9    ]-0.005216 
    [  0      13    ]-0.004654 [ 19      22    ] 0.003513 [ 27      30    ] 0.003513 
    [  1       9    ] 0.002990 [  1       8    ] 0.002740 [  1       6    ]-0.001959 
    [  1      12    ] 0.001553 [  0       6    ] 0.001253 [  0       5    ]-0.001184 
    --------------------------------------------------------------------------------
    Norm of T1A vector: (nonzero elements: 75)                    0.033099671029078.
    --------------------------------------------------------------------------------
    Largest T1 amplitudes for spin case B:
       _       _                  _       _                  _       _               
       i       a                  i       a                  i       a               
    --------------------------------------------------------------------------------
    [ 27      33    ] 0.018263 [ 19      25    ] 0.018263 [ 27      31    ]-0.011974 
    [ 19      23    ]-0.011974 [  0       8    ] 0.006254 [  0       9    ]-0.005216 
    [  0      13    ]-0.004654 [ 19      22    ] 0.003513 [ 27      30    ] 0.003513 
    [  1       9    ] 0.002990 [  1       8    ] 0.002740 [  1       6    ]-0.001959 
    [  1      12    ] 0.001553 [  0       6    ] 0.001253 [  0       5    ]-0.001184 
    --------------------------------------------------------------------------------
    Norm of T1B vector: (nonzero elements: 75)                    0.033099671029078.
    --------------------------------------------------------------------------------
    Largest T2 amplitudes for spin case AA:
       i   j   a   b              i   j   a   b              i   j   a   b           
    --------------------------------------------------------------------------------
    [  1  19  12  19]-0.031377 [  1  27  12  27]-0.031377 [  1  19   1  25]-0.020667 
    [  1  27   1  33]-0.020667 [ 19  27  25  27]-0.018979 [ 19  27  19  33]-0.018979 
    [ 19  27  19  31] 0.014469 [ 19  27  23  27] 0.014469 [  0   1   1  13]-0.012276 
    [  1  19   1  23] 0.011956 [  1  27   1  31] 0.011956 [  0  19  13  19] 0.011635 
    [  0  27  13  27] 0.011635 [  1  19   9  19]-0.010737 [  1  27   9  27]-0.010737 
    --------------------------------------------------------------------------------
    Norm of T2AA vector: (nonzero elements: 18644)                0.153290415055401.
    --------------------------------------------------------------------------------
    Largest T2 amplitudes for spin case AB:
           _       _                  _       _                  _       _           
       i   j   a   b              i   j   a   b              i   j   a   b           
    --------------------------------------------------------------------------------
    [  1   1   1  12]-0.028688 [  1  19  12  19]-0.028553 [  1  27  12  27]-0.028553 
    [  1  19   1  25]-0.017345 [  1  27   1  33]-0.017345 [  0   0   1   1]-0.017190 
    [ 19  27  25  27]-0.015043 [ 19  27  19  33]-0.015043 [ 19  27  19  31] 0.013786 
    [ 19  27  23  27] 0.013786 [ 27  27  27  31] 0.013498 [ 19  19  19  23] 0.013498 
    [  1  19   1  23] 0.010870 [  1  27   1  31] 0.010870 [  1  19   9  19]-0.010435 
    --------------------------------------------------------------------------------
    Norm of T2AB vector: (nonzero elements: 19007)                0.117088350781530.
    --------------------------------------------------------------------------------
    Largest T2 amplitudes for spin case BB:
       _   _   _   _              _   _   _   _              _   _   _   _           
       i   j   a   b              i   j   a   b              i   j   a   b           
    --------------------------------------------------------------------------------
    [  1  19  12  19]-0.031377 [  1  27  12  27]-0.031377 [  1  19   1  25]-0.020667 
    [  1  27   1  33]-0.020667 [ 19  27  25  27]-0.018979 [ 19  27  19  33]-0.018979 
    [ 19  27  19  31] 0.014469 [ 19  27  23  27] 0.014469 [  0   1   1  13]-0.012276 
    [  1  19   1  23] 0.011956 [  1  27   1  31] 0.011956 [  0  19  13  19] 0.011635 
    [  0  27  13  27] 0.011635 [  1  19   9  19]-0.010737 [  1  27   9  27]-0.010737 
    --------------------------------------------------------------------------------
    Norm of T2BB vector: (nonzero elements: 18643)                0.153290415055401.
    --------------------------------------------------------------------------------

  ==> Computing 3rd-Order Energy Contribution (3/3) <==

    Renormalizing Fock matrix elements       ...  Done. Timing      0.026 s
    Renormalizing two-electron integrals     ...  Done. Timing      0.541 s
    Computing 3rd-order energy (3/3)         ...  Done. Timing      0.219 s
    Computing integrals for ref. relaxation  ...  Done. Timing      0.357 s

  ==> DSRG-MRPT3 Energy Summary <==

    E0 (reference)                      =   -106.764540936701138
    2nd-order corr. energy              =     -0.220366153190924
    3rd-order corr. energy part 1       =      0.004554610721329
    3rd-order corr. energy part 2       =      0.011035282173715
    3rd-order corr. energy part 3       =      0.003434865899140
    3rd-order corr. energy              =      0.019024758794183
    DSRG-MRPT3 corr. energy             =     -0.201341394396741
    DSRG-MRPT3 total energy             =   -106.965882331097873

    Notes:
      3rd-order energy part 1: -1.0 / 12.0 * [[[H0th, A1st], A1st], A1st]
      3rd-order energy part 2: 0.5 * [H1st + Hbar1st, A2nd]
      3rd-order energy part 3: 0.5 * [Hbar2nd, A1st]
      Hbar1st = H1st + [H0th, A1st]
      Hbar2nd = 0.5 * [H1st + Hbar1st, A1st] + [H0th, A2nd]

  ==> De-Normal-Order DSRG Transformed Hamiltonian <==

    Computing the scalar term                ... Done. Timing    0.002 s
    Computing the 1-body term                ... Done. Timing    0.001 s

  ==> Rotate DSRG Transformed Hamiltonian back to Original Basis <==

    Rotating 1-body term to original basis   ... Done. Timing    0.001 s
    Rotating 2-body term to original basis   ... Done. Timing    0.018 s

  ==> Compute Elements of Effective Hamiltonian <==

  Compute transition densities of 1->0. Use Hermiticity of Hbar.
  Computing 1TrDM (0-1) of Singlet A1 ... Reading ... Done. Timing        0.000103 s
  Computing 2TrDM (0-1) of Singlet A1 ... Reading ... Done. Timing        0.000168 s
  Contract transition densities with Heff.
  Compute densities of 1->1.
  Computing  1RDM (1-1) of Singlet A1 ... Reading ... Done. Timing        0.000080 s
  Computing  2RDM (1-1) of Singlet A1 ... Reading ... Done. Timing        0.000166 s
  Contract densities with Heff.

  ==> Total Timings (s) for Computing Commutators <==

             [H1, T1]    [H1, T2]    [H2, T1]    [H2, T2]
    -----------------------------------------------------
    -> C0       0.007       0.020       0.019       0.755
    -> C1       0.012       0.102       0.212       2.057
    -> C2                   0.294       0.436       2.342
    -----------------------------------------------------


  ==> Effective Hamiltonian Summary <==

  ## Heff Singlet A1 (Symmetry 0) ##
  Irrep: 1 Size: 2 x 2

                 1                   2

    1  -106.97740829521722    -0.00384786109266
    2    -0.00423866832441  -106.96002009855698



  ## Symmetrized Heff Singlet A1 (Symmetry 0) ##
  Irrep: 1 Size: 2 x 2

                 1                   2

    1  -106.97740829521722    -0.00404326470853
    2    -0.00404326470853  -106.96002009855698



  ## U of Heff (Symmetrized) with eigenvalues ##
 Irrep: 1

           1           2

    1  -0.9764070   0.2159385
    2  -0.2159385  -0.9764070

     -106.9783025-106.9591259



  ==> Dynamically Weighted Driven Similarity Renormalization Group Energy Summary <==

    Multi.  Irrep.  No.                   CASCI
    -------------------------------------------
       1      A1     0      -106.77257383513549
       1      A1     1      -106.73579815098194
    -------------------------------------------

    Multi.  Irrep.  No.          DW-DSRG-XSAPT3
    -------------------------------------------
       1      A1     0      -106.97830248845949
       1      A1     1      -106.95912590531469
    -------------------------------------------
	DWXSA-DSRG-PT3 (CD) energy on root 0..............................PASSED
	DWXSA-DSRG-PT3 (CD) energy on root 1..............................PASSED

*** Psi4 exiting successfully. Buy a developer a beer!
