    -----------------------------------------------------------------------
          Psi4: An Open-Source Ab Initio Electronic Structure Package
                              Psi4 0.1.233 Driver

                          Git: Rev {detached?} ced593a dirty

    J. M. Turney, A. C. Simmonett, R. M. Parrish, E. G. Hohenstein,
    F. A. Evangelista, J. T. Fermann, B. J. Mintz, L. A. Burns, J. J. Wilke,
    M. L. Abrams, N. J. Russ, M. L. Leininger, C. L. Janssen, E. T. Seidl,
    W. D. Allen, H. F. Schaefer, R. A. King, E. F. Valeev, C. D. Sherrill,
    and T. D. Crawford, WIREs Comput. Mol. Sci. 2, 556-565 (2012)
    (doi: 10.1002/wcms.93)

                         Additional Contributions by
    A. E. DePrince, M. Saitow, U. Bozkaya, A. Yu. Sokolov
    -----------------------------------------------------------------------


    Psi4 started on: 12-13-2015  03:56:39 PM EST

    Process ID:  65686
    PSI4DATADIR: /Users/kevinhannon/Programs/psi4cmake/psi4/lib
    Memory level set to 256.000 MB

  ==> Input File <==

--------------------------------------------------------------------------
dsrg_mrpt2_energy = -380.704212919242991
import forte

molecule mol{
0 3
 C    1.44369768    -4.66305528   0.0000
 C   -1.44369768    -4.66305528   0.0000
 C   -2.58365462    -2.43626592   0.0000
 C   -1.46531074    -0.09358884   0.0000
 C    1.46531074    -0.09358884   0.0000
 C    2.58365462    -2.43626592   0.0000
 C    2.65860246     2.30113350   0.0000
 C    1.33027358     4.54730911   0.0000
 C   -1.33027358     4.54730911   0.0000
 C   -2.65860246     2.30113350   0.0000
 H    2.27824793    -6.54344554   0.0000
 H   -2.27824793    -6.54344554   0.0000
 H    4.71751615     2.31586259   0.0000
 H    2.35947164     6.33428253   0.0000
 H   -2.35947164     6.33428253   0.0000
 H   -4.71751615     2.31586259   0.0000
 symmetry c1
units bohr
}

set globals{
   reference               ROHF
   basis                   3-21g
   scf_type                DF
   df_basis_mp2            cc-pvdz-ri
   df_basis_scf            cc-pvdz-jkfit
   d_convergence           12
   e_convergence           12
   maxiter                 1000
   #docc                     [15, 2, 12, 3]
   #socc                     [1, 0,  1,  0]
   docc                     [32]
   socc                     [2]

}
energy('scf')
set forte {
   #frozen_docc             [5, 0, 5, 0]
   #restricted_docc         [10, 2, 7, 0]
   #active                  [1, 0, 1, 5]
   frozen_docc              [10]
   restricted_docc          [19]
   active                   [7]
   root_sym                0
   nroot                   1
   root                    0
   dsrg_s                  0.5
   int_type                DF
   multiplicity            1
   ccvv_algorithm          fly_ambit
   job_type                three-dsrg-mrpt2
   FCI_ITERATIONS          50
   ROTATE_MOS              [1, 26, 30, 1, 29, 32, 1, 36, 37]

}

set_num_threads(1)
no_symmetry = energy('forte')
compare_values(no_symmetry, dsrg_mrpt2_energy, 6, "TESTED ROTATION")

--------------------------------------------------------------------------
/Users/kevinhannon/Programs/forte/forte.so loaded.

*** tstart() called on dhcp190-165.emerson.emory.edu
*** at Sun Dec 13 15:56:40 2015


         ---------------------------------------------------------
                                   SCF
            by Justin Turney, Rob Parrish, and Andy Simmonett
                             ROHF Reference
                        1 Threads,    256 MiB Core
         ---------------------------------------------------------

  ==> Geometry <==

    Molecular point group: c1
    Full point group: C2v

    Geometry (in Bohr), charge = 0, multiplicity = 3:

       Center              X                  Y                   Z       
    ------------   -----------------  -----------------  -----------------
           C          1.443697680000     0.000000000000    -4.631155665052
           C         -1.443697680000     0.000000000000    -4.631155665052
           C         -2.583654620000     0.000000000000    -2.404366305052
           C         -1.465310740000     0.000000000000    -0.061689225052
           C          1.465310740000     0.000000000000    -0.061689225052
           C          2.583654620000     0.000000000000    -2.404366305052
           C          2.658602460000     0.000000000000     2.333033114948
           C          1.330273580000     0.000000000000     4.579208724948
           C         -1.330273580000     0.000000000000     4.579208724948
           C         -2.658602460000     0.000000000000     2.333033114948
           H          2.278247930000     0.000000000000    -6.511545925052
           H         -2.278247930000     0.000000000000    -6.511545925052
           H          4.717516150000     0.000000000000     2.347762204948
           H          2.359471640000     0.000000000000     6.366182144948
           H         -2.359471640000     0.000000000000     6.366182144948
           H         -4.717516150000     0.000000000000     2.347762204948

  Running in c1 symmetry.

  Rotational constants: A =      0.11140  B =      0.04107  C =      0.03001 [cm^-1]
  Rotational constants: A =   3339.58543  B =   1231.28747  C =    899.60710 [MHz]
  Nuclear repulsion =  430.474778744339631

  Charge       = 0
  Multiplicity = 3
  Electrons    = 66
  Nalpha       = 34
  Nbeta        = 32

  ==> Algorithm <==

  SCF Algorithm Type is DF.
  DIIS enabled.
  MOM disabled.
  Fractional occupation disabled.
  Guess Type is CORE.
  Energy threshold   = 1.00e-12
  Density threshold  = 1.00e-12
  Integral threshold = 0.00e+00

  ==> Primary Basis <==

  Basis Set: 3-21G
    Number of shells: 62
    Number of basis function: 102
    Number of Cartesian functions: 102
    Spherical Harmonics?: false
    Max angular momentum: 1

  ==> Pre-Iterations <==

   -------------------------------------------------------
    Irrep   Nso     Nmo     Nalpha   Nbeta   Ndocc  Nsocc
   -------------------------------------------------------
     A        102     102      34      32      32       2
   -------------------------------------------------------
    Total     102     102      34      32      32       2
   -------------------------------------------------------

 OEINTS: Overlap, kinetic, potential, dipole, and quadrupole integrals
         stored in file 35.

  ==> Integral Setup <==

  ==> DFJK: Density-Fitted J/K Matrices <==

    J tasked:                  Yes
    K tasked:                  Yes
    wK tasked:                  No
    OpenMP threads:              1
    Integrals threads:           1
    Memory (MB):               183
    Algorithm:                Core
    Integral Cache:           NONE
    Schwarz Cutoff:          1E-12
    Fitting Condition:       1E-12

   => Auxiliary Basis Set <=

  Basis Set: CC-PVDZ-JKFIT
    Number of shells: 294
    Number of basis function: 960
    Number of Cartesian functions: 960
    Spherical Harmonics?: false
    Max angular momentum: 3

  Minimum eigenvalue in the overlap matrix is 1.2669598761E-03.
  Using Symmetric Orthogonalization.
  SCF Guess: Core (One-Electron) Hamiltonian.

  ==> Iterations <==

                           Total Energy        Delta E     RMS |[F,P]|

   @DF-ROHF iter   1:  -314.94585356986676   -3.14946e+02   1.13314e-01 
   @DF-ROHF iter   2:  -313.58889443961340    1.35696e+00   1.33876e-01 DIIS
   @DF-ROHF iter   3:  -371.66715073364531   -5.80783e+01   7.05527e-02 DIIS
   @DF-ROHF iter   4:  -364.65482785709509    7.01232e+00   9.08212e-02 DIIS
   @DF-ROHF iter   5:  -361.96264791324398    2.69218e+00   1.00007e-01 DIIS
   @DF-ROHF iter   6:  -364.38421798924520   -2.42157e+00   9.41762e-02 DIIS
   @DF-ROHF iter   7:  -364.53508835610563   -1.50870e-01   9.50106e-02 DIIS
   @DF-ROHF iter   8:  -364.57099338846314   -3.59050e-02   9.49569e-02 DIIS
   @DF-ROHF iter   9:  -364.62006221589724   -4.90688e-02   9.41318e-02 DIIS
   @DF-ROHF iter  10:  -365.68690335616401   -1.06684e+00   9.00123e-02 DIIS
   @DF-ROHF iter  11:  -366.00738264691989   -3.20479e-01   8.88304e-02 DIIS
   @DF-ROHF iter  12:  -378.69120369868136   -1.26838e+01   2.74476e-02 DIIS
   @DF-ROHF iter  13:  -379.84114550454166   -1.14994e+00   5.59938e-03 DIIS
   @DF-ROHF iter  14:  -379.88144751038618   -4.03020e-02   3.36621e-03 DIIS
   @DF-ROHF iter  15:  -379.88657021255818   -5.12270e-03   1.82790e-03 DIIS
   @DF-ROHF iter  16:  -379.88909269297739   -2.52248e-03   1.85150e-04 DIIS
   @DF-ROHF iter  17:  -379.88919323537021   -1.00542e-04   9.76611e-05 DIIS
   @DF-ROHF iter  18:  -379.88920700623834   -1.37709e-05   3.58100e-05 DIIS
   @DF-ROHF iter  19:  -379.88921103783167   -4.03159e-06   7.81494e-06 DIIS
   @DF-ROHF iter  20:  -379.88921163323795   -5.95406e-07   4.10948e-06 DIIS
   @DF-ROHF iter  21:  -379.88921171469957   -8.14616e-08   1.65620e-06 DIIS
   @DF-ROHF iter  22:  -379.88921174176500   -2.70654e-08   2.81127e-07 DIIS
   @DF-ROHF iter  23:  -379.88921174423791   -2.47292e-09   1.28257e-07 DIIS
   @DF-ROHF iter  24:  -379.88921174488263   -6.44718e-10   6.21956e-08 DIIS
   @DF-ROHF iter  25:  -379.88921174501314   -1.30512e-10   1.97159e-08 DIIS
   @DF-ROHF iter  26:  -379.88921174502428   -1.11413e-11   6.36380e-09 DIIS
   @DF-ROHF iter  27:  -379.88921174502485   -5.68434e-13   2.39829e-09 DIIS
   @DF-ROHF iter  28:  -379.88921174502565   -7.95808e-13   4.73794e-10 DIIS
   @DF-ROHF iter  29:  -379.88921174502542    2.27374e-13   2.00577e-10 DIIS
   @DF-ROHF iter  30:  -379.88921174502531    1.13687e-13   4.73418e-11 DIIS
   @DF-ROHF iter  31:  -379.88921174502508    2.27374e-13   1.33688e-11 DIIS
   @DF-ROHF iter  32:  -379.88921174502542   -3.41061e-13   4.16049e-12 DIIS
   @DF-ROHF iter  33:  -379.88921174502531    1.13687e-13   1.71183e-12 DIIS
   @DF-ROHF iter  34:  -379.88921174502542   -1.13687e-13   4.59654e-13 DIIS

  ==> Post-Iterations <==

    Orbital Energies (a.u.)
    -----------------------

    Doubly Occupied:                                                      

       1A    -11.217170     2A    -11.216911     3A    -11.202343  
       4A    -11.201959     5A    -11.201241     6A    -11.200989  
       7A    -11.195255     8A    -11.195110     9A    -11.193771  
      10A    -11.193252    11A     -1.179673    12A     -1.118587  
      13A     -1.055315    14A     -1.008939    15A     -0.989315  
      16A     -0.859385    17A     -0.859247    18A     -0.767218  
      19A     -0.722099    20A     -0.701533    21A     -0.638284  
      22A     -0.611548    23A     -0.611073    24A     -0.588554  
      25A     -0.584996    26A     -0.545551    27A     -0.521826  
      28A     -0.496684    29A     -0.458489    30A     -0.412439  
      31A     -0.319618    32A     -0.303802  

    Singly Occupied:                                                      

      33A     -0.177786    34A     -0.115873  

    Virtual:                                                              

      35A      0.094407    36A      0.099320    37A      0.219452  
      38A      0.259466    39A      0.277635    40A      0.296636  
      41A      0.311742    42A      0.350198    43A      0.358051  
      44A      0.358302    45A      0.414696    46A      0.418311  
      47A      0.463288    48A      0.485712    49A      0.490480  
      50A      0.519307    51A      0.554308    52A      0.610587  
      53A      0.691690    54A      0.740505    55A      0.781768  
      56A      0.837509    57A      0.840669    58A      0.891195  
      59A      0.927334    60A      0.951124    61A      0.970620  
      62A      0.977422    63A      1.010310    64A      1.025027  
      65A      1.035449    66A      1.051263    67A      1.058714  
      68A      1.070940    69A      1.071052    70A      1.099319  
      71A      1.109788    72A      1.117891    73A      1.131288  
      74A      1.132083    75A      1.174128    76A      1.177052  
      77A      1.260677    78A      1.263238    79A      1.263281  
      80A      1.297169    81A      1.309894    82A      1.344810  
      83A      1.446558    84A      1.452300    85A      1.506534  
      86A      1.518678    87A      1.568415    88A      1.611516  
      89A      1.658646    90A      1.706766    91A      1.732314  
      92A      1.762585    93A      1.770051    94A      1.788482  
      95A      1.796653    96A      1.829357    97A      2.023419  
      98A      2.126223    99A      2.151318   100A      2.259977  
     101A      2.565676   102A      2.747198  

    Final Occupation by Irrep:
              A 
    DOCC [    32 ]
    SOCC [     2 ]

  Energy converged.

  @DF-ROHF Final Energy:  -379.88921174502542

   => Energetics <=

    Nuclear Repulsion Energy =            430.4747787443396305
    One-Electron Energy =               -1365.1062445474735796
    Two-Electron Energy =                 554.7422540581085286
    DFT Exchange-Correlation Energy =       0.0000000000000000
    Empirical Dispersion Energy =           0.0000000000000000
    PCM Polarization Energy =               0.0000000000000000
    EFP Energy =                            0.0000000000000000
    Total Energy =                       -379.8892117450254773

    Alert: EFP and PCM quantities not currently incorporated into SCF psivars.

Properties will be evaluated at   0.000000,   0.000000,   0.000000 Bohr
  ==> Properties <==


Properties computed using the SCF density matrix

  Nuclear Dipole Moment: (a.u.)
     X:    -0.0000      Y:     0.0000      Z:     2.1852

  Electronic Dipole Moment: (a.u.)
     X:     0.0000      Y:     0.0000      Z:    -2.0420

  Dipole Moment: (a.u.)
     X:     0.0000      Y:     0.0000      Z:     0.1432     Total:     0.1432

  Dipole Moment: (Debye)
     X:     0.0000      Y:     0.0000      Z:     0.3639     Total:     0.3639


  Saving occupied orbitals to File 180.

*** tstop() called on dhcp190-165.emerson.emory.edu at Sun Dec 13 15:56:53 2015
Module time:
	user time   =      16.33 seconds =       0.27 minutes
	system time =       0.82 seconds =       0.01 minutes
	total time  =         13 seconds =       0.22 minutes
Total time:
	user time   =      16.33 seconds =       0.27 minutes
	system time =       0.82 seconds =       0.01 minutes
	total time  =         13 seconds =       0.22 minutes
Reading options from the FORTE block
Calling plugin /Users/kevinhannon/Programs/forte/forte.so.


  ==> MO Space Information <==

  Read options for space FROZEN_DOCC
  Read options for space RESTRICTED_DOCC
  Read options for space ACTIVE
 Removing orbital 0
 Removing orbital 1
 Removing orbital 2
 Removing orbital 3
 Removing orbital 4
 Removing orbital 5
 Removing orbital 6
 Removing orbital 7
 Removing orbital 8
 Removing orbital 9
  -------------------------------
                        A   Sum
  -------------------------------
    FROZEN_DOCC        10    10
    RESTRICTED_DOCC    19    19
    ACTIVE              7     7
    RESTRICTED_UOCC    66    66
    FROZEN_UOCC         0     0
    Total             102   102
  -------------------------------

  ==> Integral Transformation <==

  Number of molecular orbitals:              102
  Number of correlated molecular orbitals:    92
  Number of frozen occupied orbitals:         10
  Number of frozen unoccupied orbitals:        0


 orbital_rotate_group:3 a:0 offset_a0
 0
 25
 29
 orbital_rotate_group:3 a:1 offset_a3
 0
 28
 31
 orbital_rotate_group:3 a:2 offset_a6
 0
 35
 36  ## Molecular orbitals (Symmetry 0) ##
  Irrep: 1 Size: 102 x 102

                 1                   2                   3                   4                   5

    1     0.00117697819490     0.00496289136758     0.69841925473516     0.68984448921074     0.00641910883404
    2    -0.00012486254953     0.00086851468333     0.07236572996751     0.06763310389674    -0.00352444278845
    3     0.00024569144138     0.00024824590653    -0.00048206412597    -0.00049665003926    -0.00102422074806
    4     0.00000000000000     0.00000000000000     0.00000000000000     0.00000000000000     0.00000000000000
    5     0.00038923854605     0.00046310950439     0.00141645958615     0.00096518851272    -0.00159774033520
    6     0.00733246933851    -0.00329110158867    -0.08137279259575    -0.04453013261598     0.03994116496664
    7    -0.00300219207063    -0.00261617713503     0.01484464665996    -0.00452031380908    -0.00365502477751
    8     0.00000000000000    -0.00000000000000    -0.00000000000000     0.00000000000000    -0.00000000000000
    9     0.00445035204817     0.00030492936431    -0.02344537223570    -0.00954688400220     0.02670332216144
   10    -0.00117697831149     0.00496289133912    -0.69841927345359     0.68984447035445    -0.00641911511489
   11     0.00012486252898     0.00086851468555    -0.07236573179889     0.06763310195281     0.00352444233864
   12     0.00024569144762    -0.00024824590065    -0.00048206413893     0.00049665002392    -0.00102422072015
   13     0.00000000000000     0.00000000000000    -0.00000000000000     0.00000000000000    -0.00000000000000
   14    -0.00038923855712     0.00046310949469    -0.00141645961047     0.00096518847829     0.00159774040996
   15    -0.00733246925780    -0.00329110175970     0.08137279378365    -0.04453013051608    -0.03994116550087
   16    -0.00300219213527     0.00261617706482     0.01484464653774     0.00452031420247    -0.00365502480370
   17    -0.00000000000000    -0.00000000000000     0.00000000000000    -0.00000000000000     0.00000000000000
   18    -0.00445035205654     0.00030492926222     0.02344537247962    -0.00954688343427    -0.02670332277627
   19    -0.00709829503409     0.01295679593788     0.00737741063145    -0.10535092979021    -0.69835627180652
   20    -0.00345474097598     0.00440562934759     0.00470491705954    -0.01441894282020    -0.07158768802855
   21    -0.00022832032109     0.00095177206529     0.00011976506250    -0.00145650032662    -0.00216612745852
   22     0.00000000000000    -0.00000000000000    -0.00000000000000    -0.00000000000000    -0.00000000000000
   23    -0.00096303921482     0.00154772722024    -0.00098175978229     0.00200551671047     0.00008866113297
   24     0.02169632589695    -0.02040190457113    -0.04365690039048     0.03179949477591     0.08788564886834
   25     0.00864905374266    -0.00486895855445    -0.01533658276367     0.00914967736358     0.02709193891524
   26    -0.00000000000000    -0.00000000000000    -0.00000000000000    -0.00000000000000    -0.00000000000000
   27     0.00578683452022    -0.01397325177141     0.00788209237439    -0.00867985384815     0.00102817470919
   28     0.69854368390799    -0.69783486483564    -0.00133230378912     0.00300235720777    -0.00644840708397
   29     0.07285743591944    -0.06937085976941    -0.00051729535541     0.00062987259702     0.00259862656208
   30     0.00048385481531     0.00034927885263    -0.00004990097663    -0.00018779295624    -0.00085497704676
   31     0.00000000000000    -0.00000000000000     0.00000000000000     0.00000000000000    -0.00000000000000
   32    -0.00014642571849     0.00028540811936    -0.00024913006706     0.00055738907457    -0.00176566320893
   33    -0.08322858723841     0.05558462741657     0.01045717915475    -0.00755471625162    -0.03267978656700
   34    -0.01630229470671    -0.01174835449246    -0.00074960423452     0.00177723274172    -0.00229765640548
   35    -0.00000000000000     0.00000000000000     0.00000000000000     0.00000000000000     0.00000000000000
   36    -0.00097756212309    -0.00208273252255    -0.01067361392111     0.00189042896289     0.03206222986833
   37    -0.69854366699446    -0.69783488176612     0.00133230369460     0.00300235726204     0.00644840648568
   38    -0.07285743423636    -0.06937086153335     0.00051729533997     0.00062987260531    -0.00259862649358
   39     0.00048385482412    -0.00034927884072    -0.00004990098202     0.00018779295314    -0.00085497706410
   40     0.00000000000000     0.00000000000000    -0.00000000000000    -0.00000000000000    -0.00000000000000
   41     0.00014642571158     0.00028540812274     0.00024913004974     0.00055738908518     0.00176566310821
   42     0.08322858588157     0.05558462942251    -0.01045717896627    -0.00755471645838     0.03267978589439
   43    -0.01630229499512     0.01174835409660    -0.00074960418751    -0.00177723277087    -0.00229765643834
   44    -0.00000000000000    -0.00000000000000    -0.00000000000000    -0.00000000000000    -0.00000000000000
   45     0.00097756217434    -0.00208273249419     0.01067361389055     0.00189042917939    -0.03206222895286
   46     0.00709829472043     0.01295679610014    -0.00737740850071    -0.10535092839750     0.69835624098580
   47     0.00345474086848     0.00440562942913    -0.00470491674053    -0.01441894278372     0.07158768498880
   48    -0.00022832029792    -0.00095177207083     0.00011976502502     0.00145650032489    -0.00216612737878
   49    -0.00000000000000    -0.00000000000000    -0.00000000000000     0.00000000000000    -0.00000000000000
   50     0.00096303917720     0.00154772724352     0.00098175972802     0.00200551673674    -0.00008866114542
   51    -0.02169632539743    -0.02040190508428     0.04365689959409     0.03179949575079    -0.08788564616320
   52     0.00864905362330     0.00486895875941    -0.01533658253377    -0.00914967771414     0.02709193815184
   53    -0.00000000000000     0.00000000000000    -0.00000000000000    -0.00000000000000     0.00000000000000
   54    -0.00578683417767    -0.01397325190978    -0.00788209213742    -0.00867985405917    -0.00102817458006
   55     0.00597407036872     0.00923297882350    -0.00162714045441    -0.00463075365425    -0.00241174722331
   56     0.00312392983724     0.00346833451259    -0.00015193226980    -0.00082197111430    -0.00034381162044
   57    -0.00040432247464    -0.00080737064069    -0.00007452065846    -0.00004438690001    -0.00027252308998
   58     0.00000000000000     0.00000000000000     0.00000000000000     0.00000000000000     0.00000000000000
   59    -0.00058733087681    -0.00116511616209     0.00046176153159     0.00030524397847    -0.00013610507130
   60    -0.02114193552968    -0.01618006904503    -0.00590109917161     0.00112459688509     0.01038224515160
   61     0.01184951164479     0.00323688296136     0.00390757969513     0.00069587582253    -0.00394188308342
   62     0.00000000000000    -0.00000000000000     0.00000000000000     0.00000000000000    -0.00000000000000
   63     0.00572450314551     0.01200204956300    -0.00326675985566    -0.00375504851816    -0.00322778818809
   64    -0.00012569003940     0.00276577711274    -0.00160510842530     0.00002491808521    -0.00148505553180
   65    -0.00053474568703     0.00058129865591    -0.00044044915437    -0.00005244619706    -0.00023660749056
   66     0.00024319297864     0.00017997587534     0.00000071488191    -0.00007270952827    -0.00012938419227
   67     0.00000000000000     0.00000000000000     0.00000000000000     0.00000000000000    -0.00000000000000
   68    -0.00033977035697    -0.00046155546822    -0.00003716234786    -0.00011890780053     0.00015100723573
   69     0.01104724088194    -0.00277819857276     0.00473565429338     0.00243992477097    -0.00167943617068
   70    -0.00476075209161    -0.00219657757207     0.00117677002419     0.00123240121114     0.00099659913565
   71    -0.00000000000000     0.00000000000000    -0.00000000000000    -0.00000000000000    -0.00000000000000
   72    -0.00589321599471     0.00023004495640    -0.00334749105226    -0.00032098178481     0.00024430005015
   73     0.00012568997291     0.00276577711527     0.00160510842989     0.00002491813510     0.00148505578328
   74     0.00053474567302     0.00058129866869     0.00044044915664    -0.00005244618422     0.00023660753046
   75     0.00024319298320    -0.00017997586953     0.00000071487979     0.00007270952800    -0.00012938419930
   76    -0.00000000000000     0.00000000000000    -0.00000000000000    -0.00000000000000    -0.00000000000000
   77     0.00033977036803    -0.00046155546000     0.00003716235066    -0.00011890779985    -0.00015100725362
   78    -0.01104724081290    -0.00277819883959    -0.00473565435875     0.00243992464517     0.00167943618907
   79    -0.00476075214626     0.00219657745937     0.00117677005805    -0.00123240117726     0.00099659916446
   80     0.00000000000000    -0.00000000000000     0.00000000000000    -0.00000000000000     0.00000000000000
   81     0.00589321598951     0.00023004509965     0.00334749106069    -0.00032098169417    -0.00024430006101
   82    -0.00597407059373     0.00923297868335     0.00162714059217    -0.00463075361349     0.00241174806657
   83    -0.00312392992175     0.00346833443756     0.00015193229446    -0.00082197111037     0.00034381175439
   84    -0.00040432249430     0.00080737063102    -0.00007452065941     0.00004438689734    -0.00027252307950
   85     0.00000000000000     0.00000000000000     0.00000000000000     0.00000000000000     0.00000000000000
   86     0.00058733090515    -0.00116511614806    -0.00046176154010     0.00030524396633     0.00013610505961
   87     0.02114193592454    -0.01618006853254     0.00590109913151     0.00112459702193    -0.01038224560181
   88     0.01184951172380    -0.00323688267461     0.00390757970771    -0.00069587572455    -0.00394188335970
   89    -0.00000000000000     0.00000000000000    -0.00000000000000     0.00000000000000    -0.00000000000000
   90    -0.00572450343995     0.01200204942681     0.00326675996089    -0.00375504842194     0.00322778836700
   91     0.00027723595592     0.00043851183652    -0.00160414460475    -0.00164652707393     0.00062408048722
   92     0.00097234186227     0.00032998683159     0.00168060375934     0.00641973000661     0.00573142741530
   93    -0.00027723596678     0.00043851183019     0.00160414464934    -0.00164652703217    -0.00062408047493
   94    -0.00097234187093     0.00032998680989    -0.00168060393809     0.00641972994757    -0.00573142768556
   95     0.00001412380942     0.00081891855598    -0.00044858288551    -0.00033395364028     0.00004767696860
   96    -0.00241266151959    -0.00036540667149    -0.00050791070760     0.00000234966363     0.00054298911188
   97     0.00034546973079     0.00035662966906     0.00003031010124    -0.00019221784690     0.00000083363564
   98     0.00140274864120    -0.00007998298804     0.00038975183170    -0.00028669294538     0.00006362561523
   99    -0.00034546973967     0.00035662966077    -0.00003031009596    -0.00019221784773    -0.00000083363099
  100    -0.00140274863980    -0.00007998302177    -0.00038975182419    -0.00028669295615    -0.00006362562406
  101    -0.00001412382940     0.00081891855565     0.00044858289443    -0.00033395362819    -0.00004767697379
  102     0.00241266152852    -0.00036540661325     0.00050791070558     0.00000234967662    -0.00054298919528

                 6                   7                   8                   9                  10

    1     0.10455920462311     0.00147713566069     0.00706021159461     0.00167618100681     0.00182714469739
    2     0.00656642659611     0.00004269912311     0.00020130340665    -0.00010116242670    -0.00006121399033
    3     0.00064779284268    -0.00013379509893     0.00002816679571     0.00000206756139    -0.00005215878059
    4     0.00000000000000    -0.00000000000000    -0.00000000000000     0.00000000000000    -0.00000000000000
    5    -0.00170514743734    -0.00012687207967    -0.00041682965922     0.00002101236716    -0.00000965899518
    6     0.01411162553655    -0.00113969967139    -0.00059213891920     0.00419351728702     0.00263575081793
    7    -0.00036842959129     0.00119029335308    -0.00019398945799     0.00070872526782     0.00112103059345
    8    -0.00000000000000     0.00000000000000     0.00000000000000     0.00000000000000    -0.00000000000000
    9     0.01414046607524    -0.00008065206173     0.00076852053897     0.00307084221461     0.00068594791779
   10     0.10455920361382    -0.00147713633821     0.00706021145204    -0.00167618097718     0.00182714470858
   11     0.00656642668028    -0.00004269914311     0.00020130340199     0.00010116242675    -0.00006121399144
   12    -0.00064779288917    -0.00013379509637    -0.00002816680826     0.00000206756183     0.00005215878039
   13     0.00000000000000     0.00000000000000     0.00000000000000     0.00000000000000    -0.00000000000000
   14    -0.00170514736723     0.00012687211874    -0.00041682964727    -0.00002101236789    -0.00000965899486
   15     0.01411162381991     0.00113969972281    -0.00059213880680    -0.00419351726504     0.00263575085568
   16     0.00036842943809     0.00119029333657     0.00019398956781     0.00070872525823    -0.00112103059758
   17     0.00000000000000    -0.00000000000000     0.00000000000000     0.00000000000000    -0.00000000000000
   18     0.01414046489769     0.00008065198833     0.00076852055064    -0.00307084220757     0.00068594794470
   19     0.68976111526042    -0.00215228293650     0.01670513790320    -0.00174573473882     0.00806388764820
   20     0.06825950623355    -0.00009330748676     0.00068550422902    -0.00028527452002     0.00019828207350
   21     0.00184577542837    -0.00033628845098     0.00007005768809     0.00007226594329     0.00005643767678
   22     0.00000000000000    -0.00000000000000     0.00000000000000     0.00000000000000     0.00000000000000
   23     0.00017315926025    -0.00012544088139    -0.00020574507534     0.00048077657505    -0.00036295962603
   24    -0.06181375028600    -0.01144919523916     0.00516701147219     0.00902270125867     0.00177795400819
   25    -0.01745831805229    -0.00331392700064     0.00252746650471     0.00309952677390     0.00022587122293
   26    -0.00000000000000     0.00000000000000     0.00000000000000    -0.00000000000000     0.00000000000000
   27    -0.00249690248156    -0.00404398163322     0.00151988944766    -0.00142670590414     0.00428534757017
   28     0.01291207284326    -0.00531015855090     0.00875821559301    -0.00079510245547     0.00425317506417
   29    -0.00158395686903     0.00239312556645    -0.00149541697349    -0.00047717736776    -0.00006424625004
   30    -0.00036969936185    -0.00053245363183    -0.00028975037067    -0.00034028429320    -0.00018746858677
   31    -0.00000000000000     0.00000000000000    -0.00000000000000    -0.00000000000000     0.00000000000000
   32     0.00221795001001     0.00146554902478    -0.00138019563066     0.00016356963771    -0.00098247205701
   33     0.01541095556767    -0.02974377760165     0.01485320802046     0.01105391670834    -0.00296424956899
   34    -0.00086595128235    -0.00371471541038    -0.00180969637196     0.00292135324165     0.00098250512464
   35     0.00000000000000     0.00000000000000    -0.00000000000000    -0.00000000000000    -0.00000000000000
   36    -0.02053093526312    -0.03155705674814     0.01459670036749     0.01327865980189     0.00236700082232
   37     0.01291207313625     0.00531015772013     0.00875821608796     0.00079510250654     0.00425317506411
   38    -0.00158395698601    -0.00239312542701    -0.00149541719915     0.00047717736491    -0.00006424625746
   39     0.00036969932289    -0.00053245365920     0.00028975032138    -0.00034028429101     0.00018746858935
   40     0.00000000000000    -0.00000000000000    -0.00000000000000     0.00000000000000     0.00000000000000
   41     0.00221795009083    -0.00146554889451    -0.00138019576767    -0.00016356964854    -0.00098247205746
   42     0.01541095703297     0.02974377621631     0.01485321082908    -0.01105391671219    -0.00296424943351
   43     0.00086595118432    -0.00371471557790     0.00180969601791     0.00292135323520    -0.00098250515957
   44    -0.00000000000000     0.00000000000000     0.00000000000000     0.00000000000000    -0.00000000000000
   45    -0.02053093671389     0.03155705538033     0.01459670334531    -0.01327865975787     0.00236700097981
   46     0.68976114670048     0.00215228132851     0.01670513812585     0.00174573483757     0.00806388764522
   47     0.06825950945395     0.00009330741904     0.00068550423987     0.00028527452295     0.00019828207207
   48    -0.00184577552568    -0.00033628844429    -0.00007005771980     0.00007226594270    -0.00005643767784
   49    -0.00000000000000     0.00000000000000    -0.00000000000000    -0.00000000000000     0.00000000000000
   50     0.00017315925693     0.00012544090114    -0.00020574506273    -0.00048077657850    -0.00036295962159
   51    -0.06181375421289     0.01144919475587     0.00516701255652    -0.00902270123415     0.00177795410264
   52     0.01745831926095    -0.00331392676457    -0.00252746681900     0.00309952676769    -0.00022587125413
   53     0.00000000000000    -0.00000000000000     0.00000000000000     0.00000000000000     0.00000000000000
   54    -0.00249690254454     0.00404398148498     0.00151988982379     0.00142670594436     0.00428534756429
   55    -0.01904526472034     0.69453774967871     0.69019605554982     0.07239849442840     0.10224250560370
   56    -0.00299606219268     0.07133399652671     0.06944152536085     0.00380426535624     0.00708161272884
   57     0.00024099125224    -0.00127057582300    -0.00090441698015     0.00035805445738     0.00127448007977
   58     0.00000000000000     0.00000000000000    -0.00000000000000     0.00000000000000    -0.00000000000000
   59     0.00024317835408     0.00004308693391     0.00025467471225    -0.00035991269561    -0.00139650720350
   60     0.01002652438554    -0.08284178847378    -0.06111698285666     0.03307242770153     0.00987277127495
   61    -0.00624376598168     0.02750741141272     0.01354496627198    -0.02036699966651    -0.00680010250305
   62    -0.00000000000000     0.00000000000000    -0.00000000000000    -0.00000000000000    -0.00000000000000
   63    -0.00376592012763     0.00122754199759    -0.00011373082677     0.00509208742286     0.00734419376038
   64    -0.00572089395456    -0.07333778229480    -0.10287659298410     0.69462697964558     0.69019711177051
   65    -0.00089271751475    -0.01128942558085    -0.01299437399802     0.07279236903710     0.06621732003780
   66    -0.00015476690148    -0.00073040086060     0.00050781117800    -0.00150445685348     0.00051723239638
   67     0.00000000000000     0.00000000000000     0.00000000000000    -0.00000000000000    -0.00000000000000
   68     0.00040567419700     0.00121110879400     0.00134670092015    -0.00115424910948    -0.00029500412225
   69    -0.00057584682436     0.04832113803275     0.02271590907481    -0.08875595216808    -0.03698270240751
   70     0.00057306487547    -0.00734963201730     0.00208165929918     0.02232224089983    -0.00467769692722
   71     0.00000000000000    -0.00000000000000    -0.00000000000000     0.00000000000000     0.00000000000000
   72     0.00028168359012    -0.02645911393603    -0.01197730233182     0.02338127056070     0.00477533319240
   73    -0.00572089388015     0.07333779108251    -0.10287658503488    -0.69462697373980     0.69019711796540
   74    -0.00089271750324     0.01128942671621    -0.01299437282704    -0.07279236847563     0.06621732069204
   75     0.00015476689552    -0.00073040081252    -0.00050781124410    -0.00150445685880    -0.00051723238419
   76     0.00000000000000    -0.00000000000000     0.00000000000000     0.00000000000000    -0.00000000000000
   77     0.00040567419007    -0.00121110891967     0.00134670080471     0.00115424910891    -0.00029500413393
   78    -0.00057584674857    -0.04832114011337     0.02271590440676     0.08875595187999    -0.03698270325132
   79    -0.00057306482791    -0.00734963182808    -0.00208166002283     0.02232224093716     0.00467769672390
   80     0.00000000000000     0.00000000000000     0.00000000000000    -0.00000000000000     0.00000000000000
   81     0.00028168357922     0.02645911505066    -0.01197729981289    -0.02338127053775     0.00477533343400
   82    -0.01904526464514    -0.69453781443488     0.69019599062402    -0.07239849245527     0.10224250538840
   83    -0.00299606217989    -0.07133400303691     0.06944151868572    -0.00380426518575     0.00708161267432
   84    -0.00024099126461    -0.00127057590605     0.00090441686052     0.00035805444767    -0.00127448008455
   85    -0.00000000000000     0.00000000000000    -0.00000000000000     0.00000000000000    -0.00000000000000
   86     0.00024317836004    -0.00004308695604     0.00025467470764     0.00035991268386    -0.00139650720694
   87     0.01002652391620     0.08284179418061    -0.06111697504071    -0.03307242771067     0.00987277167163
   88     0.00624376580116     0.02750741267123    -0.01354496366057    -0.02036699962865     0.00680010271893
   89    -0.00000000000000    -0.00000000000000     0.00000000000000    -0.00000000000000    -0.00000000000000
   90    -0.00376591997847    -0.00122754199529    -0.00011373093317    -0.00509208735970     0.00734419380714
   91    -0.00018634363107    -0.00001530540610     0.00000096132831     0.00008257243235    -0.00017925995116
   92     0.00567628772276     0.00002897422138     0.00077769683202     0.00045473172978    -0.00004725823548
   93    -0.00018634365757     0.00001530540631     0.00000096132986    -0.00008257243394    -0.00017925995038
   94     0.00567628746311    -0.00002897429439     0.00077769682974    -0.00045473172902    -0.00004725823141
   95     0.00013821541658    -0.00180545167427    -0.00133688346592     0.00020354933395    -0.00056048691537
   96     0.00187374495656     0.00168953765134     0.00512795106362     0.00476036889714     0.00325958766029
   97    -0.00009268514105     0.00066263182290    -0.00003810894572    -0.00166080037099    -0.00158392113734
   98     0.00020623493372     0.00485908453011     0.00178159640234     0.00056810716856     0.00784089869818
   99    -0.00009268514095    -0.00066263181739    -0.00003810901061     0.00166080035699    -0.00158392115284
  100     0.00020623493132    -0.00485908470621     0.00178159594684    -0.00056810709715     0.00784089869701
  101     0.00013821541463     0.00180545180019    -0.00133688329645    -0.00020354934099    -0.00056048691125
  102     0.00187374493020    -0.00168953813558     0.00512795091354    -0.00476036886085     0.00325958770088

                11                  12                  13                  14                  15

    1     0.06338024055884     0.08689553058551     0.04465610389336     0.09420288981309     0.07825714409017
    2    -0.07254521353745    -0.09519993820989    -0.05155905524737    -0.09963832423770    -0.08537711224315
    3     0.00894623082982     0.01396214155333    -0.03705434319871     0.02193141385100    -0.06760942416964
    4     0.00000000000000     0.00000000000000     0.00000000000000    -0.00000000000000     0.00000000000001
    5    -0.04720278658408    -0.04766974620951    -0.04699993698225    -0.00831090345616    -0.06665705147074
    6    -0.10456967129192    -0.17956722531776    -0.06895335793608    -0.23654201792675    -0.18254861927656
    7     0.00498032682446     0.00144634491285    -0.00118651262747     0.00548188174671    -0.01510660710114
    8     0.00000000000000    -0.00000000000000     0.00000000000001    -0.00000000000001     0.00000000000000
    9    -0.00076310761461    -0.01156985606949     0.01566803909712    -0.01227641920540    -0.01099831706538
   10     0.06338024055636     0.08689553057908    -0.04465610387891     0.09420288980447    -0.07825714411205
   11    -0.07254521353816    -0.09519993820243     0.05155905523672    -0.09963832422503     0.08537711226890
   12    -0.00894623082963    -0.01396214155685    -0.03705434320254    -0.02193141385812    -0.06760942416359
   13     0.00000000000000    -0.00000000000000    -0.00000000000000    -0.00000000000000    -0.00000000000000
   14    -0.04720278658505    -0.04766974620529     0.04699993697971    -0.00831090344987     0.06665705147535
   15    -0.10456967128195    -0.17956722533084     0.06895335784330    -0.23654201792820     0.18254861931021
   16    -0.00498032686965    -0.00144634496676    -0.00118651259854    -0.00548188178917    -0.01510660707666
   17     0.00000000000000    -0.00000000000000    -0.00000000000000    -0.00000000000000    -0.00000000000000
   18    -0.00076310761923    -0.01156985611031    -0.01566803910632    -0.01227641925328     0.01099831708383
   19     0.07789481942764     0.06589339018483    -0.09056074356085     0.00097257921047    -0.09704257767533
   20    -0.09210141954947    -0.07453927040051     0.10039783902503    -0.00152334822018     0.10741388889760
   21    -0.05797967924070    -0.05134581148323     0.04922763275888    -0.00382090544296     0.06043848552313
   22    -0.00000000000001    -0.00000000000000     0.00000000000001     0.00000000000001     0.00000000000001
   23    -0.01232306135450     0.03896252650216     0.02313579950208     0.11351367027390    -0.05319272388872
   24    -0.12966427539865    -0.13615409685177     0.20580053297432    -0.00005709059797     0.23695936257897
   25    -0.02904810829055    -0.03124216422725     0.04939650788998     0.00081932483863     0.05388350316474
   26     0.00000000000000     0.00000000000001    -0.00000000000000     0.00000000000000    -0.00000000000001
   27     0.01169538245256    -0.01118984095164    -0.01224403793995     0.00392417872834    -0.00043514907986
   28     0.10514782806856    -0.00070935324158    -0.09136364143620    -0.09991564526863    -0.00526971407970
   29    -0.11643542224171     0.00011038167020     0.10162706778717     0.10568727857711     0.00729964128344
   30    -0.01035732507270    -0.00215701890944    -0.07908441841343     0.01084498477031    -0.00073452714443
   31    -0.00000000000002     0.00000000000000     0.00000000000001     0.00000000000002     0.00000000000000
   32     0.01265350737147     0.07940946903352    -0.00616475807800    -0.00071412137699    -0.09435505677047
   33    -0.21260675736896     0.00787118072131     0.18670149185174     0.25235385390223    -0.00356570876661
   34     0.00742365202242     0.00006901739823    -0.03762497932507    -0.00168535723998    -0.01047405965266
   35     0.00000000000000    -0.00000000000000    -0.00000000000000    -0.00000000000000     0.00000000000001
   36     0.00025775138945    -0.00536394119419     0.00599683551045    -0.00978246805332     0.01071796301322
   37     0.10514782806080    -0.00070935323860     0.09136364142074    -0.09991564528188     0.00526971409700
   38    -0.11643542224733     0.00011038166077    -0.10162706778312     0.10568727859855    -0.00729964130825
   39     0.01035732507654     0.00215701890318    -0.07908441841585    -0.01084498476172    -0.00073452714624
   40     0.00000000000001    -0.00000000000000     0.00000000000001    -0.00000000000001    -0.00000000000000
   41     0.01265350737952     0.07940946904686     0.00616475807441    -0.00071412135231     0.09435505676506
   42    -0.21260675727346     0.00787118077482    -0.18670149170720     0.25235385390669     0.00356570877640
   43    -0.00742365200573    -0.00006901733325    -0.03762497927100     0.00168535735576    -0.01047405962787
   44     0.00000000000000    -0.00000000000000     0.00000000000001    -0.00000000000000    -0.00000000000000
   45     0.00025775121224    -0.00536394148632    -0.00599683553943    -0.00978246827308    -0.01071796310782
   46     0.07789481942831     0.06589339019562     0.09056074356093     0.00097257921733     0.09704257767389
   47    -0.09210141953777    -0.07453927039156    -0.10039783902062    -0.00152334821236    -0.10741388887837
   48     0.05797967924069     0.05134581148852     0.04922763275888     0.00382090544766     0.06043848551584
   49     0.00000000000000     0.00000000000000     0.00000000000000    -0.00000000000001     0.00000000000000
   50    -0.01232306134901     0.03896252650510    -0.02313579948131     0.11351367028994     0.05319272387009
   51    -0.12966427552909    -0.13615409711468    -0.20580053300653    -0.00005709081067    -0.23695936267762
   52     0.02904810834249     0.03124216431588     0.04939650789790    -0.00081932477808     0.05388350320659
   53    -0.00000000000000    -0.00000000000000    -0.00000000000001     0.00000000000000    -0.00000000000001
   54     0.01169538235899    -0.01118984106985     0.01224403785859     0.00392417863879     0.00043514901484
   55     0.06838599266395    -0.07229389159048     0.09912353346186    -0.01147086532602    -0.09176702361108
   56    -0.07835910007802     0.07953964269996    -0.10708087420263     0.01124471634240     0.09838430864816
   57     0.03773094973402    -0.04144594137247     0.01828818019473     0.00387852880850    -0.02004678402371
   58    -0.00000000000000     0.00000000000000    -0.00000000000000     0.00000000000000     0.00000000000000
   59     0.01432223321140     0.03560458969658     0.02143443020818    -0.09206566967370     0.03860392489977
   60    -0.11914028316675     0.15374348070042    -0.22253939007855     0.03762923453113     0.23447628952729
   61     0.00676392341587    -0.01508523722334     0.01607178459269    -0.00774289198755    -0.00809515371572
   62    -0.00000000000000     0.00000000000000    -0.00000000000001     0.00000000000000     0.00000000000001
   63    -0.00997374046978    -0.00750170945241    -0.00967655255816    -0.01413620308575    -0.00474300342965
   64     0.05671385520697    -0.10250450553403     0.04216533150104     0.09163848755975    -0.06161654713401
   65    -0.06495849103350     0.11293301193399    -0.04687019225975    -0.09845088069762     0.06505029686347
   66     0.01445936657454    -0.03154938217399    -0.04279005144813     0.04509601712549     0.06356811081299
   67    -0.00000000000000     0.00000000000000    -0.00000000000001     0.00000000000000     0.00000000000001
   68     0.03462125927308    -0.04130080694429     0.03870518364213    -0.00711009004006    -0.04504999068261
   69    -0.09688048052442     0.20966541572301    -0.08152790074613    -0.22287678574480     0.16118983042811
   70     0.00569932088481    -0.00379467154183     0.00165653184100     0.00882084209979     0.01093005730266
   71     0.00000000000000    -0.00000000000000     0.00000000000000     0.00000000000000    -0.00000000000000
   72     0.00299973624298    -0.01290547419480    -0.00654923677933     0.00614462230361    -0.01798873127115
   73     0.05671385520713    -0.10250450553506    -0.04216533147723     0.09163848757786     0.06161654711392
   74    -0.06495849104034     0.11293301193652     0.04687019223509    -0.09845088073239    -0.06505029684533
   75    -0.01445936657423     0.03154938217196    -0.04279005145953    -0.04509601710554     0.06356811082675
   76    -0.00000000000000     0.00000000000000     0.00000000000000    -0.00000000000000    -0.00000000000001
   77     0.03462125927402    -0.04130080694589    -0.03870518363662    -0.00711009002370     0.04504999068808
   78    -0.09688048045808     0.20966541577875     0.08152790067150    -0.22287678563112    -0.16118983038555
   79    -0.00569932084113     0.00379467153602     0.00165653184996    -0.00882084203239     0.01093005729738
   80    -0.00000000000000     0.00000000000000    -0.00000000000000    -0.00000000000000     0.00000000000000
   81     0.00299973621990    -0.01290547426440     0.00654923677631     0.00614462223114     0.01798873128861
   82     0.06838599266970    -0.07229389159190    -0.09912353345692    -0.01147086528705     0.09176702361554
   83    -0.07835910008076     0.07953964271744     0.10708087420174     0.01124471631028    -0.09838430866586
   84    -0.03773094973462     0.04144594137315     0.01828818018796    -0.00387852881271    -0.02004678402710
   85    -0.00000000000000    -0.00000000000000     0.00000000000000     0.00000000000001     0.00000000000000
   86     0.01432223321398     0.03560458969990    -0.02143443022530    -0.09206566967857    -0.03860392488021
   87    -0.11914028326035     0.15374348051731     0.22253939004395     0.03762923429636    -0.23447628948605
   88    -0.00676392348008     0.01508523712033     0.01607178460493     0.00774289184746    -0.00809515366263
   89    -0.00000000000000     0.00000000000000     0.00000000000000     0.00000000000000    -0.00000000000000
   90    -0.00997374043925    -0.00750170943734     0.00967655258335    -0.01413620308669     0.00474300342140
   91    -0.02030165934822    -0.03218447718783    -0.01720439101394    -0.05141236831139    -0.03742334280859
   92     0.00571319892335     0.00099439928639     0.00430818790686    -0.01269688747833    -0.00570139846370
   93    -0.02030165934822    -0.03218447718729     0.01720439100905    -0.05141236830786     0.03742334282097
   94     0.00571319891026     0.00099439926084    -0.00430818789749    -0.01269688750570     0.00570139848263
   95    -0.02445195296858     0.02580243465267    -0.05101333855954     0.00793698032761     0.04854619642447
   96     0.00391589699485     0.00013125279416    -0.01174731418524     0.00475745454997     0.00927220943365
   97    -0.01874281793183     0.03878907631037    -0.02001252927622    -0.04939531810871     0.03491678649450
   98     0.00445662391445    -0.00039876412022    -0.00032963846387    -0.01139939558028     0.01044460222278
   99    -0.01874281793052     0.03878907631281     0.02001252926583    -0.04939531811656    -0.03491678648327
  100     0.00445662392168    -0.00039876409996     0.00032963847342    -0.01139939556304    -0.01044460223163
  101    -0.02445195297310     0.02580243465319     0.05101333856100     0.00793698030213    -0.04854619642661
  102     0.00391589697258     0.00013125277158     0.01174731419991     0.00475745450105    -0.00927220941995

                16                  17                  18                  19                  20

    1     0.05892469362062     0.07869842669709     0.02817578614499     0.05427247936249     0.01162141135464
    2    -0.05899930587050    -0.08216288698897    -0.02428234691328    -0.05563434497681    -0.00632565210540
    3     0.03400660634463    -0.07547864512839     0.06365872420558    -0.05581944145004     0.07464269233388
    4    -0.00000000000001     0.00000000000000    -0.00000000000002    -0.00000000000001    -0.00000000000003
    5     0.07657186010225    -0.02208858877166     0.11669700000688     0.06682033223015     0.17941084172491
    6    -0.18650030848889    -0.25148203701177    -0.11521988305825    -0.20015697413650    -0.05730755039305
    7     0.01324748083227    -0.02139108872540     0.03392353382740    -0.03580570444150     0.03671445082426
    8    -0.00000000000001    -0.00000000000000    -0.00000000000001    -0.00000000000001    -0.00000000000001
    9     0.02509913678157    -0.02413356265842     0.04679453039115     0.04089469681964     0.10810457772358
   10     0.05892469338656    -0.07869842687735     0.02817578614330    -0.05427247936402     0.01162141135507
   11    -0.05899930562428     0.08216288716736    -0.02428234690724     0.05563434497836    -0.00632565210333
   12    -0.03400660656957    -0.07547864502035    -0.06365872420791    -0.05581944144485    -0.07464269233248
   13    -0.00000000000000    -0.00000000000001    -0.00000000000000    -0.00000000000001    -0.00000000000001
   14     0.07657186016705     0.02208858854341     0.11669700000448    -0.06682033221752     0.17941084171776
   15    -0.18650030772952     0.25148203759035    -0.11521988307965     0.20015697413031    -0.05730755042101
   16    -0.01324748090013    -0.02139108867591    -0.03392353381842    -0.03580570443271    -0.03671445082712
   17     0.00000000000000    -0.00000000000000    -0.00000000000000    -0.00000000000000    -0.00000000000001
   18     0.02509913682601     0.02413356261239     0.04679453033411    -0.04089469680158     0.10810457767783
   19    -0.05039623461673    -0.00135929810808    -0.06124131643742     0.04921227070055    -0.02335887765443
   20     0.05452354671251     0.00187100635635     0.06651754508941    -0.05597673606900     0.02540912248640
   21     0.04195464030316     0.00369823975792     0.02192995710382    -0.04460502429224     0.02683093495347
   22     0.00000000000001    -0.00000000000001     0.00000000000000    -0.00000000000001    -0.00000000000001
   23     0.06402817868292    -0.17162794980885    -0.01022085012607    -0.11513859304241    -0.15772211888285
   24     0.15064643101176    -0.00093409211667     0.19034226119060    -0.10644205527264     0.07855956175619
   25     0.03743313507997    -0.00148979785555     0.04224492387198    -0.02120927820757     0.01970290708483
   26    -0.00000000000000    -0.00000000000001    -0.00000000000001    -0.00000000000000    -0.00000000000001
   27     0.01437628727187    -0.03439905757215    -0.00550860238937    -0.02088250565571    -0.05715007476876
   28    -0.01494131617415     0.08290640359985     0.05065539743681     0.00728332317753     0.02757609064228
   29     0.01611995037078    -0.08816590978084    -0.05011310194390    -0.00882147894436    -0.02719768964878
   30     0.03010587753393     0.08399989565526    -0.13372461424343    -0.00084022032653     0.07749818144812
   31     0.00000000000000    -0.00000000000001    -0.00000000000002    -0.00000000000000    -0.00000000000000
   32    -0.15332219264399     0.01922059202770    -0.07851656406002     0.16863383266512     0.06101156209545
   33     0.04613458420753    -0.25716412402904    -0.16963821462565    -0.01961772124208    -0.10927983712688
   34     0.01370921331094     0.03160648399125    -0.08520673233069     0.01782547822343     0.05232523242127
   35     0.00000000000001     0.00000000000000     0.00000000000000    -0.00000000000001    -0.00000000000000
   36    -0.05264755677109     0.02238165077019    -0.02923399175317     0.15800337724175     0.04309183223784
   37    -0.01494131642422    -0.08290640355904     0.05065539743498    -0.00728332317733     0.02757609064662
   38     0.01611995063248     0.08816590973456    -0.05011310194169     0.00882147894269    -0.02719768965509
   39    -0.03010587728086     0.08399989573544     0.13372461424345    -0.00084022032901    -0.07749818144793
   40     0.00000000000000    -0.00000000000001     0.00000000000001     0.00000000000000    -0.00000000000000
   41    -0.15332219270749    -0.01922059156806    -0.07851656405909    -0.16863383265781     0.06101156210159
   42     0.04613458504021     0.25716412393796    -0.16963821462080     0.01961772125655    -0.10927983713935
   43    -0.01370921320768     0.03160648404223     0.08520673229268     0.01782547822935    -0.05232523247066
   44    -0.00000000000000    -0.00000000000001    -0.00000000000000    -0.00000000000000     0.00000000000000
   45    -0.05264755668121    -0.02238165065410    -0.02923399166633    -0.15800337724315     0.04309183224545
   46    -0.05039623461549     0.00135929826102    -0.06124131643794    -0.04921227070023    -0.02335887765298
   47     0.05452354670707    -0.00187100650921     0.06651754508695     0.05597673607105     0.02540912248307
   48    -0.04195464029428     0.00369823987862    -0.02192995710403    -0.04460502429433    -0.02683093495132
   49    -0.00000000000001    -0.00000000000001    -0.00000000000000    -0.00000000000001     0.00000000000000
   50     0.06402817919729     0.17162794961750    -0.01022085012719     0.11513859303361    -0.15772211889672
   51     0.15064643108311     0.00093409158249     0.19034226121265     0.10644205525399     0.07855956174172
   52    -0.03743313510851    -0.00148979771386    -0.04224492387508    -0.02120927820602    -0.01970290706888
   53     0.00000000000001     0.00000000000001     0.00000000000001     0.00000000000001    -0.00000000000000
   54     0.01437628739329     0.03439905751259    -0.00550860233336     0.02088250563745    -0.05715007474391
   55     0.08785158257117     0.01338410641915    -0.05681358144251     0.05393226296420    -0.00832000647468
   56    -0.09237163368681    -0.01509647628780     0.05701887000279    -0.05892422998183     0.01200910199235
   57    -0.01122964194210     0.00836742599125     0.12924287407578    -0.01999586801748    -0.11332155424067
   58    -0.00000000000000     0.00000000000000     0.00000000000000    -0.00000000000000     0.00000000000001
   59     0.03695136500099    -0.14267704644984     0.05929030577694     0.11851166686782     0.06820549801962
   60    -0.26891128370930    -0.02441384852021     0.19028260641579    -0.13749164297937     0.01439952162001
   61     0.00786062917335    -0.00506598729242     0.07385504992110    -0.05027753063542    -0.07151359663835
   62    -0.00000000000001     0.00000000000000     0.00000000000001    -0.00000000000001     0.00000000000000
   63     0.01092671342948    -0.04955832585729     0.03097834240361     0.05081825226410     0.02907315911242
   64    -0.06436630859541     0.07411393259005     0.00726020805540    -0.06925859650041     0.01011939669872
   65     0.06676937263551    -0.07649448453698    -0.00877248942979     0.07269914015342    -0.00619227365637
   66    -0.09592110732626    -0.08057654004275     0.11944656730172     0.07453935323047    -0.01424485823348
   67    -0.00000000000002    -0.00000000000001     0.00000000000001     0.00000000000000     0.00000000000002
   68     0.09193926648913     0.01697845573760    -0.00331355088938     0.05601624912871    -0.17149247527743
   69     0.19590681738447    -0.23758224924447    -0.02449348738001     0.21875255530106    -0.05200400322644
   70    -0.03203435482246    -0.01784009063054     0.05813481832904     0.05259600260332    -0.01753692444237
   71    -0.00000000000000     0.00000000000000    -0.00000000000000    -0.00000000000000     0.00000000000001
   72     0.02930136869430     0.01740233430124     0.01128735516872     0.05864870156039    -0.10813102407168
   73    -0.06436630881876    -0.07411393239475     0.00726020805618     0.06925859649969     0.01011939669633
   74     0.06676937287940     0.07649448434199    -0.00877248942588    -0.07269914015966    -0.00619227365752
   75     0.09592110708179    -0.08057654033304    -0.11944656730144     0.07453935323553     0.01424485823214
   76    -0.00000000000000     0.00000000000001     0.00000000000000    -0.00000000000001     0.00000000000001
   77     0.09193926643324    -0.01697845601671    -0.00331355088661    -0.05601624912332    -0.17149247527374
   78     0.19590681798472     0.23758224860664    -0.02449348742827    -0.21875255527209    -0.05200400320655
   79     0.03203435470736    -0.01784009071499    -0.05813481836135     0.05259600259572     0.01753692446200
   80    -0.00000000000000    -0.00000000000000     0.00000000000000     0.00000000000000     0.00000000000001
   81     0.02930136871893    -0.01740233438068     0.01128735517675    -0.05864870156193    -0.10813102406522
   82     0.08785158252547    -0.01338410668420    -0.05681358144160    -0.05393226296199    -0.00832000647201
   83    -0.09237163365480     0.01509647656509     0.05701887000255     0.05892422998438     0.01200910199184
   84     0.01122964196791     0.00836742595846    -0.12924287408265    -0.01999586801814     0.11332155424577
   85    -0.00000000000000    -0.00000000000001    -0.00000000000001     0.00000000000000     0.00000000000000
   86     0.03695136543466     0.14267704634244     0.05929030578088    -0.11851166687577     0.06820549802002
   87    -0.26891128345646     0.02441384935681     0.19028260644346     0.13749164294796     0.01439952160029
   88    -0.00786062909480    -0.00506598723348    -0.07385504988557    -0.05027753063250     0.07151359664970
   89     0.00000000000000    -0.00000000000000    -0.00000000000000    -0.00000000000000    -0.00000000000000
   90     0.01092671354138     0.04955832585087     0.03097834239473    -0.05081825227916     0.02907315913611
   91    -0.06790488260575    -0.06251504329413    -0.06209059667344    -0.09241085291387    -0.08546221234437
   92    -0.03145872033257    -0.02971479776705    -0.03709830592006    -0.05291372262163    -0.05549139159773
   93    -0.06790488241730     0.06251504349689    -0.06209059666842     0.09241085290568    -0.08546221234030
   94    -0.03145872026279     0.02971479787815    -0.03709830593916     0.05291372262734    -0.05549139161145
   95    -0.06764211129524    -0.00625057096530     0.11282252231673    -0.05631288167912    -0.05702858697850
   96    -0.02830439278961    -0.00026689944182     0.06159554105257    -0.01833680075799    -0.03856974826396
   97     0.06089324783163    -0.06474444459317     0.02369589247814     0.10695459791618    -0.09773886913882
   98     0.02705119936142    -0.03126026278323     0.01325095862226     0.05550502873436    -0.06478619223037
   99     0.06089324802362     0.06474444440845     0.02369589247895    -0.10695459791502    -0.09773886913461
  100     0.02705119943110     0.03126026271031     0.01325095862100    -0.05550502874408    -0.06478619223279
  101    -0.06764211127453     0.00625057116860     0.11282252232138     0.05631288167874    -0.05702858698321
  102    -0.02830439277458     0.00026689954483     0.06159554107476     0.01833680076894    -0.03856974826090

                21                  22                  23                  24                  25

    1     0.00212651734136     0.01005782476605     0.01801649639909     0.01733339046301     0.01795412982933
    2     0.00246395725883    -0.01300314884372    -0.01762448612794    -0.01498628854509    -0.01497380457893
    3     0.15771275235817    -0.02586108294641    -0.01467122729806    -0.00897355430627     0.27988698522610
    4    -0.00000000000002     0.00000000000002    -0.00000000000001    -0.00000000000004    -0.00000000000001
    5     0.02754953779522    -0.11758403155043     0.12217297235089     0.19342747183777    -0.09525243156023
    6    -0.03621101503707    -0.03315738148118    -0.06215075463244    -0.07602028567527    -0.05929357374497
    7     0.10902948594338    -0.00712548288806    -0.02035742441404    -0.03302360479163     0.21436392688383
    8    -0.00000000000001     0.00000000000001    -0.00000000000001    -0.00000000000003     0.00000000000000
    9    -0.01809998501835    -0.09482699743600     0.11496536429882     0.17463298458072    -0.11652150439521
   10     0.00212651733635     0.01005782482140    -0.01801649637023    -0.01733339047952     0.01795412981225
   11     0.00246395726869    -0.01300314889373     0.01762448609128     0.01498628855902    -0.01497380455238
   12    -0.15771275236362     0.02586108299003    -0.01467122717454    -0.00897355404831    -0.27988698523592
   13    -0.00000000000002     0.00000000000001    -0.00000000000000    -0.00000000000001    -0.00000000000002
   14     0.02754953778210    -0.11758403117208    -0.12217297271597    -0.19342747176664    -0.09525243174092
   15    -0.03621101502914    -0.03315738170025     0.06215075449588     0.07602028573672    -0.05929357375257
   16    -0.10902948594430     0.00712548293807    -0.02035742434811    -0.03302360460543    -0.21436392694926
   17    -0.00000000000002     0.00000000000001    -0.00000000000000    -0.00000000000001    -0.00000000000003
   18    -0.01809998504126    -0.09482699711095    -0.11496536459939    -0.17463298449323    -0.11652150461437
   19    -0.03821330216410    -0.02642810481858     0.02413000561436     0.02230908724696    -0.02753811096383
   20     0.03875797538304     0.02821748546318    -0.02745488789864    -0.02505745802217     0.02693959572144
   21    -0.03765490087773    -0.00451920980538    -0.02784666907494    -0.03127234656551    -0.02878090425840
   22    -0.00000000000001     0.00000000000002     0.00000000000000    -0.00000000000000    -0.00000000000000
   23    -0.06308770326101     0.17580187007494     0.05543268018291     0.13374132043561    -0.04134290393678
   24     0.15030300115985     0.08411003667623    -0.07083026400054    -0.06216358123029     0.12180803443850
   25     0.03111503114054     0.01584317870943    -0.00923979347934    -0.01641528030807     0.02069725426044
   26    -0.00000000000001    -0.00000000000000     0.00000000000001     0.00000000000000    -0.00000000000001
   27    -0.04115756952030     0.07129296782948     0.00582901439480     0.06510004718621    -0.01654596945995
   28     0.00773007554680     0.01919934117812    -0.04954118479490    -0.00993592609200    -0.01383336033410
   29    -0.00512290411092    -0.01563960715275     0.05307726680233     0.01055646428382     0.01272395348808
   30    -0.17927607716373    -0.13645648325907    -0.03024069462854    -0.03291232188883     0.07895314822746
   31    -0.00000000000002    -0.00000000000001     0.00000000000002    -0.00000000000001     0.00000000000001
   32     0.11089875589310    -0.15958244805270     0.07207845320331    -0.08192307384711    -0.04046133703350
   33    -0.01682779214310    -0.05417959149032     0.16361199399457     0.04937435217630     0.03021681118926
   34    -0.14652313028797    -0.11390340185448    -0.03972226758732    -0.01150900509797     0.05352790253433
   35    -0.00000000000001     0.00000000000002    -0.00000000000000    -0.00000000000000     0.00000000000000
   36     0.11142281760759    -0.10934389661114     0.02650868658983    -0.07299089413251    -0.01472724008385
   37     0.00773007555233     0.01919934102342     0.04954118485274     0.00993592610457    -0.01383336032334
   38    -0.00512290410321    -0.01563960699328    -0.05307726685818    -0.01055646428486     0.01272395347471
   39     0.17927607715595     0.13645648334931    -0.03024069421838    -0.03291232182278    -0.07895314825406
   40    -0.00000000000001     0.00000000000001     0.00000000000002    -0.00000000000001     0.00000000000001
   41     0.11089875587938    -0.15958244783953    -0.07207845370438     0.08192307387503    -0.04046133696617
   42    -0.01682779222557    -0.05417959092600    -0.16361199409624    -0.04937435227980     0.03021681116621
   43     0.14652313032913     0.11390340198050    -0.03972226720771    -0.01150900509203    -0.05352790257380
   44    -0.00000000000002    -0.00000000000000     0.00000000000003    -0.00000000000001     0.00000000000001
   45     0.11142281767676    -0.10934389654802    -0.02650868688888     0.07299089416306    -0.01472724009790
   46    -0.03821330216792    -0.02642810474499    -0.02413000569001    -0.02230908722079    -0.02753811098369
   47     0.03875797538212     0.02821748538641     0.02745488797055     0.02505745798744     0.02693959575369
   48     0.03765490087330     0.00451920988775    -0.02784666906276    -0.03127234658852     0.02878090422813
   49     0.00000000000000     0.00000000000000     0.00000000000000    -0.00000000000001     0.00000000000000
   50    -0.06308770326110     0.17580187025370    -0.05543267962614    -0.13374132039040    -0.04134290405511
   51     0.15030300121597     0.08411003640572     0.07083026428009     0.06216358117374     0.12180803439413
   52    -0.03111503116358    -0.01584317866214    -0.00923979355171    -0.01641528030389    -0.02069725422326
   53     0.00000000000001     0.00000000000002    -0.00000000000000    -0.00000000000001    -0.00000000000000
   54    -0.04115756948995     0.07129296784250    -0.00582901419979    -0.06510004712767    -0.01654596951861
   55     0.00185956029664     0.00024539436109    -0.02092189972809    -0.02613192052234     0.00662725112641
   56     0.00161852260531     0.00190735066158     0.01860455319121     0.03091347126461    -0.00624226527617
   57    -0.01223255164013    -0.03480239209128     0.23144252744946    -0.15424391614674    -0.03424058864001
   58    -0.00000000000000     0.00000000000001    -0.00000000000000     0.00000000000001     0.00000000000001
   59    -0.19470875182278     0.09613884821057     0.04364066947242     0.03987177181589     0.08871944151272
   60    -0.04444943529037    -0.01100718312631     0.09380130880502     0.05125997014928    -0.02567620278419
   61     0.00782866518049    -0.03122673890171     0.21076960600813    -0.11172768218570    -0.03192592098952
   62     0.00000000000001     0.00000000000002    -0.00000000000001     0.00000000000000    -0.00000000000000
   63    -0.09200396328576     0.06436953732221     0.01803067479687     0.03021802602462     0.05021363102100
   64    -0.00266720388931    -0.01426700377177     0.03671493099567     0.00334635299666     0.00132877967325
   65     0.00330805307410     0.01986167868805    -0.04021190908747    -0.00179231349757    -0.00192156168187
   66    -0.19819974204512    -0.08881582389064    -0.01747143475754    -0.01373826587236     0.13877499283164
   67    -0.00000000000003     0.00000000000003    -0.00000000000000     0.00000000000002     0.00000000000002
   68     0.06683699324851    -0.18631630130097     0.01297645014418    -0.15300155473747    -0.01621680457694
   69     0.00572087997827     0.00835835135819    -0.10104668561087    -0.02131364229619     0.00391307991393
   70    -0.12083861883794    -0.07230762011475    -0.02343879639435    -0.03821546046064     0.09387766386842
   71    -0.00000000000002     0.00000000000001     0.00000000000001     0.00000000000001     0.00000000000002
   72     0.02840849712587    -0.13791094896370    -0.02706973308415    -0.13052976711635     0.00287001693629
   73    -0.00266720389841    -0.01426700365667    -0.03671493103945    -0.00334635299827     0.00132877967067
   74     0.00330805307681     0.01986167856384     0.04021190914870     0.00179231350076    -0.00192156167868
   75     0.19819974203933     0.08881582394792    -0.01747143451415    -0.01373826574999    -0.13877499284316
   76    -0.00000000000002     0.00000000000002     0.00000000000001     0.00000000000000     0.00000000000001
   77     0.06683699325715    -0.18631630126893    -0.01297645071812     0.15300155474656    -0.01621680445008
   78     0.00572088004965     0.00835835102428     0.10104668563571     0.02131364230541     0.00391307992756
   79     0.12083861882183     0.07230762015420    -0.02343879618483    -0.03821546037835    -0.09387766387473
   80    -0.00000000000001     0.00000000000002    -0.00000000000001    -0.00000000000000     0.00000000000000
   81     0.02840849710773    -0.13791094904008     0.02706973265425     0.13052976709772     0.00287001705380
   82     0.00185956030264     0.00024539429343     0.02092189972920     0.02613192051698     0.00662725114861
   83     0.00161852259975     0.00190735072084    -0.01860455317811    -0.03091347126532    -0.00624226530193
   84     0.01223255166465     0.03480239138545     0.23144252755616    -0.15424391617408     0.03424058851852
   85     0.00000000000000     0.00000000000000     0.00000000000002    -0.00000000000000     0.00000000000000
   86    -0.19470875182995     0.09613884834636    -0.04364066915943    -0.03987177188860     0.08871944147786
   87    -0.04444943530535    -0.01100718282046    -0.09380130889745    -0.05125997010694    -0.02567620285551
   88    -0.00782866517080     0.03122673826891     0.21076960608205    -0.11172768224057     0.03192592089106
   89    -0.00000000000000    -0.00000000000001     0.00000000000002     0.00000000000000     0.00000000000001
   90    -0.09200396333632     0.06436953735671    -0.01803067455585    -0.03021802609696     0.05021363103307
   91     0.02858538720377     0.05463250760405    -0.09387570692731    -0.13861158335565     0.12610771407319
   92     0.01781969577897     0.04040287936316    -0.06109131951363    -0.09551374400624     0.09664417791546
   93     0.02858538721924     0.05463250731498     0.09387570708574     0.13861158324893     0.12610771420595
   94     0.01781969578578     0.04040287916419     0.06109131963492     0.09551374392452     0.09664417799180
   95    -0.01102234250906    -0.02109500432307     0.17380006885848    -0.07800415290214    -0.03081024207603
   96    -0.01556103902244    -0.01536198220821     0.12035520559963    -0.06557623868686    -0.02356926197001
   97    -0.02225746630369    -0.12047335317547    -0.03603454510221    -0.09948744353891     0.03679460300919
   98    -0.01505487380493    -0.09436624467977    -0.01326951432547    -0.07270614042529     0.02772548499967
   99    -0.02225746628985    -0.12047335329368     0.03603454474069     0.09948744350354     0.03679460309264
  100    -0.01505487379311    -0.09436624474388     0.01326951404586     0.07270614041199     0.02772548506459
  101    -0.01102234253079    -0.02109500378986    -0.17380006892139     0.07800415292563    -0.03081024201629
  102    -0.01556103904132    -0.01536198183977    -0.12035520565160     0.06557623868440    -0.02356926192073

                26                  27                  28                  29                  30

    1     0.00000000000000     0.00281972588531     0.00470634748868     0.00000000000001     0.00000000000000
    2     0.00000000000000    -0.00526317480849    -0.00455236046777     0.00000000000000     0.00000000000001
    3    -0.00000000000000    -0.01315742753906     0.06668195119710     0.00000000000000    -0.00000000000001
    4     0.11828888462687    -0.00000000000001     0.00000000000002     0.17409975101002     0.11180704584523
    5    -0.00000000000001    -0.12071694462644    -0.01583549387374     0.00000000000000     0.00000000000000
    6    -0.00000000000005    -0.00586646599188     0.00052331648928    -0.00000000000006    -0.00000000000006
    7     0.00000000000001     0.00704953875136     0.05294612031486     0.00000000000002     0.00000000000002
    8     0.11120177542636    -0.00000000000001     0.00000000000002     0.18416267687640     0.12147114378619
    9    -0.00000000000005    -0.11895807193677    -0.00955770529798    -0.00000000000003    -0.00000000000006
   10    -0.00000000000000    -0.00281972588455     0.00470634748821    -0.00000000000000    -0.00000000000000
   11     0.00000000000000     0.00526317480745    -0.00455236046834    -0.00000000000000    -0.00000000000001
   12    -0.00000000000001    -0.01315742754605    -0.06668195119593    -0.00000000000001     0.00000000000001
   13     0.11828888462577    -0.00000000000003     0.00000000000002     0.17409975099922    -0.11180704584257
   14     0.00000000000004     0.12071694462789    -0.01583549387769     0.00000000000000    -0.00000000000001
   15     0.00000000000005     0.00586646598169     0.00052331652770     0.00000000000005     0.00000000000003
   16     0.00000000000000     0.00704953875482    -0.05294612034931     0.00000000000001     0.00000000000002
   17     0.11120177542884    -0.00000000000003     0.00000000000002     0.18416267687092    -0.12147114378561
   18     0.00000000000006     0.11895807194612    -0.00955770527007     0.00000000000003     0.00000000000003
   19     0.00000000000000     0.00917125784175     0.01924581164820    -0.00000000000000     0.00000000000000
   20     0.00000000000001    -0.01066353505811    -0.02148332065511     0.00000000000002    -0.00000000000001
   21     0.00000000000000    -0.00743472105920     0.01433352452039    -0.00000000000000    -0.00000000000000
   22     0.14777261524587    -0.00000000000005     0.00000000000002     0.12703011938527    -0.20107045311252
   23    -0.00000000000005    -0.14730001725850    -0.05872892606620    -0.00000000000000     0.00000000000001
   24    -0.00000000000005    -0.00719180592341    -0.04804546178855    -0.00000000000005    -0.00000000000001
   25    -0.00000000000002     0.00171468474138    -0.00769190321117    -0.00000000000003    -0.00000000000001
   26     0.12505752290881    -0.00000000000004     0.00000000000003     0.12687007139309    -0.20545508534155
   27     0.00000000000000    -0.06464816245159    -0.00677321572450     0.00000000000001    -0.00000000000000
   28     0.00000000000000    -0.01124847836514    -0.00365795713317     0.00000000000000    -0.00000000000001
   29     0.00000000000002     0.01158350781831    -0.00091958612523     0.00000000000000    -0.00000000000002
   30    -0.00000000000000    -0.01639526835674     0.19340313149594    -0.00000000000002     0.00000000000001
   31     0.18733317196880    -0.00000000000004     0.00000000000003    -0.00219918864522    -0.16485228605111
   32     0.00000000000005     0.17035463145010    -0.05913744578176     0.00000000000001    -0.00000000000001
   33    -0.00000000000005     0.03325659398109     0.00045792536940    -0.00000000000002     0.00000000000012
   34    -0.00000000000000    -0.01125227549395     0.19618737126042     0.00000000000001     0.00000000000003
   35     0.17796830275369    -0.00000000000005     0.00000000000003    -0.00273766982179    -0.17392501239303
   36     0.00000000000002     0.19615752992121    -0.03094911434595    -0.00000000000004     0.00000000000003
   37     0.00000000000000     0.01124847836460    -0.00365795713135     0.00000000000000     0.00000000000000
   38    -0.00000000000001    -0.01158350782763    -0.00091958613695    -0.00000000000000    -0.00000000000001
   39     0.00000000000001    -0.01639526836272    -0.19340313149488     0.00000000000001    -0.00000000000002
   40     0.18733317195436    -0.00000000000003     0.00000000000003    -0.00219918863237     0.16485228604107
   41    -0.00000000000002    -0.17035463145613    -0.05913744578579     0.00000000000001     0.00000000000001
   42    -0.00000000000001    -0.03325659390714     0.00045792543593    -0.00000000000004    -0.00000000000007
   43    -0.00000000000000    -0.01125227546672    -0.19618737116297     0.00000000000004     0.00000000000002
   44     0.17796830273403    -0.00000000000003     0.00000000000004    -0.00273766981057     0.17392501238084
   45     0.00000000000003    -0.19615752995026    -0.03094911428785     0.00000000000004     0.00000000000000
   46    -0.00000000000001    -0.00917125784176     0.01924581164750    -0.00000000000001    -0.00000000000000
   47    -0.00000000000000     0.01066353506605    -0.02148332065552     0.00000000000000    -0.00000000000002
   48     0.00000000000001    -0.00743472106227    -0.01433352451996     0.00000000000001     0.00000000000001
   49     0.14777261524385    -0.00000000000003     0.00000000000002     0.12703011940326     0.20107045311430
   50     0.00000000000001     0.14730001725876    -0.05872892606741    -0.00000000000001    -0.00000000000002
   51     0.00000000000011     0.00719180586885    -0.04804546175785     0.00000000000012     0.00000000000010
   52    -0.00000000000002     0.00171468475432     0.00769190319368    -0.00000000000003    -0.00000000000003
   53     0.12505752290940    -0.00000000000002     0.00000000000000     0.12687007141067     0.20545508534090
   54     0.00000000000002     0.06464816241282    -0.00677321578929     0.00000000000001    -0.00000000000000
   55    -0.00000000000000    -0.01130654843011     0.00439032096819    -0.00000000000001     0.00000000000000
   56     0.00000000000000     0.01131797843162    -0.00894574525735     0.00000000000001    -0.00000000000000
   57    -0.00000000000003    -0.01111929859971     0.19084932128577    -0.00000000000004     0.00000000000000
   58     0.12912207308796    -0.00000000000002    -0.00000000000002    -0.12944310053780     0.16325934380662
   59     0.00000000000001     0.20769545286569     0.02016011613917     0.00000000000003    -0.00000000000001
   60    -0.00000000000002     0.06083818550752     0.01008436766929    -0.00000000000001     0.00000000000002
   61     0.00000000000002    -0.00812878014941     0.22782410316463    -0.00000000000003    -0.00000000000000
   62     0.11622865327099    -0.00000000000003    -0.00000000000003    -0.13786802833148     0.17951690667032
   63     0.00000000000001     0.12291475038148    -0.00854964223877     0.00000000000004    -0.00000000000001
   64    -0.00000000000000     0.00415782264598    -0.00455909040231     0.00000000000000     0.00000000000000
   65     0.00000000000000    -0.00219893131222     0.00410784250776    -0.00000000000001     0.00000000000001
[...]
   95    -0.26677327942434     0.08169110091777    -0.11448496652295    -0.24932125652553    -0.07888663443945
   96    -0.31291970307672     0.21424591440996    -0.13800302835915    -0.35056928258566    -0.02607694884344
   97     0.07752553736843     0.08565732743544    -0.15026586349139     0.08592080603497    -0.08430990588705
   98     0.11541124631940     0.09889246826966    -0.21965825446863     0.14877603869993    -0.12369290850154
   99     0.07752553788339    -0.08565732773268     0.15026586293116     0.08592080616726    -0.08430990611517
  100     0.11541124689258    -0.09889246869511     0.21965825356620     0.14877603883786    -0.12369290886936
  101    -0.26677327933270    -0.08169109990515     0.11448496782061    -0.24932125568077    -0.07888663492132
  102    -0.31291970329097    -0.21424591366993     0.13800303022520    -0.35056928214535    -0.02607694972048

               101                 102

    1     0.07403180632995     0.01397115551519
    2     1.07154561822294     0.17690997160015
    3    -0.00574400681338     0.01152603826187
    4    -0.00000000000001     0.00000000000000
    5     0.12192960313608     0.03319499762027
    6    -5.61104866473329    -0.82043972439735
    7     1.24551900428808     0.12304471534674
    8     0.00000000000001    -0.00000000000001
    9    -3.46713011150831    -0.58091865723636
   10    -0.07403180632874    -0.01397115551140
   11    -1.07154561795434    -0.17690997141374
   12    -0.00574400672431     0.01152603840221
   13    -0.00000000000001    -0.00000000000000
   14    -0.12192960285241    -0.03319499764397
   15     5.61104866530627     0.82043972353075
   16     1.24551900392521     0.12304471511628
   17     0.00000000000001     0.00000000000002
   18     3.46713011118688     0.58091865648083
   19     0.08179144364861     0.01193218044354
   20     1.10113980380678     0.32046000816129
   21    -0.09659938954690     0.05930829792435
   22    -0.00000000000000     0.00000000000000
   23    -0.06169889706902     0.13099638378476
   24    -8.67665433102629     0.44973716478472
   25    -2.91953899067304    -0.13064472917704
   26     0.00000000000000    -0.00000000000005
   27    -0.49974556800987     0.54092171784289
   28    -0.03372094212998    -0.08649796731284
   29    -0.44949661228977    -0.90304932865784
   30     0.08924136770358    -0.08303146929553
   31     0.00000000000001    -0.00000000000003
   32     0.24826463292909    -0.17560560944584
   33     2.49354632066983     5.57987830113805
   34    -0.67948273607184     1.89524253085815
   35    -0.00000000000001     0.00000000000009
   36    -5.52292186757678     4.01525622432846
   37     0.03372094215633     0.08649796732830
   38     0.44949661296870     0.90304932894222
   39     0.08924136742609    -0.08303146898818
   40     0.00000000000002     0.00000000000003
   41    -0.24826463245620     0.17560560919733
   42    -2.49354632366582    -5.57987830269278
   43    -0.67948273605768     1.89524252961987
   44    -0.00000000000001    -0.00000000000004
   45     5.52292186355150    -4.01525622117497
   46    -0.08179144362435    -0.01193218049031
   47    -1.10113980362485    -0.32046000900130
   48    -0.09659938949310     0.05930829799952
   49     0.00000000000003     0.00000000000000
   50     0.06169889697101    -0.13099638373418
   51     8.67665432902147    -0.44973716037629
   52    -2.91953898992505    -0.13064473067888
   53    -0.00000000000003     0.00000000000000
   54     0.49974556808387    -0.54092171686814
   55     0.03159614107252    -0.08890910069358
   56     0.27850608220540    -1.03683382377110
   57     0.01937654533256     0.09706040839396
   58    -0.00000000000000     0.00000000000001
   59     0.13243701614060     0.01009484246906
   60    -3.83143939984640     7.00018065477086
   61     2.27612332067353    -4.31972424622822
   62     0.00000000000001    -0.00000000000001
   63    -0.22020534856394    -0.22989856701580
   64    -0.03562013017622     0.08907537940817
   65    -0.43624019447385     1.04618933818235
   66     0.03387574978608    -0.04537820580221
   67     0.00000000000001    -0.00000000000002
   68    -0.00286673377324    -0.08150881629784
   69     3.23260609244043    -6.96032340875023
   70    -0.70514766505407     2.28590373583419
   71    -0.00000000000001     0.00000000000002
   72    -1.66258056157976     3.81743183123894
   73     0.03562013021214    -0.08907537943793
   74     0.43624019549371    -1.04618933901887
   75     0.03387575020391    -0.04537820600319
   76     0.00000000000000     0.00000000000001
   77     0.00286673380027     0.08150881627523
   78    -3.23260609588413     6.96032341209111
   79    -0.70514766545238     2.28590373549993
   80    -0.00000000000001    -0.00000000000002
   81     1.66258056381026    -3.81743183282028
   82    -0.03159614116221     0.08890910074975
   83    -0.27850608436304     1.03683382511735
   84     0.01937654481696     0.09706040869517
   85    -0.00000000000002     0.00000000000001
   86    -0.13243701619950    -0.01009484235641
   87     3.83143940747619    -7.00018065938997
   88     2.27612332533027    -4.31972424934122
   89     0.00000000000002    -0.00000000000002
   90     0.22020534817264     0.22989856589854
   91    -0.26703246150270    -0.04968399432194
   92    -0.63378894667598    -0.12411460157012
   93     0.26703246145373     0.04968399425249
   94     0.63378894632887     0.12411460138869
   95    -0.20964778115277     0.26568018838303
   96    -0.38696606570131     0.81666838851061
   97     0.09003578231822    -0.29750686626761
   98     0.28339844147256    -0.83765993701928
   99    -0.09003578247429     0.29750686623741
  100    -0.28339844184326     0.83765993712499
  101     0.20964778146030    -0.26568018865848
  102     0.38696606661474    -0.81666838908821




 mo_group[0]:0 mo_group[1]:25 mo_group[2]:29
 mo_group[0]:0 mo_group[1]:28 mo_group[2]:31
 mo_group[0]:0 mo_group[1]:35 mo_group[2]:36
  DFIntegrals overall time
 Computing Density fitted integrals 

 Number of auxiliary basis functions:  644
 Need 0.049920 GB to store DF integrals

    Computing DF Integrals               ......Done. Timing        2.158280 s
    Seeking DF Integrals                 ......Done. Timing        2.167298 s
   Reading DF Integrals                 . . ....Done. Timing        2.177714 s
  Frozen-core energy           -545.132909788842 a.u.

 FrozenOneBody Operator takes  2.81850400 s
  Resorting integrals after freezing core.
 Done with resorting
 Resorting integrals takes   0.27221400s
  DFIntegrals take      5.44195200 s

                -----------------------------------------------
                  String-based Full Configuration Interaction
                          by Francesco A. Evangelista
                -----------------------------------------------

  Number of electrons: 66
  Charge: 0
  Multiplicity: 1
  Davidson subspace max dim: 8
  Davidson subspace min dim: 2
  M_s: 0

  ==> String Lists <==

  Number of alpha electrons     = 4
  Number of beta electrons      = 4
  Number of alpha strings       = 35
  Number of beta strings        = 35
  Number of alpha strings (N-3) = 7
  Number of beta strings (N-3)  = 7
  Timing for strings        =      0.000 s
  Timing for NN strings     =      0.000 s
  Timing for VO strings     =      0.001 s
  Timing for OO strings     =      0.000 s
  Timing for Knowles-Handy  =      0.000 s
  Timing for VVOO strings   =      0.007 s
  Timing for VOVO strings   =      0.000 s
  Timing for 1-hole strings =      0.000 s
  Timing for 2-hole strings =      0.001 s
  Timing for 3-hole strings =      0.001 s
  Total timing              =      0.009 s

  ==> FCI Solver <==

    Number of determinants                        1225
    Symmetry                                         0
    Multiplicity                                     1
    Number of roots                                  1
    Target root                                      0
    Trial vectors per root                          10

 active_mo size = 7
  Allocating memory for the Hamiltonian algorithm. Size: 2 x 35 x 35.   Memory: 0.000018 GB

  Determinant space is spin incomplete!
  12 more determinants were needed.
  Initial guess space is incomplete.
  Adding 12 determinant(s).

  ==> FCI Initial Guess <==

  ---------------------------------------------
    Root            Energy     <S^2>   Spin
  ---------------------------------------------
      0     -379.896365823633  0.000  singlet
      1     -379.889115543197  2.000  triplet
      2     -379.705727590376  6.000  quintet
      3     -379.693809520074  2.000  triplet
      4     -379.687829925304  0.000  singlet
      5     -379.657418098184  2.000  triplet
      6     -379.655240613618  0.000  singlet
      7     -379.630147762531  6.000  quintet
      8     -379.629167548521  2.000  triplet
      9     -379.612806458349  2.000  triplet
     10     -379.610407748368  0.000  singlet
     11     -379.606856510119  2.000  triplet
     12     -379.605446166674  2.000  triplet
     13     -379.595182986702  0.000  singlet
     14     -379.594374071211  0.000  singlet
     15     -379.548654677566  2.000  triplet
     16     -379.536454898936  6.000  quintet
     17     -379.530180365494  2.000  triplet
     18     -379.525699839750  2.000  triplet
     19     -379.518616716548  0.000  singlet
     20     -379.510080003780  2.000  triplet
     21     -379.506904607708  0.000  singlet
     22     -379.490358403696  2.000  triplet
     23     -379.476543144920  0.000  singlet
     24     -379.474650727784  0.000  singlet
     25     -379.463938518213  0.000  singlet
     26     -379.284459795490  2.000  triplet
     27     -379.211731148968  0.000  singlet
     28     -379.204657770447  2.000  triplet
     29     -379.112542056531  2.000  triplet
     30     -379.106398030301  0.000  singlet
     31     -379.076809077089  0.000  singlet
  ---------------------------------------------
  Timing for initial guess  =      0.028 s

  Projecting out root 1
  Projecting out root 2
  Projecting out root 3
  Projecting out root 5
  Projecting out root 7
  Projecting out root 8
  Projecting out root 9
  Projecting out root 11
  Projecting out root 12
  Projecting out root 15
  Projecting out root 16
  Projecting out root 17
  Projecting out root 18
  Projecting out root 20
  Projecting out root 22
  Projecting out root 26
  Projecting out root 28
  Projecting out root 29
  ==> Diagonalizing Hamiltonian <==

  ----------------------------------------
    Iter.      Avg. Energy       Delta_E
  ----------------------------------------
      1     -379.896365823635  -3.799e+02
      2     -379.906753444804  -1.039e-02
      3     -379.907197414049  -4.440e-04
      4     -379.907257188802  -5.977e-05
      5     -379.907264907053  -7.718e-06
      6     -379.907265899619  -9.926e-07
      7     -379.907265975680  -7.606e-08
      8     -379.907265985564  -9.884e-09
      9     -379.907265987680  -2.116e-09
     10     -379.907265987882  -2.018e-10
     11     -379.907265987903  -2.069e-11
     12     -379.907265987907  -3.752e-12
     13     -379.907265987907  -2.274e-13
  ----------------------------------------
  The Davidson-Liu algorithm converged in 14 iterations.

  ==> Root No. 0 <==

    2222000      0.79575066
    2220200     -0.59264225

    Total Energy:      -379.907265987906783

  ==> RDMs for Root No. 0 <==

                          ----------------------------
                            Semi-Canonical Orbitals
                            Francesco A. Evangelista
                          ----------------------------


  ==> Integral transformation <==

 Computing Density fitted integrals 

 Number of auxiliary basis functions:  644
 Need 0.049920 GB to store DF integrals

    Computing DF Integrals               ......Done. Timing        2.114191 s
    Seeking DF Integrals                 ......Done. Timing        2.123332 s
   Reading DF Integrals                 . . ....Done. Timing        2.134528 s
  Frozen-core energy           -545.132909788903 a.u.

 FrozenOneBody Operator takes  2.83366100 s
  Resorting integrals after freezing core.
 Done with resorting
 Resorting integrals takes   0.27079200s
 Frozen Orbitals takes 3.12635800 s

                -----------------------------------------------
                  String-based Full Configuration Interaction
                          by Francesco A. Evangelista
                -----------------------------------------------

  Number of electrons: 66
  Charge: 0
  Multiplicity: 1
  Davidson subspace max dim: 8
  Davidson subspace min dim: 2
  M_s: 0

  ==> String Lists <==

  Number of alpha electrons     = 4
  Number of beta electrons      = 4
  Number of alpha strings       = 35
  Number of beta strings        = 35
  Number of alpha strings (N-3) = 7
  Number of beta strings (N-3)  = 7
  Timing for strings        =      0.000 s
  Timing for NN strings     =      0.000 s
  Timing for VO strings     =      0.001 s
  Timing for OO strings     =      0.000 s
  Timing for Knowles-Handy  =      0.000 s
  Timing for VVOO strings   =      0.007 s
  Timing for VOVO strings   =      0.000 s
  Timing for 1-hole strings =      0.000 s
  Timing for 2-hole strings =      0.001 s
  Timing for 3-hole strings =      0.001 s
  Total timing              =      0.009 s

  ==> FCI Solver <==

    Number of determinants                        1225
    Symmetry                                         0
    Multiplicity                                     1
    Number of roots                                  1
    Target root                                      0
    Trial vectors per root                          10

 active_mo size = 7
  Allocating memory for the Hamiltonian algorithm. Size: 2 x 35 x 35.   Memory: 0.000018 GB

  Determinant space is spin incomplete!
  12 more determinants were needed.
  Initial guess space is incomplete.
  Adding 12 determinant(s).

  ==> FCI Initial Guess <==

  ---------------------------------------------
    Root            Energy     <S^2>   Spin
  ---------------------------------------------
      0     -379.896370359176  0.000  singlet
      1     -379.889103157364  2.000  triplet
      2     -379.705920968568  6.000  quintet
      3     -379.694002298868  2.000  triplet
      4     -379.688015058808  0.000  singlet
      5     -379.657913227472  2.000  triplet
      6     -379.655739744137  0.000  singlet
      7     -379.629956754367  6.000  quintet
      8     -379.628837694950  2.000  triplet
      9     -379.613224350598  2.000  triplet
     10     -379.610831089237  0.000  singlet
     11     -379.605903371401  2.000  triplet
     12     -379.605091506592  2.000  triplet
     13     -379.594367299045  0.000  singlet
     14     -379.594086714732  0.000  singlet
     15     -379.548908953536  2.000  triplet
     16     -379.536652263725  6.000  quintet
     17     -379.529118765061  2.000  triplet
     18     -379.525885581933  2.000  triplet
     19     -379.517685528122  0.000  singlet
     20     -379.510210596111  2.000  triplet
     21     -379.507139783816  0.000  singlet
     22     -379.490378024172  2.000  triplet
     23     -379.476220943230  0.000  singlet
     24     -379.474637853949  0.000  singlet
     25     -379.463902499316  0.000  singlet
     26     -379.284652606743  2.000  triplet
     27     -379.211299849713  0.000  singlet
     28     -379.204429739711  2.000  triplet
     29     -379.112754724818  2.000  triplet
     30     -379.106567584240  0.000  singlet
     31     -379.076760291392  0.000  singlet
  ---------------------------------------------
  Timing for initial guess  =      0.028 s

  Projecting out root 1
  Projecting out root 2
  Projecting out root 3
  Projecting out root 5
  Projecting out root 7
  Projecting out root 8
  Projecting out root 9
  Projecting out root 11
  Projecting out root 12
  Projecting out root 15
  Projecting out root 16
  Projecting out root 17
  Projecting out root 18
  Projecting out root 20
  Projecting out root 22
  Projecting out root 26
  Projecting out root 28
  Projecting out root 29
  ==> Diagonalizing Hamiltonian <==

  ----------------------------------------
    Iter.      Avg. Energy       Delta_E
  ----------------------------------------
      1     -379.896370359175  -3.799e+02
      2     -379.906763092549  -1.039e-02
      3     -379.907199199895  -4.361e-04
      4     -379.907257531883  -5.833e-05
      5     -379.907264935749  -7.404e-06
      6     -379.907265901279  -9.655e-07
      7     -379.907265975884  -7.461e-08
      8     -379.907265985832  -9.948e-09
      9     -379.907265988000  -2.168e-09
     10     -379.907265988205  -2.052e-10
     11     -379.907265988227  -2.137e-11
     12     -379.907265988230  -2.956e-12
     13     -379.907265988230  -2.274e-13
     14     -379.907265988230  +2.274e-13
     15     -379.907265988230  -3.411e-13
  ----------------------------------------
  The Davidson-Liu algorithm converged in 16 iterations.

  ==> Root No. 0 <==

    2222000      0.79581856
    2220200     -0.59264289

    Total Energy:      -379.907265988229994

  ==> RDMs for Root No. 0 <==

	  ---------------------------------------------------------
	      DF/CD - Driven Similarity Renormalization Group MBPT2
	                   Kevin Hannon and Chenyang (York) Li
	                       1 thread(s) 
	  ---------------------------------------------------------
 Reference = ROHF
  Reference Energy = -379.907265988229994

  ==> Calculation Information <==

    Flow parameter                           5.000e-01
    Cholesky Tolerance                       1.000e-06
    Taylor expansion threshold               1.000e-03
    int_type                                        DF
    ccvv_algorithm                           FLY_AMBIT
    ccvv_source                                 NORMAL
    Computing T2                         ......Done. Timing        1.207496 s
    Renormalizing V                      ......Done. Timing        0.872063 s
    Computing T1                         ......Done. Timing        0.008065 s
    Renormalizing F                      ......Done. Timing        0.007879 s
    Computing <[F, T1]>                  ......Done. Timing        0.003057 s
    Computing <[F, T2]>                  ......Done. Timing        0.003724 s
    Computing <[V, T1]>                  ......Done. Timing        0.003126 s
    Computing <[V, T2]> (C_2)^4 (no ccvv) ......Done. Timing        0.099661 s
    Computing <[V, T2]> (C_2)^4 ccvv     ......Done. Timing        1.400647 s
    Computing <[V, T2]> 4HH              ......Done. Timing        0.022790 s
    Computing <V, T2]> 4PP               ...  Done. Timing        0.109037 s
    Computing [V, T2] 4PH                ...  Done. Timing        0.214314 s
    Computing [V, T2] 3                ......Done. Timing        0.125092 s

  ==> DSRG-MRPT2 Energy Summary <==

    E0 (reference)                 =   -379.907265988229994
    <[F, T1]>                      =     -0.009827834200742
    <[F, T2]>                      =      0.007888268438595
    <[V, T1]>                      =      0.008883013950607
    <[V, T2]> (C_2)^4              =     -0.872874922663365
    <[V, T2]> C_4 (C_2)^2 HH       =      0.004228409893445
    <[V, T2]> C_4 (C_2)^2 PP       =      0.013058829172104
    <[V, T2]> C_4 (C_2)^2 PH       =      0.052347074337484
    <[V, T2]> C_6 C_2              =     -0.000649763065020
    <[V, T2]>                      =     -0.803890372325352
    DSRG-MRPT2 correlation energy  =     -0.796946924136892
    DSRG-MRPT2 total energy        =   -380.704212912366870
    max(T1)                        =      0.023258696948348
    ||T1||                         =      0.066533712874465


    CD/DF-DSRG-MRPT2 took   4.08044800 s.

  Your calculation took 19.21397900 seconds

*** PSI4 exiting successfully. Buy a developer a beer!
