
    -----------------------------------------------------------------------
          Psi4: An Open-Source Ab Initio Electronic Structure Package
                               Psi4 undefined 

                         Git: Rev {HEAD} f016cba 


    D. G. A. Smith, L. A. Burns, A. C. Simmonett, R. M. Parrish,
    M. C. Schieber, R. Galvelis, P. Kraus, H. Kruse, R. Di Remigio,
    A. Alenaizan, A. M. James, S. Lehtola, J. P. Misiewicz, M. Scheurer,
    R. A. Shaw, J. B. Schriber, Y. Xie, Z. L. Glick, D. A. Sirianni,
    J. S. O'Brien, J. M. Waldrop, A. Kumar, E. G. Hohenstein,
    B. P. Pritchard, B. R. Brooks, H. F. Schaefer III, A. Yu. Sokolov,
    K. Patkowski, A. E. DePrince III, U. Bozkaya, R. A. King,
    F. A. Evangelista, J. M. Turney, T. D. Crawford, C. D. Sherrill,
    J. Chem. Phys. 152(18) 184108 (2020). https://doi.org/10.1063/5.0006002

                            Additional Code Authors
    E. T. Seidl, C. L. Janssen, E. F. Valeev, M. L. Leininger,
    J. F. Gonthier, R. M. Richard, H. R. McAlexander, M. Saitow, X. Wang,
    P. Verma, M. H. Lechner, and A. Jiang

             Previous Authors, Complete List of Code Contributors,
                       and Citations for Specific Modules
    https://github.com/psi4/psi4/blob/master/codemeta.json
    https://github.com/psi4/psi4/graphs/contributors
    http://psicode.org/psi4manual/master/introduction.html#citing-psifour

    -----------------------------------------------------------------------


    Psi4 started on: Monday, 21 February 2022 10:44AM

    Process ID: 56295
    Host:       Yorks-Mac.local
    PSIDATADIR: /Users/york/src/psi4new/psi4/share/psi4
    Memory:     500.0 MiB
    Threads:    1
    
  ==> Input File <==

--------------------------------------------------------------------------
# test DSRG-MRPT2 size consistency on N2

import forte

E2_cas = -108.776828474020519
E2_pt2 = -108.943387904662131
E1_cas =  -54.388414237010380
E1_pt2 =  -54.471693952303461

molecule N2{
  0 1
  N
  N  1 R

  R = 100.0
}

molecule N {
0 4
N
}

activate(N2)

set {
  basis               cc-pvdz
  reference           rhf
  scf_type            out_of_core
  maxiter             300
  e_convergence       10
  d_convergence       8
  docc                [3,0,0,0,0,2,1,1]
  restricted_docc     [2,0,0,0,0,2,0,0]
  active              [1,0,1,1,0,1,1,1]
  mcscf_maxiter       100
  mcscf_r_convergence 8
  mcscf_e_convergence 10
  mcscf_diis_start    6
}
Ecas, wfn_cas = energy('casscf', return_wfn=True)
compare_values(E2_cas, Ecas, 7, "CASSCF energy of N2")

set forte {
  active_space_solver cas
  correlation_solver  dsrg-mrpt2
  frozen_docc         [1,0,0,0,0,1,0,0]
  frozen_uocc         [0,0,0,0,0,0,0,0]
  restricted_docc     [1,0,0,0,0,1,0,0]
  active              [1,0,1,1,0,1,1,1]
  dsrg_s              0.5
  ntrial_per_root     56
  relax_ref           once
}
Eforte2, wfn_cas = energy('forte', ref_wfn=wfn_cas, return_wfn=True)
compare_values(E2_pt2, Eforte2, 7, "DSRG-MRPT2 relaxed energy of N2")

clean()

activate(N)

set {
  reference rohf
  docc      [2,0,0,0,0,0,0,0]
  socc      [0,0,0,0,0,1,1,1]
}
Ecas, wfn_cas = energy('scf', return_wfn=True)
compare_values(E1_cas, Ecas, 7, "CASSCF energy of N atom")

set forte {
  frozen_docc      [1,0,0,0,0,0,0,0]
  restricted_docc  [1,0,0,0,0,0,0,0]
  active           [0,0,0,0,0,1,1,1]
  root_sym         4
  dsrg_rdm_ms_avg  true
  ms               1.5
}
Eforte1, wfn_cas = energy('forte', ref_wfn=wfn_cas, return_wfn=True)
compare_values(E1_pt2, Eforte1, 7, "DSRG-MRPT2 relaxed energy of N atom")
compare_values(Eforte2, 2.0 * Eforte1, 7, "Size consistency error: E_N2 - 2 * E_N")
--------------------------------------------------------------------------

Scratch directory: /Users/york/scratch/psi4/

*** tstart() called on Yorks-Mac.local
*** at Mon Feb 21 10:44:15 2022

   => Loading Basis Set <=

    Name: CC-PVDZ
    Role: ORBITAL
    Keyword: BASIS
    atoms 1-2 entry N          line   168 file /Users/york/src/psi4new/psi4/share/psi4/basis/cc-pvdz.gbs 


         ---------------------------------------------------------
                                   SCF
               by Justin Turney, Rob Parrish, Andy Simmonett
                          and Daniel G. A. Smith
                              RHF Reference
                        1 Threads,    500 MiB Core
         ---------------------------------------------------------

  ==> Geometry <==

    Molecular point group: d2h
    Full point group: D_inf_h

    Geometry (in Angstrom), charge = 0, multiplicity = 1:

       Center              X                  Y                   Z               Mass       
    ------------   -----------------  -----------------  -----------------  -----------------
         N            0.000000000000     0.000000000000   -50.000000000000    14.003074004430
         N            0.000000000000     0.000000000000    50.000000000000    14.003074004430

  Running in d2h symmetry.

  Rotational constants: A = ************  B =      0.00024  C =      0.00024 [cm^-1]
  Rotational constants: A = ************  B =      7.21812  C =      7.21812 [MHz]
  Nuclear repulsion =    0.259296833228300

  Charge       = 0
  Multiplicity = 1
  Electrons    = 14
  Nalpha       = 7
  Nbeta        = 7

  ==> Algorithm <==

  SCF Algorithm Type is OUT_OF_CORE.
  DIIS enabled.
  MOM disabled.
  Fractional occupation disabled.
  Guess Type is SAD.
  Energy threshold   = 1.00e-10
  Density threshold  = 1.00e-08
  Integral threshold = 1.00e-12

  ==> Primary Basis <==

  Basis Set: CC-PVDZ
    Blend: CC-PVDZ
    Number of shells: 12
    Number of basis functions: 28
    Number of Cartesian functions: 30
    Spherical Harmonics?: true
    Max angular momentum: 2

  ==> Integral Setup <==

  ==> DiskJK: Disk-Based J/K Matrices <==

    J tasked:                  Yes
    K tasked:                  Yes
    wK tasked:                  No
    Memory [MiB]:              375
    Schwarz Cutoff:          1E-12

  Minimum eigenvalue in the overlap matrix is 1.8560178110E-01.
  Reciprocal condition number of the overlap matrix is 1.0840187179E-01.
    Using symmetric orthogonalization.

  ==> Pre-Iterations <==

  SCF Guess: Superposition of Atomic Densities via on-the-fly atomic UHF (no occupation information).

   -------------------------
    Irrep   Nso     Nmo    
   -------------------------
     Ag         7       7 
     B1g        1       1 
     B2g        3       3 
     B3g        3       3 
     Au         1       1 
     B1u        7       7 
     B2u        3       3 
     B3u        3       3 
   -------------------------
    Total      28      28
   -------------------------

  ==> Iterations <==

                        Total Energy        Delta E     RMS |[F,P]|

   @RHF iter SAD:  -106.68350190148027   -1.06684e+02   0.00000e+00 
   @RHF iter   1:  -107.65905581239397   -9.75554e-01   7.75316e-03 DIIS
   @RHF iter   2:  -107.66479335093186   -5.73754e-03   2.09581e-03 DIIS
   @RHF iter   3:  -107.66513768730677   -3.44336e-04   4.47461e-04 DIIS
   @RHF iter   4:  -107.66515342090105   -1.57336e-05   3.78544e-06 DIIS
   @RHF iter   5:  -107.66515342156539   -6.64343e-10   6.08743e-08 DIIS
   @RHF iter   6:  -107.66515342156571   -3.12639e-13   3.59989e-09 DIIS
  Energy and wave function converged.


  ==> Post-Iterations <==

    Orbital Energies [Eh]
    ---------------------

    Doubly Occupied:                                                      

       1Ag   -15.788734     1B1u  -15.788734     2Ag    -1.006629  
       2B1u   -1.006629     3Ag    -0.233957     1B2u   -0.233957  
       1B3u   -0.233957  

    Virtual:                                                              

       1B3g   -0.228665     1B2g   -0.228665     3B1u   -0.228665  
       2B2u    0.928002     2B3u    0.928002     2B2g    0.928002  
       2B3g    0.928002     4Ag     0.928002     4B1u    0.928002  
       5Ag     1.001527     5B1u    1.001527     6Ag     2.002076  
       3B3u    2.002076     3B2u    2.002076     1B1g    2.002076  
       7Ag     2.002076     1Au     2.002076     6B1u    2.002076  
       3B3g    2.002076     3B2g    2.002076     7B1u    2.002076  

    Final Occupation by Irrep:
             Ag   B1g   B2g   B3g    Au   B1u   B2u   B3u 
    DOCC [     3,    0,    0,    0,    0,    2,    1,    1 ]

  @RHF Final Energy:  -107.66515342156571

   => Energetics <=

    Nuclear Repulsion Energy =              0.2592968332283000
    One-Electron Energy =                -147.2637064487093426
    Two-Electron Energy =                  39.3392561939153467
    Total Energy =                       -107.6651534215657051

Computation Completed


Properties will be evaluated at   0.000000,   0.000000,   0.000000 [a0]

Properties computed using the SCF density matrix

  Nuclear Dipole Moment: [e a0]
     X:     0.0000      Y:     0.0000      Z:     0.0000

  Electronic Dipole Moment: [e a0]
     X:     0.0000      Y:     0.0000      Z:     0.0000

  Dipole Moment: [e a0]
     X:     0.0000      Y:     0.0000      Z:     0.0000     Total:     0.0000

  Dipole Moment: [D]
     X:     0.0000      Y:     0.0000      Z:     0.0000     Total:     0.0000


*** tstop() called on Yorks-Mac.local at Mon Feb 21 10:44:15 2022
Module time:
	user time   =       0.37 seconds =       0.01 minutes
	system time =       0.02 seconds =       0.00 minutes
	total time  =          0 seconds =       0.00 minutes
Total time:
	user time   =       0.37 seconds =       0.01 minutes
	system time =       0.02 seconds =       0.00 minutes
	total time  =          0 seconds =       0.00 minutes
 MINTS: Wrapper to libmints.
   by Justin Turney

   Calculation information:
      Number of threads:                 1
      Number of atoms:                   2
      Number of AO shells:              12
      Number of SO shells:               6
      Number of primitives:             44
      Number of atomic orbitals:        30
      Number of basis functions:        28

      Number of irreps:                  8
      Integral cutoff                 1.00e-12
      Number of functions per irrep: [   7    1    3    3    1    7    3    3 ]

 OEINTS: Overlap, kinetic, potential, dipole, and quadrupole integrals
         stored in file 35.

      Computing two-electron integrals...done
      Computed 9629 non-zero two-electron integrals.
        Stored in file 33.


         ---------------------------------------------------------
                Multi-Configurational Self-Consistent Field
                            (a 'D E T C I' module)

                 Daniel G. A. Smith, C. David Sherrill, and
                              Matt L. Leininger
         ---------------------------------------------------------


   ==> Parameters <==

    EX LEVEL       =        6      H0 BLOCKSIZE  =     1000
    VAL EX LEVEL   =        0      H0 GUESS SIZE =     1000
    H0COUPLINGSIZE =        0      H0 COUPLING   =       NO
    MAXITER        =       12      NUM PRINT     =       20
    NUM ROOTS      =        1      ICORE         =        1
    PRINT LVL      =        1      FCI           =      YES
    R CONV         = 1.00e-07      MIXED         =      YES
    E CONV         = 1.00e-10      MIXED4        =      YES
    R4S            =       NO      REPL OTF      =       NO
    DIAG METHOD    =      SEM      FOLLOW ROOT   =        0
    PRECONDITIONER = DAVIDSON      UPDATE        = DAVIDSON
    S              =   0.0000      Ms0           =      YES
    GUESS VECTOR   =  H0BLOCK      OPENTYPE      =     NONE
    COLLAPSE SIZE  =        1      HD AVG        = EVANGELISTI
    MAX NUM VECS   =       13      REF SYM       =     AUTO
    IOPEN        =       NO

    EX ALLOW       =  1  1  1  1  1  1 
    STATE AVERAGE  =  0(1.00) 

   ==> CI Orbital and Space information <==

   ------------------------------------------------------------------------------
               Space    Total    Ag   B1g   B2g   B3g    Au   B1u   B2u   B3u
   ------------------------------------------------------------------------------
                 Nso       28     7     1     3     3     1     7     3     3
                 Nmo       28     7     1     3     3     1     7     3     3
               Ndocc        7     3     0     0     0     0     2     1     1
               Nsocc        0     0     0     0     0     0     0     0     0
   ------------------------------------------------------------------------------
                                    MCSCF Spaces
   ------------------------------------------------------------------------------
         Frozen DOCC        0     0     0     0     0     0     0     0     0
     Restricted DOCC        4     2     0     0     0     0     2     0     0
              Active        6     1     0     1     1     0     1     1     1
     Restricted UOCC       18     4     1     2     2     1     4     2     2
         Frozen UOCC        0     0     0     0     0     0     0     0     0
   ------------------------------------------------------------------------------

   ==> Setting up CI strings <==

    There are 20 alpha and 20 beta strings
    The CI space requires 56 (5.60E+01) determinants and 8 blocks

   ==> Setting up MCSCF integrals <==

  ==> DiskJK: Disk-Based J/K Matrices <==

    J tasked:                  Yes
    K tasked:                  Yes
    wK tasked:                  No
    Memory [MiB]:              400
    Schwarz Cutoff:          1E-12


   ==> Starting MCSCF iterations <==

        Iter         Total Energy       Delta E   Orb RMS    CI RMS  NCI NORB
   @MCSCF  1:   -108.734763811690   -1.0696e+00  7.16e-02  1.79e-11    1    1  Initial CI
   @MCSCF  2:   -108.774265482097   -3.9502e-02  2.45e-02  1.32e-10    1    1  TS
   @MCSCF  3:   -108.776573225442   -2.3077e-03  6.74e-03  4.00e-10    1    1  TS
   @MCSCF  4:   -108.776802166582   -2.2894e-04  2.22e-03  1.33e-10    1    1  TS
   @MCSCF  5:   -108.776825758994   -2.3592e-05  7.08e-04  1.84e-10    1    1  TS
   @MCSCF  6:   -108.776828193772   -2.4348e-06  2.28e-04  7.25e-11    1    1  TS
   @MCSCF  7:   -108.776828445093   -2.5132e-07  7.32e-05  1.23e-10    1    1  TS, DIIS
   @MCSCF  8:   -108.776828471035   -2.5943e-08  2.35e-05  5.53e-11    1    1  TS, DIIS
   @MCSCF  9:   -108.776828473746   -2.7105e-09  7.15e-06  1.04e-10    1    1  TS, DIIS
   @MCSCF 10:   -108.776828474014   -2.6859e-10  1.18e-06  4.80e-11    1    1  TS, DIIS
   @MCSCF 11:   -108.776828474022   -7.3754e-12  1.03e-07  9.13e-11    1    1  TS, DIIS
   @MCSCF 12:   -108.776828474022   -8.5265e-14  5.04e-09  4.26e-11    1    1  TS, DIIS

          @MCSCF has converged!

   @MCSCF Final Energy: -108.776828474021954

   Computing CI Semicanonical Orbitals

   ==> Starting CI iterations <==

    H0 Block Eigenvalue = -108.77682847

    Simultaneous Expansion Method (Block Davidson Method)
    Using 1 initial trial vectors

     Iter   Root       Total Energy       Delta E      C RMS

   @CI  0:     0   -108.776828474021   -7.0143E+00   6.9091E-13  
    Warning: Norm of correction (root 0) is < 1.0E-13
   @CI  1:     0   -108.776828474021   0.0000E+00   5.4962E-12 c

   ==> Energetics <==

    SCF energy =         -107.665153421565705
    Total MCSCF energy = -108.776828474021954

   ==> MCSCF root 0 information <==

    MCSCF Root 0 energy =  -108.776828474021499

   Active Space Natural occupation numbers:

       B2g   1.000000       B2u   1.000000        Ag   1.000000
       B1u   1.000000       B3g   1.000000       B3u   1.000000

   The 20 most important determinants:

    *   1   -0.234130  (   14,   15)  3AgX 1B2gB 1B3gA 1B2uA 1B3uB 
    *   2   -0.234130  (   15,   14)  3AgX 1B2gA 1B3gB 1B2uB 1B3uA 
    *   3   -0.234130  (    8,    9)  3AgA 1B2gB 3B1uA 1B2uX 1B3uB 
    *   4   -0.234130  (    9,    8)  3AgB 1B2gA 3B1uB 1B2uX 1B3uA 
    *   5    0.234130  (   18,   19)  3AgA 1B2gX 1B3gB 3B1uA 1B2uB 
    *   6    0.234130  (   19,   18)  3AgB 1B2gX 1B3gA 3B1uB 1B2uA 
    *   7    0.234130  (    6,    7)  3AgA 1B3gB 3B1uA 1B2uB 1B3uX 
    *   8    0.234130  (    7,    6)  3AgB 1B3gA 3B1uB 1B2uA 1B3uX 
    *   9    0.234130  (    0,    1)  1B2gB 1B3gA 3B1uX 1B2uA 1B3uB 
    *  10    0.234130  (    1,    0)  1B2gA 1B3gB 3B1uX 1B2uB 1B3uA 
    *  11   -0.234130  (   16,   17)  3AgA 1B2gB 1B3gX 3B1uA 1B3uB 
    *  12   -0.234130  (   17,   16)  3AgB 1B2gA 1B3gX 3B1uB 1B3uA 
    *  13    0.195983  (   11,   11)  3AgX 1B2gX 1B2uX 
    *  14    0.195983  (   12,   12)  3AgX 1B3gX 1B3uX 
    *  15   -0.195983  (    3,    3)  1B2gX 3B1uX 1B2uX 
    *  16    0.195983  (   10,   10)  1B2gX 1B3gX 3B1uX 
    *  17    0.195983  (   13,   13)  3B1uX 1B2uX 1B3uX 
    *  18   -0.195983  (    2,    2)  3AgX 1B2gX 1B3gX 
    *  19   -0.195983  (    5,    5)  3AgX 1B2uX 1B3uX 
    *  20   -0.195983  (    4,    4)  1B3gX 3B1uX 1B3uX 



Properties will be evaluated at   0.000000,   0.000000,   0.000000 [a0]

Properties computed using the CASSCF density matrix

  Nuclear Dipole Moment: [e a0]
     X:     0.0000      Y:     0.0000      Z:     0.0000

  Electronic Dipole Moment: [e a0]
     X:     0.0000      Y:     0.0000      Z:     0.0000

  Dipole Moment: [e a0]
     X:     0.0000      Y:     0.0000      Z:     0.0000     Total:     0.0000

  Dipole Moment: [D]
     X:     0.0000      Y:     0.0000      Z:     0.0000     Total:     0.0000

    CASSCF energy of N2...................................................................PASSED

Scratch directory: /Users/york/scratch/psi4/

  Forte
  ----------------------------------------------------------------------------
  A suite of quantum chemistry methods for strongly correlated electrons

    git branch: opt_sf_rdms - git commit: b9259cd2

  Developed by:
    Francesco A. Evangelista, Chenyang Li, Kevin P. Hannon,
    Jeffrey B. Schriber, Tianyuan Zhang, Chenxi Cai,
    Nan He, Nicholas Stair, Shuhe Wang, Renke Huang
  ----------------------------------------------------------------------------

  Size of Determinant class: 128 bits

  Preparing forte objects from a Psi4 Wavefunction object
  Read options for space FROZEN_DOCC
  Read options for space RESTRICTED_DOCC
  Read options for space FROZEN_UOCC
  Read options for space ACTIVE
  Read options for space FROZEN_DOCC
  Read options for space FROZEN_UOCC
  Read options for space RESTRICTED_DOCC

  ==> MO Space Information <==

  -------------------------------------------------------------------------
                       Ag   B1g   B2g   B3g    Au   B1u   B2u   B3u   Sum
  -------------------------------------------------------------------------
    FROZEN_DOCC         1     0     0     0     0     1     0     0     2
    RESTRICTED_DOCC     1     0     0     0     0     1     0     0     2
    GAS1                1     0     1     1     0     1     1     1     6
    GAS2                0     0     0     0     0     0     0     0     0
    GAS3                0     0     0     0     0     0     0     0     0
    GAS4                0     0     0     0     0     0     0     0     0
    GAS5                0     0     0     0     0     0     0     0     0
    GAS6                0     0     0     0     0     0     0     0     0
    RESTRICTED_UOCC     4     1     2     2     1     4     2     2    18
    FROZEN_UOCC         0     0     0     0     0     0     0     0     0
    Total               7     1     3     3     1     7     3     3    28
  -------------------------------------------------------------------------   => Loading Basis Set <=

    Name: CC-PVDZ
    Role: ORBITAL
    Keyword: BASIS
    atoms 1-2 entry N          line   168 file /Users/york/src/psi4new/psi4/share/psi4/basis/cc-pvdz.gbs 


  Checking orbital orthonormality against current geometry ... Done (OK)

   => Loading Basis Set <=

    Name: STO-3G
    Role: ORBITAL
    Keyword: MINAO_BASIS
    atoms 1-2 entry N          line    71 file /Users/york/src/psi4new/psi4/share/psi4/basis/sto-3g.gbs 


  Forte will use psi4 integrals

  ==> Primary Basis Set Summary <==

  Basis Set: CC-PVDZ
    Blend: CC-PVDZ
    Number of shells: 12
    Number of basis functions: 28
    Number of Cartesian functions: 30
    Spherical Harmonics?: true
    Max angular momentum: 2


  JK created using conventional PK integrals
  Using in-core PK algorithm.
   Calculation information:
      Number of atoms:                   2
      Number of AO shells:              12
      Number of primitives:             44
      Number of atomic orbitals:        30
      Number of basis functions:        28

      Integral cutoff                 1.00e-12
      Number of threads:                 1

  Performing in-core PK
  Using 165242 doubles for integral storage.
  We computed 903 shell quartets total.
  Whereas there are 3081 unique shell quartets.

  ==> DiskJK: Disk-Based J/K Matrices <==

    J tasked:                  Yes
    K tasked:                  Yes
    wK tasked:                  No
    Memory [MiB]:              400
    Schwarz Cutoff:          1E-12

    OpenMP threads:              1



  ==> Integral Transformation <==

  Number of molecular orbitals:                         28
  Number of correlated molecular orbitals:              26
  Number of frozen occupied orbitals:                    2
  Number of frozen unoccupied orbitals:                  0
  Two-electron integral type:                 Conventional


  Computing Conventional Integrals	Presorting SO-basis two-electron integrals.
	Sorting File: SO Ints (nn|nn) nbuckets = 1
	Constructing frozen core operators
	Starting first half-transformation.
	Sorting half-transformed integrals.
	First half integral transformation complete.
	Starting second half-transformation.
	Two-electron integral transformation complete.

  Integral transformation done. 0.02149300 s
  Reading the two-electron integrals from disk
  Size of two-electron integrals:   0.013739 GB
  Timing for conventional integral transformation:            0.159 s.
  Frozen-core energy         -89.592112541622555 a.u.
  Timing for frozen one-body operator:                        0.001 s.
  Resorting integrals after freezing core.
  Timing for freezing core and virtual orbitals:              0.041 s.
  Timing for computing conventional integrals:                0.200 s.

  ==> Summary of Active Space Solver Input <==

    Irrep.  Multi.(2ms)      N
    --------------------------
       Ag      1  (  0)      1
    --------------------------
    N: number of roots
    ms: spin z component
    Total number of roots:   1
    --------------------------


              ---------------------------------------------------
                Complete Active Space Configuration Interaction
                                  Chenyang Li
              ---------------------------------------------------


  ==> Input Summary <==

    No. a electrons in active      =     3
    No. b electrons in active      =     3
    multiplicity                   =     1
    spin ms (2 * Sz)               =     0

  ==> Orbital Spaces <==

    TOTAL MO                      [    7     1     3     3     1     7     3     3 ]
    FROZEN CORE                   [    1     0     0     0     0     1     0     0 ]
    FROZEN VIRTUAL                [    0     0     0     0     0     0     0     0 ]
    CORRELATED MO                 [    6     1     3     3     1     6     3     3 ]
    CORE                          [    1     0     0     0     0     1     0     0 ]
    ACTIVE                        [    1     0     1     1     0     1     1     1 ]
    VIRTUAL                       [    4     1     2     2     1     4     2     2 ]
  Forming alpha and beta strings      ...  Done. Timing        0.000138 s
  Forming determinants                ...  Done. Timing        0.000074 s

  ==> Determinants Summary <==

    number of alpha active electrons         =     3
    number of beta active electrons          =     3
    root symmetry (zero based)               =     0
    number of determinants                   =    56

  Diagonalizing Hamiltonian           ...

  ==> Computing 1 Coupling Lists <==

        α          2.960e-04 seconds
        β          2.800e-04 seconds

  ==> Computing 2 Coupling Lists <==

        αα         3.460e-04 seconds
        ββ         3.280e-04 seconds
        αβ         8.310e-04 seconds

  Davidson-Liu solver algorithm using SigmaVectorSparseList sigma algorithm

  Performing diagonalization of the H matrix
  Found 32 roots with 2S+1 = 1 *
  Found 18 roots with 2S+1 = 3
  Found 6 roots with 2S+1 = 5  Done. Timing        0.007555 s

  * * * * * * * * * * * * * * * * *
  *  CI Vectors & Configurations  *
  * * * * * * * * * * * * * * * * *

  ==> Root No. 0 <==

    0 2 0 2 2 0          0.2500000000
    0 0 0 2 2 2         -0.2500000000
    0 0 2 2 0 2          0.2500000000
    2 0 2 0 0 2         -0.2500000000
    0 2 2 2 0 0         -0.2500000000
    2 2 0 0 2 0         -0.2500000000
    2 2 2 0 0 0          0.2500000000
    2 0 0 0 2 2          0.2500000000
    0 a b 2 b a         -0.1666666667
    0 b a 2 a b         -0.1666666667
    2 a b 0 b a          0.1666666667
    2 b a 0 a b          0.1666666667
    a b 0 a 2 b          0.1666666667
    b a 0 b 2 a          0.1666666667
    b 0 a b a 2         -0.1666666667
    a 0 b a b 2         -0.1666666667
    a 2 b a b 0         -0.1666666667
    b 2 a b a 0         -0.1666666667
    a b 2 a 0 b          0.1666666667
    b a 2 b 0 a          0.1666666667
    0 a a 2 b b          0.0833333333
    0 b b 2 a a          0.0833333333
    0 a b 2 a b         -0.0833333333
    0 b a 2 b a         -0.0833333333
    2 b b 0 a a         -0.0833333333
    2 a a 0 b b         -0.0833333333
    a a 0 b 2 b          0.0833333333
    b b 0 a 2 a          0.0833333333
    a b 0 b 2 a          0.0833333333
    b a 0 a 2 b          0.0833333333
    2 a b 0 a b          0.0833333333
    2 b a 0 b a          0.0833333333
    a 0 b b a 2         -0.0833333333
    b 0 a a b 2         -0.0833333333
    a 2 b b a 0         -0.0833333333
    b 2 a a b 0         -0.0833333333
    a b 2 b 0 a          0.0833333333
    b a 2 a 0 b          0.0833333333
    a a 2 b 0 b          0.0833333333
    b b 2 a 0 a          0.0833333333
    a 2 a b b 0         -0.0833333333
    b 2 b a a 0         -0.0833333333
    b 0 b a a 2         -0.0833333333
    a 0 a b b 2         -0.0833333333

    Total Energy:   -108.776828474020789



  ==> Permanent Dipole Moments (Ag) <==

  Only print nonzero (> 1.0e-5) elements.


  ==> Energy Summary <==

    Multi.(2ms)  Irrep.  No.               Energy      <S^2>
    --------------------------------------------------------
       1  (  0)    Ag     0     -108.776828474021   0.000000
    --------------------------------------------------------
 Computing  1RDMs (0 Singlet Ag - 0 Singlet Ag) ... Done. Timing        0.000638 s
 Computing  2RDMs (0 Singlet Ag - 0 Singlet Ag) ... Done. Timing        0.001597 s
 Computing  3RDMs (0 Singlet Ag - 0 Singlet Ag) ... Done. Timing        0.003897 s

  ==> Semicanonicalize Orbitals <==

    MIX INACTIVE ORBITALS   ...... FALSE
    MIX GAS ACTIVE ORBITALS ...... FALSE
    FROZEN_DOCC     ...  CANONICAL
    FROZEN_UOCC     ...  CANONICAL
    GAS1            ...  CANONICAL
    RESTRICTED_DOCC ...  CANONICAL
    RESTRICTED_UOCC ...  CANONICAL

    Off-Diag. Elements       Max           2-Norm
    ------------------------------------------------
    FROZEN_DOCC          0.0000000000   0.0000000000
    GAS1                 0.0000000000   0.0000000000
    RESTRICTED_DOCC      0.0000000000   0.0000000000
    RESTRICTED_UOCC      0.0000000000   0.0000000000
    ------------------------------------------------
  Orbitals are already semicanonicalized.
  Timing for orbital canonicalization:                        0.006 s.

  ==> Multireference Driven Similarity Renormalization Group <==

    Computing Fock matrix and cleaning JK ........... Done
    Reading DSRG options ............................ Done
    Setting ambit MO space .......................... Done
    Preparing tensors for density cumulants ......... Done
    Filling Fock matrix from ForteIntegrals ......... Done

              ----------------------------------------------------
                    MR-DSRG Second-Order Perturbation Theory
                Chenyang Li, Kevin Hannon, Francesco Evangelista
              ----------------------------------------------------

    References:
      u-DSRG-MRPT2:    J. Chem. Theory Comput. 2015, 11, 2097.
      (pr-)DSRG-MRPT2: J. Chem. Phys. 2017, 146, 124132.

  ==> Calculation Information <==

    int_type                                    CONVENTIONAL
    source operator                                 STANDARD
    reference relaxation                                ONCE
    state_type                                STATE-SPECIFIC
    form Hbar3                                         FALSE
    flow parameter                                 5.000e-01
    taylor expansion threshold                     1.000e-03
    intruder_tamp                                  1.000e-01
    ntamp                                                 15


  ==> Checking Semicanonical Orbitals <==

    Block             Fa Max         Fa Mean           Fb Max         Fb Mean
    -------------------------------------------------------------------------
    CORE        0.0000000000    0.0000000000     0.0000000000    0.0000000000
    VIRTUAL     0.0000000000    0.0000000000     0.0000000000    0.0000000000
    GAS1        0.0000000000    0.0000000000     0.0000000000    0.0000000000
    -------------------------------------------------------------------------
    Orbitals are semi-canonicalized.

  ==> Computing DSRG-MRPT2 ... <==

    Computing T2 amplitudes                  ...  Done. Timing        0.026407 s
    Computing T1 amplitudes                  ...  Done. Timing        0.005060 s
    Renormalizing two-electron integrals     ...  Done. Timing        0.028380 s
    Renormalizing Fock matrix elements       ...  Done. Timing        0.005314 s
    Computing <[F, T1]>                      ...  Done. Timing        0.001819 s
    Computing <[F, T2]>                      ...  Done. Timing        0.005242 s
    Computing <[V, T1]>                      ...  Done. Timing        0.005586 s
    Computing <[V, T2]> (C_2)^4              ...  Done. Timing        0.029887 s
    Computing <[V, T2]> C_4 (C_2)^2 HH       ...  Done. Timing        0.007636 s
    Computing <[V, T2]> C_4 (C_2)^2 PP       ...  Done. Timing        0.007556 s
    Computing <[V, T2]> C_4 (C_2)^2 PH       ...  Done. Timing        0.030791 s
    Computing <[V, T2]> C_6 C_2              ...  Done. Timing        0.094650 s

  ==> Excitation Amplitudes Summary <==

    Active Indices:    1    7   10   15   20   23 
    Largest T1 amplitudes for spin case A:
       i       a                  i       a                  i       a               
    --------------------------------------------------------------------------------
    [  1       2    ]-0.042860 [ 15      16    ]-0.042860 [  7       8    ] 0.042860 
    [ 10      11    ] 0.042860 [ 23      24    ] 0.042860 [ 20      21    ] 0.042860 
    [  0       3    ] 0.000000 [ 14      17    ] 0.000000 [ 14      15    ] 0.000000 
    [  0       1    ] 0.000000 [  1       5    ]-0.000000 [ 15      19    ] 0.000000 
    [ 20      22    ] 0.000000 [ 23      25    ] 0.000000 [  7       9    ] 0.000000 
    --------------------------------------------------------------------------------
    Norm of T1A vector: (nonzero elements: 22)                    0.104984917678053.
    --------------------------------------------------------------------------------
    Largest T1 amplitudes for spin case B:
       _       _                  _       _                  _       _               
       i       a                  i       a                  i       a               
    --------------------------------------------------------------------------------
    [  1       2    ]-0.042860 [ 15      16    ]-0.042860 [  7       8    ] 0.042860 
    [ 10      11    ] 0.042860 [ 23      24    ] 0.042860 [ 20      21    ] 0.042860 
    [  0       3    ] 0.000000 [ 14      17    ] 0.000000 [ 14      15    ] 0.000000 
    [  0       1    ] 0.000000 [  1       5    ]-0.000000 [ 15      19    ] 0.000000 
    [ 20      22    ] 0.000000 [ 23      25    ] 0.000000 [  7       9    ] 0.000000 
    --------------------------------------------------------------------------------
    Norm of T1B vector: (nonzero elements: 22)                    0.104984917678053.
    --------------------------------------------------------------------------------
    Largest T2 amplitudes for spin case AA:
       i   j   a   b              i   j   a   b              i   j   a   b           
    --------------------------------------------------------------------------------
    [  1  10  16  20]-0.031970 [  1   7  16  23]-0.031970 [ 15  20   2  10]-0.031970 
    [ 15  23   2   7]-0.031970 [  1  20  10  16] 0.031970 [  1  23   7  16] 0.031970 
    [  7  15   2  23] 0.031970 [ 10  15   2  20] 0.031970 [  1  20   1  21] 0.031970 
    [  1  23   1  24] 0.031970 [  7  15   8  15] 0.031970 [ 10  15  11  15] 0.031970 
    [  1   7   1   8] 0.031970 [  1  10   1  11] 0.031970 [ 15  20  15  21] 0.031970 
    --------------------------------------------------------------------------------
    Norm of T2AA vector: (nonzero elements: 3688)                 0.590420519549448.
    --------------------------------------------------------------------------------
    Largest T2 amplitudes for spin case AB:
           _       _                  _       _                  _       _           
       i   j   a   b              i   j   a   b              i   j   a   b           
    --------------------------------------------------------------------------------
    [  1   1  15  16]-0.038504 [ 15  15   1   2]-0.038504 [ 10  20  10  21] 0.038504 
    [  7  23   7  24] 0.038504 [ 10  10  10  11] 0.038504 [  7   7   7   8] 0.038504 
    [ 20  20  20  21] 0.038504 [ 23  23  23  24] 0.038504 [  7  23   8  23] 0.038504 
    [ 10  20  11  20] 0.038504 [ 10  10  20  21] 0.038504 [  7   7  23  24] 0.038504 
    [ 23  23   7   8] 0.038504 [ 20  20  10  11] 0.038504 [  1  15   1  16]-0.038504 
    --------------------------------------------------------------------------------
    Norm of T2AB vector: (nonzero elements: 4556)                 0.628365880470576.
    --------------------------------------------------------------------------------
    Largest T2 amplitudes for spin case BB:
       _   _   _   _              _   _   _   _              _   _   _   _           
       i   j   a   b              i   j   a   b              i   j   a   b           
    --------------------------------------------------------------------------------
    [  1  10  16  20]-0.031970 [  1   7  16  23]-0.031970 [ 15  20   2  10]-0.031970 
    [ 15  23   2   7]-0.031970 [  1  20  10  16] 0.031970 [  1  23   7  16] 0.031970 
    [  7  15   2  23] 0.031970 [ 10  15   2  20] 0.031970 [  1  20   1  21] 0.031970 
    [  1  23   1  24] 0.031970 [  7  15   8  15] 0.031970 [ 10  15  11  15] 0.031970 
    [  1   7   1   8] 0.031970 [  1  10   1  11] 0.031970 [ 15  20  15  21] 0.031970 
    --------------------------------------------------------------------------------
    Norm of T2BB vector: (nonzero elements: 3688)                 0.590420519549448.
    --------------------------------------------------------------------------------

  ==> Possible Intruders <==

    T1 amplitudes larger than 0.1000 for spin case A: NULL
    T1 amplitudes larger than 0.1000 for spin case B: NULL
    T2 amplitudes larger than 0.1000 for spin case AA: NULL
    T2 amplitudes larger than 0.1000 for spin case AB: NULL
    T2 amplitudes larger than 0.1000 for spin case BB: NULL

  ==> DSRG-MRPT2 Energy Summary <==

    E0 (reference)                 =   -108.776828474020789
    <[F, T1]>                      =     -0.040181839559787
    <[F, T2]>                      =      0.040181840875463
    <[V, T1]>                      =      0.040181840875463
    <[V, T2]> (C_2)^4              =     -0.373640119723514
    <[V, T2]> C_4 (C_2)^2 HH       =      0.016770643412926
    <[V, T2]> C_4 (C_2)^2 PP       =      0.069060138804737
    <[V, T2]> C_4 (C_2)^2 PH       =      0.081068064889171
    <[V, T2]> C_6 C_2              =      0.000000000000000
    <[V, T2]>                      =     -0.206741272616681
    DSRG-MRPT2 correlation energy  =     -0.166559430425543
    DSRG-MRPT2 total energy        =   -108.943387904446325
    max(T1)                        =      0.042859913167766
    max(T2)                        =      0.038504054188088
    ||T1||                         =      0.148471094424925
    ||T2||                         =      1.508829844206540

  Energy took      0.284 s


  ==> De-Normal-Order DSRG Transformed Hamiltonian <==

    Computing the scalar term                ... Done. Timing    0.002 s
    Computing the 1-body term                ... Done. Timing    0.001 s

  ==> Rotate DSRG Transformed Hamiltonian back to Original Basis <==

    Rotating 1-body term to original basis   ... Done. Timing    0.001 s
    Rotating 2-body term to original basis   ... Done. Timing    0.015 s

              ---------------------------------------------------
                Complete Active Space Configuration Interaction
                                  Chenyang Li
              ---------------------------------------------------


  ==> Input Summary <==

    No. a electrons in active      =     3
    No. b electrons in active      =     3
    multiplicity                   =     1
    spin ms (2 * Sz)               =     0

  ==> Orbital Spaces <==

    TOTAL MO                      [    7     1     3     3     1     7     3     3 ]
    FROZEN CORE                   [    1     0     0     0     0     1     0     0 ]
    FROZEN VIRTUAL                [    0     0     0     0     0     0     0     0 ]
    CORRELATED MO                 [    6     1     3     3     1     6     3     3 ]
    CORE                          [    1     0     0     0     0     1     0     0 ]
    ACTIVE                        [    1     0     1     1     0     1     1     1 ]
    VIRTUAL                       [    4     1     2     2     1     4     2     2 ]
  Forming alpha and beta strings      ...  Done. Timing        0.000101 s
  Forming determinants                ...  Done. Timing        0.000055 s

  ==> Determinants Summary <==

    number of alpha active electrons         =     3
    number of beta active electrons          =     3
    root symmetry (zero based)               =     0
    number of determinants                   =    56

  Diagonalizing Hamiltonian           ...

  ==> Computing 1 Coupling Lists <==

        α          2.340e-04 seconds
        β          2.310e-04 seconds

  ==> Computing 2 Coupling Lists <==

        αα         2.860e-04 seconds
        ββ         2.680e-04 seconds
        αβ         6.870e-04 seconds

  Davidson-Liu solver algorithm using SigmaVectorSparseList sigma algorithm

  Performing diagonalization of the H matrix
  Found 32 roots with 2S+1 = 1 *
  Found 18 roots with 2S+1 = 3
  Found 6 roots with 2S+1 = 5  Done. Timing        0.006001 s

  * * * * * * * * * * * * * * * * *
  *  CI Vectors & Configurations  *
  * * * * * * * * * * * * * * * * *

  ==> Root No. 0 <==

    2 2 0 0 2 0         -0.2500000000
    2 2 2 0 0 0          0.2500000000
    2 0 0 0 2 2          0.2500000000
    0 2 0 2 2 0          0.2500000000
    2 0 2 0 0 2         -0.2500000000
    0 2 2 2 0 0         -0.2500000000
    0 0 2 2 0 2          0.2500000000
    0 0 0 2 2 2         -0.2500000000
    2 a b 0 b a          0.1666666667
    2 b a 0 a b          0.1666666667
    a b 0 a 2 b          0.1666666667
    b a 0 b 2 a          0.1666666667
    a b 2 a 0 b          0.1666666667
    b a 2 b 0 a          0.1666666667
    0 a b 2 b a         -0.1666666667
    0 b a 2 a b         -0.1666666667
    a 2 b a b 0         -0.1666666667
    b 2 a b a 0         -0.1666666667
    b 0 a b a 2         -0.1666666667
    a 0 b a b 2         -0.1666666667
    2 a a 0 b b         -0.0833333333
    2 b b 0 a a         -0.0833333333
    2 a b 0 a b          0.0833333333
    2 b a 0 b a          0.0833333333
    a b 0 b 2 a          0.0833333333
    b a 0 a 2 b          0.0833333333
    a a 0 b 2 b          0.0833333333
    b b 0 a 2 a          0.0833333333
    b a 2 a 0 b          0.0833333333
    a b 2 b 0 a          0.0833333333
    0 a a 2 b b          0.0833333333
    0 b b 2 a a          0.0833333333
    b b 2 a 0 a          0.0833333333
    a a 2 b 0 b          0.0833333333
    0 b a 2 b a         -0.0833333333
    0 a b 2 a b         -0.0833333333
    b 2 a a b 0         -0.0833333333
    a 2 b b a 0         -0.0833333333
    a 2 a b b 0         -0.0833333333
    b 2 b a a 0         -0.0833333333
    b 0 a a b 2         -0.0833333333
    a 0 b b a 2         -0.0833333333
    b 0 b a a 2         -0.0833333333
    a 0 a b b 2         -0.0833333333

    Total Energy:   -108.943387904446396



  ==> Permanent Dipole Moments (Ag) <==

  Only print nonzero (> 1.0e-5) elements.


  ==> Energy Summary <==

    Multi.(2ms)  Irrep.  No.               Energy      <S^2>
    --------------------------------------------------------
       1  (  0)    Ag     0     -108.943387904446   0.000000
    --------------------------------------------------------

  => DSRG-MRPT2 Reference Relaxation Energy Summary <=

                         Fixed Ref. (a.u.)              Relaxed Ref. (a.u.)
           -------------------------------  -------------------------------
    Iter.          Total Energy      Delta          Total Energy      Delta
    -----------------------------------------------------------------------
        1     -108.943387904446 -1.089e+02     -108.943387904446 -1.089e+02
    -----------------------------------------------------------------------

  ==> Total Timings (s) for Computing Commutators <==

             [H1, T1]    [H1, T2]    [H2, T1]    [H2, T2]
    -----------------------------------------------------
    -> C0       0.002       0.005       0.006       0.171
    -> C1       0.001       0.013       0.009       0.182
    -> C2                   0.009       0.008       0.081
    -----------------------------------------------------


  Time to prepare integrals:        0.315 seconds
  Time to run job          :        0.690 seconds
  Total                    :        1.005 seconds
    DSRG-MRPT2 relaxed energy of N2.......................................................PASSED

Scratch directory: /Users/york/scratch/psi4/

*** tstart() called on Yorks-Mac.local
*** at Mon Feb 21 10:44:17 2022

   => Loading Basis Set <=

    Name: CC-PVDZ
    Role: ORBITAL
    Keyword: BASIS
    atoms 1 entry N          line   168 file /Users/york/src/psi4new/psi4/share/psi4/basis/cc-pvdz.gbs 


         ---------------------------------------------------------
                                   SCF
               by Justin Turney, Rob Parrish, Andy Simmonett
                          and Daniel G. A. Smith
                             ROHF Reference
                        1 Threads,    500 MiB Core
         ---------------------------------------------------------

  ==> Geometry <==

    Molecular point group: d2h
    Geometry (in Angstrom), charge = 0, multiplicity = 4:

       Center              X                  Y                   Z               Mass       
    ------------   -----------------  -----------------  -----------------  -----------------
         N            0.000000000000     0.000000000000     0.000000000000    14.003074004430

  Running in d2h symmetry.

  Rotational constants: A = ************  B = ************  C = ************ [cm^-1]
  Rotational constants: A = ************  B = ************  C = ************ [MHz]
  Nuclear repulsion =    0.000000000000000

  Charge       = 0
  Multiplicity = 4
  Electrons    = 7
  Nalpha       = 5
  Nbeta        = 2

  ==> Algorithm <==

  SCF Algorithm Type is OUT_OF_CORE.
  DIIS enabled.
  MOM disabled.
  Fractional occupation disabled.
  Guess Type is CORE.
  Energy threshold   = 1.00e-10
  Density threshold  = 1.00e-08
  Integral threshold = 1.00e-12

  ==> Primary Basis <==

  Basis Set: CC-PVDZ
    Blend: CC-PVDZ
    Number of shells: 6
    Number of basis functions: 14
    Number of Cartesian functions: 15
    Spherical Harmonics?: true
    Max angular momentum: 2

  ==> Integral Setup <==

  ==> DiskJK: Disk-Based J/K Matrices <==

    J tasked:                  Yes
    K tasked:                  Yes
    wK tasked:                  No
    Memory [MiB]:              375
    Schwarz Cutoff:          1E-12

  Minimum eigenvalue in the overlap matrix is 1.8560178110E-01.
  Reciprocal condition number of the overlap matrix is 1.0840187179E-01.
    Using symmetric orthogonalization.

  ==> Pre-Iterations <==

  SCF Guess: Core (One-Electron) Hamiltonian.

   -------------------------------------------------------
    Irrep   Nso     Nmo     Nalpha   Nbeta   Ndocc  Nsocc
   -------------------------------------------------------
     Ag         5       5       2       2       2       0
     B1g        1       1       0       0       0       0
     B2g        1       1       0       0       0       0
     B3g        1       1       0       0       0       0
     Au         0       0       0       0       0       0
     B1u        2       2       1       0       0       1
     B2u        2       2       1       0       0       1
     B3u        2       2       1       0       0       1
   -------------------------------------------------------
    Total      14      14       5       2       2       3
   -------------------------------------------------------

  ==> Iterations <==

                        Total Energy        Delta E     RMS |[F,P]|

   @ROHF iter   1:   -52.73082024368684   -5.27308e+01   1.69734e-01 DIIS
   @ROHF iter   2:   -54.04407358554170   -1.31325e+00   1.06809e-01 DIIS
   @ROHF iter   3:   -54.37338916953001   -3.29316e-01   2.03992e-02 DIIS
   @ROHF iter   4:   -54.38798196060267   -1.45928e-02   2.92434e-03 DIIS
   @ROHF iter   5:   -54.38841188872750   -4.29928e-04   2.89093e-04 DIIS
   @ROHF iter   6:   -54.38841423667974   -2.34795e-06   3.36591e-06 DIIS
   @ROHF iter   7:   -54.38841423700985   -3.30111e-10   1.36709e-07 DIIS
   @ROHF iter   8:   -54.38841423701032   -4.76064e-13   9.07388e-12 DIIS
  Energy and wave function converged.


  ==> Post-Iterations <==

    Orbital Energies [Eh]
    ---------------------

    Doubly Occupied:                                                      

       1Ag   -15.627695     2Ag    -0.942272  

    Singly Occupied:                                                      

       1B1u   -0.173911     1B2u   -0.173911     1B3u   -0.173911  

    Virtual:                                                              

       2B1u    0.960938     2B2u    0.960938     2B3u    0.960938  
       3Ag     1.047611     1B1g    2.053159     1B2g    2.053159  
       1B3g    2.053159     4Ag     2.053159     5Ag     2.053159  

    Final Occupation by Irrep:
             Ag   B1g   B2g   B3g    Au   B1u   B2u   B3u 
    DOCC [     2,    0,    0,    0,    0,    0,    0,    0 ]
    SOCC [     0,    0,    0,    0,    0,    1,    1,    1 ]

  @ROHF Final Energy:   -54.38841423701032

   => Energetics <=

    Nuclear Repulsion Energy =              0.0000000000000000
    One-Electron Energy =                 -73.9497847585587351
    Two-Electron Energy =                  19.5613705215484082
    Total Energy =                        -54.3884142370103234

Computation Completed


Properties will be evaluated at   0.000000,   0.000000,   0.000000 [a0]

Properties computed using the SCF density matrix

  Nuclear Dipole Moment: [e a0]
     X:     0.0000      Y:     0.0000      Z:     0.0000

  Electronic Dipole Moment: [e a0]
     X:     0.0000      Y:     0.0000      Z:     0.0000

  Dipole Moment: [e a0]
     X:     0.0000      Y:     0.0000      Z:     0.0000     Total:     0.0000

  Dipole Moment: [D]
     X:     0.0000      Y:     0.0000      Z:     0.0000     Total:     0.0000


*** tstop() called on Yorks-Mac.local at Mon Feb 21 10:44:17 2022
Module time:
	user time   =       0.18 seconds =       0.00 minutes
	system time =       0.02 seconds =       0.00 minutes
	total time  =          0 seconds =       0.00 minutes
Total time:
	user time   =       2.07 seconds =       0.03 minutes
	system time =       0.26 seconds =       0.00 minutes
	total time  =          2 seconds =       0.03 minutes
    CASSCF energy of N atom...............................................................PASSED

Scratch directory: /Users/york/scratch/psi4/

  Forte
  ----------------------------------------------------------------------------
  A suite of quantum chemistry methods for strongly correlated electrons

    git branch: opt_sf_rdms - git commit: b9259cd2

  Developed by:
    Francesco A. Evangelista, Chenyang Li, Kevin P. Hannon,
    Jeffrey B. Schriber, Tianyuan Zhang, Chenxi Cai,
    Nan He, Nicholas Stair, Shuhe Wang, Renke Huang
  ----------------------------------------------------------------------------

  Size of Determinant class: 128 bits

  Preparing forte objects from a Psi4 Wavefunction object
  Read options for space FROZEN_DOCC
  Read options for space RESTRICTED_DOCC
  Read options for space FROZEN_UOCC
  Read options for space ACTIVE
  Read options for space FROZEN_DOCC
  Read options for space FROZEN_UOCC
  Read options for space RESTRICTED_DOCC

  ==> MO Space Information <==

  -------------------------------------------------------------------------
                       Ag   B1g   B2g   B3g    Au   B1u   B2u   B3u   Sum
  -------------------------------------------------------------------------
    FROZEN_DOCC         1     0     0     0     0     0     0     0     1
    RESTRICTED_DOCC     1     0     0     0     0     0     0     0     1
    GAS1                0     0     0     0     0     1     1     1     3
    GAS2                0     0     0     0     0     0     0     0     0
    GAS3                0     0     0     0     0     0     0     0     0
    GAS4                0     0     0     0     0     0     0     0     0
    GAS5                0     0     0     0     0     0     0     0     0
    GAS6                0     0     0     0     0     0     0     0     0
    RESTRICTED_UOCC     3     1     1     1     0     1     1     1     9
    FROZEN_UOCC         0     0     0     0     0     0     0     0     0
    Total               5     1     1     1     0     2     2     2    14
  -------------------------------------------------------------------------   => Loading Basis Set <=

    Name: CC-PVDZ
    Role: ORBITAL
    Keyword: BASIS
    atoms 1 entry N          line   168 file /Users/york/src/psi4new/psi4/share/psi4/basis/cc-pvdz.gbs 


  Checking orbital orthonormality against current geometry ... Done (OK)

   => Loading Basis Set <=

    Name: STO-3G
    Role: ORBITAL
    Keyword: MINAO_BASIS
    atoms 1 entry N          line    71 file /Users/york/src/psi4new/psi4/share/psi4/basis/sto-3g.gbs 


  Forte will use psi4 integrals

  ==> Primary Basis Set Summary <==

  Basis Set: CC-PVDZ
    Blend: CC-PVDZ
    Number of shells: 6
    Number of basis functions: 14
    Number of Cartesian functions: 15
    Spherical Harmonics?: true
    Max angular momentum: 2


  JK created using conventional PK integrals
  Using in-core PK algorithm.
   Calculation information:
      Number of atoms:                   1
      Number of AO shells:               6
      Number of primitives:             22
      Number of atomic orbitals:        15
      Number of basis functions:        14

      Integral cutoff                 1.00e-12
      Number of threads:                 1

  Performing in-core PK
  Using 11130 doubles for integral storage.
  We computed 231 shell quartets total.
  Whereas there are 231 unique shell quartets.

  ==> DiskJK: Disk-Based J/K Matrices <==

    J tasked:                  Yes
    K tasked:                  Yes
    wK tasked:                  No
    Memory [MiB]:              400
    Schwarz Cutoff:          1E-12

    OpenMP threads:              1



  ==> Integral Transformation <==

  Number of molecular orbitals:                         14
  Number of correlated molecular orbitals:              13
  Number of frozen occupied orbitals:                    1
  Number of frozen unoccupied orbitals:                  0
  Two-electron integral type:                 Conventional


  Computing Conventional Integrals	Presorting SO-basis two-electron integrals.
	Sorting File: SO Ints (nn|nn) nbuckets = 1
	Constructing frozen core operators
	Starting first half-transformation.
	Sorting half-transformed integrals.
	First half integral transformation complete.
	Starting second half-transformation.
	Two-electron integral transformation complete.

  Integral transformation done. 0.00780200 s
  Reading the two-electron integrals from disk
  Size of two-electron integrals:   0.000859 GB
  Timing for conventional integral transformation:            0.042 s.
  Frozen-core energy         -44.732555005500693 a.u.
  Timing for frozen one-body operator:                        0.000 s.
  Resorting integrals after freezing core.
  Timing for freezing core and virtual orbitals:              0.002 s.
  Timing for computing conventional integrals:                0.044 s.

  ==> Summary of Active Space Solver Input <==

    Irrep.  Multi.(2ms)      N
    --------------------------
       Au      4  (  3)      1
    --------------------------
    N: number of roots
    ms: spin z component
    Total number of roots:   1
    --------------------------


              ---------------------------------------------------
                Complete Active Space Configuration Interaction
                                  Chenyang Li
              ---------------------------------------------------


  ==> Input Summary <==

    No. a electrons in active      =     3
    No. b electrons in active      =     0
    multiplicity                   =     4
    spin ms (2 * Sz)               =     3

  ==> Orbital Spaces <==

    TOTAL MO                      [    5     1     1     1     0     2     2     2 ]
    FROZEN CORE                   [    1     0     0     0     0     0     0     0 ]
    FROZEN VIRTUAL                [    0     0     0     0     0     0     0     0 ]
    CORRELATED MO                 [    4     1     1     1     0     2     2     2 ]
    CORE                          [    1     0     0     0     0     0     0     0 ]
    ACTIVE                        [    0     0     0     0     0     1     1     1 ]
    VIRTUAL                       [    3     1     1     1     0     1     1     1 ]
  Forming alpha and beta strings      ...  Done. Timing        0.000037 s
  Forming determinants                ...  Done. Timing        0.000009 s

  ==> Determinants Summary <==

    number of alpha active electrons         =     3
    number of beta active electrons          =     0
    root symmetry (zero based)               =     4
    number of determinants                   =     1

  Diagonalizing Hamiltonian           ...

  ==> Computing 1 Coupling Lists <==

        α          1.700e-05 seconds
        β          4.000e-06 seconds

  ==> Computing 2 Coupling Lists <==

        αα         2.000e-05 seconds
        ββ         3.000e-06 seconds
        αβ         4.000e-06 seconds

  Davidson-Liu solver algorithm using SigmaVectorSparseList sigma algorithm

  Performing diagonalization of the H matrix
  Found 1 roots with 2S+1 = 4 *  Done. Timing        0.000316 s

  * * * * * * * * * * * * * * * * *
  *  CI Vectors & Configurations  *
  * * * * * * * * * * * * * * * * *

  ==> Root No. 0 <==

    a a a          1.0000000000

    Total Energy:   -54.388414237010331



  ==> Permanent Dipole Moments (Au) <==

  Only print nonzero (> 1.0e-5) elements.


  ==> Energy Summary <==

    Multi.(2ms)  Irrep.  No.               Energy      <S^2>
    --------------------------------------------------------
       4  (  3)    Au     0      -54.388414237010   3.750000
    --------------------------------------------------------
 Computing  1RDMs (0 Quartet Au - 0 Quartet Au) ... Done. Timing        0.000068 s
 Computing  2RDMs (0 Quartet Au - 0 Quartet Au) ... Done. Timing        0.000062 s
 Computing  3RDMs (0 Quartet Au - 0 Quartet Au) ... Done. Timing        0.000073 s

  ==> Semicanonicalize Orbitals <==

    MIX INACTIVE ORBITALS   ...... FALSE
    MIX GAS ACTIVE ORBITALS ...... FALSE
    FROZEN_DOCC     ...  CANONICAL
    FROZEN_UOCC     ...  CANONICAL
    GAS1            ...  CANONICAL
    RESTRICTED_DOCC ...  CANONICAL
    RESTRICTED_UOCC ...  CANONICAL

    Off-Diag. Elements       Max           2-Norm
    ------------------------------------------------
    FROZEN_DOCC          0.0000000000   0.0000000000
    GAS1                 0.0000000000   0.0000000000
    RESTRICTED_DOCC      0.0000000000   0.0000000000
    RESTRICTED_UOCC      0.0000000000   0.0000000000
    ------------------------------------------------
  Orbitals are already semicanonicalized.
  Timing for orbital canonicalization:                        0.001 s.

  ==> Multireference Driven Similarity Renormalization Group <==

    Computing Fock matrix and cleaning JK ........... Done
    Reading DSRG options ............................ Done
    Setting ambit MO space .......................... Done
    Preparing tensors for density cumulants ......... Done
    Filling Fock matrix from ForteIntegrals ......... Done

              ----------------------------------------------------
                    MR-DSRG Second-Order Perturbation Theory
                Chenyang Li, Kevin Hannon, Francesco Evangelista
              ----------------------------------------------------

    References:
      u-DSRG-MRPT2:    J. Chem. Theory Comput. 2015, 11, 2097.
      (pr-)DSRG-MRPT2: J. Chem. Phys. 2017, 146, 124132.

  ==> Calculation Information <==

    int_type                                    CONVENTIONAL
    source operator                                 STANDARD
    reference relaxation                                ONCE
    state_type                                STATE-SPECIFIC
    form Hbar3                                         FALSE
    flow parameter                                 5.000e-01
    taylor expansion threshold                     1.000e-03
    intruder_tamp                                  1.000e-01
    ntamp                                                 15


  ==> Checking Semicanonical Orbitals <==

    Block             Fa Max         Fa Mean           Fb Max         Fb Mean
    -------------------------------------------------------------------------
    CORE        0.0000000000    0.0000000000     0.0000000000    0.0000000000
    VIRTUAL     0.0000000000    0.0000000000     0.0000000000    0.0000000000
    GAS1        0.0000000000    0.0000000000     0.0000000000    0.0000000000
    -------------------------------------------------------------------------
    Orbitals are semi-canonicalized.

  ==> Computing DSRG-MRPT2 ... <==

    Computing T2 amplitudes                  ...  Done. Timing        0.003506 s
    Computing T1 amplitudes                  ...  Done. Timing        0.003970 s
    Renormalizing two-electron integrals     ...  Done. Timing        0.002137 s
    Renormalizing Fock matrix elements       ...  Done. Timing        0.004084 s
    Computing <[F, T1]>                      ...  Done. Timing        0.001604 s
    Computing <[F, T2]>                      ...  Done. Timing        0.004070 s
    Computing <[V, T1]>                      ...  Done. Timing        0.004259 s
    Computing <[V, T2]> (C_2)^4              ...  Done. Timing        0.048003 s
    Computing <[V, T2]> C_4 (C_2)^2 HH       ...  Done. Timing        0.013239 s
    Computing <[V, T2]> C_4 (C_2)^2 PP       ...  Done. Timing        0.015114 s
    Computing <[V, T2]> C_4 (C_2)^2 PH       ...  Done. Timing        0.064382 s
    Computing <[V, T2]> C_6 C_2              ...  Done. Timing        0.042869 s

  ==> Excitation Amplitudes Summary <==

    Active Indices:    7    9   11 
    Largest T1 amplitudes for spin case A:
       i       a                  i       a                  i       a               
    --------------------------------------------------------------------------------
    [  9      10    ]-0.042860 [  7       8    ]-0.042860 [ 11      12    ]-0.042860 
    [  0       1    ]-0.000000 
    --------------------------------------------------------------------------------
    Norm of T1A vector: (nonzero elements: 4)                     0.074235549797077.
    --------------------------------------------------------------------------------
    Largest T1 amplitudes for spin case B:
       _       _                  _       _                  _       _               
       i       a                  i       a                  i       a               
    --------------------------------------------------------------------------------
    [  9      10    ]-0.042860 [  7       8    ]-0.042860 [ 11      12    ]-0.042860 
    [  0       1    ]-0.000000 
    --------------------------------------------------------------------------------
    Norm of T1B vector: (nonzero elements: 4)                     0.074235549797077.
    --------------------------------------------------------------------------------
    Largest T2 amplitudes for spin case AA:
       i   j   a   b              i   j   a   b              i   j   a   b           
    --------------------------------------------------------------------------------
    [  9  11   9  12]-0.063940 [  9  11  10  11]-0.063940 [  7   9   7  10]-0.063940 
    [  7  11   7  12]-0.063940 [  7   9   8   9]-0.063940 [  7  11   8  11]-0.063940 
    [  0   9   1   9]-0.051917 [  0  11   1  11]-0.051917 [  0   7   1   7]-0.051917 
    [  7   9   8  10]-0.036068 [  7  11   8  12]-0.036068 [  9  11  10  12]-0.036068 
    [  9  11   3   4] 0.025390 [  7  11   2   5]-0.021988 [  7   9   2   6]-0.021988 
    --------------------------------------------------------------------------------
    Norm of T2AA vector: (nonzero elements: 180)                  0.417490350213497.
    --------------------------------------------------------------------------------
    Largest T2 amplitudes for spin case AB:
           _       _                  _       _                  _       _           
       i   j   a   b              i   j   a   b              i   j   a   b           
    --------------------------------------------------------------------------------
    [  9   9   9  10]-0.077008 [ 11  11  11  12]-0.077008 [  7   7   7   8]-0.077008 
    [  9  11   9  12]-0.068296 [  9  11  10  11]-0.068296 [  7   9   7  10]-0.068296 
    [  7  11   7  12]-0.068296 [  7   9   8   9]-0.068296 [  7  11   8  11]-0.068296 
    [  0   9   1   9]-0.063842 [  0  11   1  11]-0.063842 [  0   7   1   7]-0.063842 
    [  0   0   9   9]-0.062107 [  0   0  11  11]-0.062107 [  0   0   7   7]-0.062107 
    --------------------------------------------------------------------------------
    Norm of T2AB vector: (nonzero elements: 273)                  0.444321774358353.
    --------------------------------------------------------------------------------
    Largest T2 amplitudes for spin case BB:
       _   _   _   _              _   _   _   _              _   _   _   _           
       i   j   a   b              i   j   a   b              i   j   a   b           
    --------------------------------------------------------------------------------
    [  9  11   9  12]-0.063940 [  9  11  10  11]-0.063940 [  7   9   7  10]-0.063940 
    [  7  11   7  12]-0.063940 [  7   9   8   9]-0.063940 [  7  11   8  11]-0.063940 
    [  0   9   1   9]-0.051917 [  0  11   1  11]-0.051917 [  0   7   1   7]-0.051917 
    [  7   9   8  10]-0.036068 [  7  11   8  12]-0.036068 [  9  11  10  12]-0.036068 
    [  9  11   3   4] 0.025390 [  7  11   2   5]-0.021988 [  7   9   2   6]-0.021988 
    --------------------------------------------------------------------------------
    Norm of T2BB vector: (nonzero elements: 180)                  0.417490350213497.
    --------------------------------------------------------------------------------

  ==> Possible Intruders <==

    T1 amplitudes larger than 0.1000 for spin case A: NULL
    T1 amplitudes larger than 0.1000 for spin case B: NULL
    T2 amplitudes larger than 0.1000 for spin case AA: NULL
    T2 amplitudes larger than 0.1000 for spin case AB: NULL
    T2 amplitudes larger than 0.1000 for spin case BB: NULL

  ==> DSRG-MRPT2 Energy Summary <==

    E0 (reference)                 =    -54.388414237010338
    <[F, T1]>                      =     -0.020090921201939
    <[F, T2]>                      =      0.020090921201852
    <[V, T1]>                      =      0.020090921201852
    <[V, T2]> (C_2)^4              =     -0.186820059157971
    <[V, T2]> C_4 (C_2)^2 HH       =      0.008385321713901
    <[V, T2]> C_4 (C_2)^2 PP       =      0.034530069518618
    <[V, T2]> C_4 (C_2)^2 PH       =      0.040534031430606
    <[V, T2]> C_6 C_2              =      0.000000000000000
    <[V, T2]>                      =     -0.103370636494846
    DSRG-MRPT2 correlation energy  =     -0.083279715293080
    DSRG-MRPT2 total energy        =    -54.471693952303418
    max(T1)                        =      0.042859914658782
    max(T2)                        =      0.077008047681596
    ||T1||                         =      0.104984921333250
    ||T2||                         =      1.066903810902649

  Energy took      0.214 s


  ==> De-Normal-Order DSRG Transformed Hamiltonian <==

    Computing the scalar term                ... Done. Timing    0.002 s
    Computing the 1-body term                ... Done. Timing    0.001 s

  ==> Rotate DSRG Transformed Hamiltonian back to Original Basis <==

    Rotating 1-body term to original basis   ... Done. Timing    0.001 s
    Rotating 2-body term to original basis   ... Done. Timing    0.019 s

              ---------------------------------------------------
                Complete Active Space Configuration Interaction
                                  Chenyang Li
              ---------------------------------------------------


  ==> Input Summary <==

    No. a electrons in active      =     3
    No. b electrons in active      =     0
    multiplicity                   =     4
    spin ms (2 * Sz)               =     3

  ==> Orbital Spaces <==

    TOTAL MO                      [    5     1     1     1     0     2     2     2 ]
    FROZEN CORE                   [    1     0     0     0     0     0     0     0 ]
    FROZEN VIRTUAL                [    0     0     0     0     0     0     0     0 ]
    CORRELATED MO                 [    4     1     1     1     0     2     2     2 ]
    CORE                          [    1     0     0     0     0     0     0     0 ]
    ACTIVE                        [    0     0     0     0     0     1     1     1 ]
    VIRTUAL                       [    3     1     1     1     0     1     1     1 ]
  Forming alpha and beta strings      ...  Done. Timing        0.000055 s
  Forming determinants                ...  Done. Timing        0.000013 s

  ==> Determinants Summary <==

    number of alpha active electrons         =     3
    number of beta active electrons          =     0
    root symmetry (zero based)               =     4
    number of determinants                   =     1

  Diagonalizing Hamiltonian           ...

  ==> Computing 1 Coupling Lists <==

        α          2.000e-05 seconds
        β          4.000e-06 seconds

  ==> Computing 2 Coupling Lists <==

        αα         2.300e-05 seconds
        ββ         4.000e-06 seconds
        αβ         4.000e-06 seconds

  Davidson-Liu solver algorithm using SigmaVectorSparseList sigma algorithm

  Performing diagonalization of the H matrix
  Found 1 roots with 2S+1 = 4 *  Done. Timing        0.000395 s

  * * * * * * * * * * * * * * * * *
  *  CI Vectors & Configurations  *
  * * * * * * * * * * * * * * * * *

  ==> Root No. 0 <==

    a a a          1.0000000000

    Total Energy:   -54.471693952303433



  ==> Permanent Dipole Moments (Au) <==

  Only print nonzero (> 1.0e-5) elements.


  ==> Energy Summary <==

    Multi.(2ms)  Irrep.  No.               Energy      <S^2>
    --------------------------------------------------------
       4  (  3)    Au     0      -54.471693952303   3.750000
    --------------------------------------------------------

  => DSRG-MRPT2 Reference Relaxation Energy Summary <=

                         Fixed Ref. (a.u.)              Relaxed Ref. (a.u.)
           -------------------------------  -------------------------------
    Iter.          Total Energy      Delta          Total Energy      Delta
    -----------------------------------------------------------------------
        1      -54.471693952303 -5.447e+01      -54.471693952303 -5.447e+01
    -----------------------------------------------------------------------

  ==> Total Timings (s) for Computing Commutators <==

             [H1, T1]    [H1, T2]    [H2, T1]    [H2, T2]
    -----------------------------------------------------
    -> C0       0.002       0.004       0.004       0.184
    -> C1       0.003       0.020       0.013       0.232
    -> C2                   0.011       0.011       0.095
    -----------------------------------------------------


  Time to prepare integrals:        0.091 seconds
  Time to run job          :        0.645 seconds
  Total                    :        0.736 seconds
    DSRG-MRPT2 relaxed energy of N atom...................................................PASSED
    Size consistency error: E_N2 - 2 * E_N................................................PASSED

    Psi4 stopped on: Monday, 21 February 2022 10:44AM
    Psi4 wall time for execution: 0:00:03.28

*** Psi4 exiting successfully. Buy a developer a beer!
