
    -----------------------------------------------------------------------
          Psi4: An Open-Source Ab Initio Electronic Structure Package
                               Psi4 1.4a2.dev313 

                         Git: Rev {master} 65c0921 


    R. M. Parrish, L. A. Burns, D. G. A. Smith, A. C. Simmonett,
    A. E. DePrince III, E. G. Hohenstein, U. Bozkaya, A. Yu. Sokolov,
    R. Di Remigio, R. M. Richard, J. F. Gonthier, A. M. James,
    H. R. McAlexander, A. Kumar, M. Saitow, X. Wang, B. P. Pritchard,
    P. Verma, H. F. Schaefer III, K. Patkowski, R. A. King, E. F. Valeev,
    F. A. Evangelista, J. M. Turney, T. D. Crawford, and C. D. Sherrill,
    J. Chem. Theory Comput. 13(7) pp 3185--3197 (2017).
    (doi: 10.1021/acs.jctc.7b00174)


                         Additional Contributions by
    P. Kraus, H. Kruse, M. H. Lechner, M. C. Schieber, R. A. Shaw,
    A. Alenaizan, R. Galvelis, Z. L. Glick, S. Lehtola, and J. P. Misiewicz

    -----------------------------------------------------------------------


    Psi4 started on: Thursday, 27 February 2020 03:50AM

    Process ID: 90508
    Host:       Yorks-Mac.local
    PSIDATADIR: /Users/york/src/psi4group/psi4/share/psi4
    Memory:     500.0 MiB
    Threads:    1
    
  ==> Input File <==

--------------------------------------------------------------------------
#! Generated using commit GITCOMMIT

import forte

E2_cas = -108.776828474020519
E2_pt2 = -108.943387904662131
E1_cas =  -54.388414237010380
E1_pt2 =  -54.471693952303461

molecule N2{
  0 1
  N
  N  1 R

  R = 1000.0
}

molecule N {
0 4
N
}

activate(N2)

set {
  basis               cc-pvdz
  reference           rhf
  scf_type            out_of_core
  maxiter             300
  e_convergence       10
  d_convergence       8
  docc                [3,0,0,0,0,2,1,1]
  restricted_docc     [2,0,0,0,0,2,0,0]
  active              [1,0,1,1,0,1,1,1]
  mcscf_maxiter       100
  mcscf_r_convergence 8
  mcscf_e_convergence 10
  mcscf_diis_start    6
}
Ecas, wfn_cas = energy('casscf', return_wfn=True)
compare_values(E2_cas, Ecas, 9, "CASSCF energy of N2")

set forte {
  active_space_solver cas
  correlation_solver  dsrg-mrpt2
  frozen_docc         [1,0,0,0,0,1,0,0]
  frozen_uocc         [0,0,0,0,0,0,0,0]
  restricted_docc     [1,0,0,0,0,1,0,0]
  active              [1,0,1,1,0,1,1,1]
  dsrg_s              0.5
  ntrial_per_root     56
  relax_ref           once
}
Eforte2, wfn_cas = energy('forte', ref_wfn=wfn_cas, return_wfn=True)
compare_values(E2_pt2, Eforte2, 9, "DSRG-MRPT2 relaxed energy of N2")

clean()

activate(N)

set {
  reference rohf
  docc      [2,0,0,0,0,0,0,0]
  socc      [0,0,0,0,0,1,1,1]
}
Ecas, wfn_cas = energy('scf', return_wfn=True)
compare_values(E1_cas, Ecas, 9, "CASSCF energy of N atom")

set forte {
  frozen_docc      [1,0,0,0,0,0,0,0]
  restricted_docc  [1,0,0,0,0,0,0,0]
  active           [0,0,0,0,0,1,1,1]
  root_sym         4
  spin_avg_density true
}
Eforte1, wfn_cas = energy('forte', ref_wfn=wfn_cas, return_wfn=True)
compare_values(E1_pt2, Eforte1, 9, "DSRG-MRPT2 relaxed energy of N atom")
compare_values(Eforte2, 2.0 * Eforte1, 8, "Size consistency error: E_N2 - 2 * E_N")
--------------------------------------------------------------------------

Scratch directory: /Users/york/scratch/psi4/

*** tstart() called on Yorks-Mac.local
*** at Thu Feb 27 03:50:05 2020

   => Loading Basis Set <=

    Name: CC-PVDZ
    Role: ORBITAL
    Keyword: BASIS
    atoms 1-2 entry N          line   168 file /Users/york/src/psi4group/psi4/share/psi4/basis/cc-pvdz.gbs 


         ---------------------------------------------------------
                                   SCF
               by Justin Turney, Rob Parrish, Andy Simmonett
                          and Daniel G. A. Smith
                              RHF Reference
                        1 Threads,    500 MiB Core
         ---------------------------------------------------------

  ==> Geometry <==

    Molecular point group: d2h
    Full point group: D_inf_h

    Geometry (in Angstrom), charge = 0, multiplicity = 1:

       Center              X                  Y                   Z               Mass       
    ------------   -----------------  -----------------  -----------------  -----------------
         N            0.000000000000     0.000000000000  -500.000000000000    14.003074004430
         N            0.000000000000     0.000000000000   500.000000000000    14.003074004430

  Running in d2h symmetry.

  Rotational constants: A = ************  B =      0.00000  C =      0.00000 [cm^-1]
  Rotational constants: A = ************  B =      0.07218  C =      0.07218 [MHz]
  Nuclear repulsion =    0.025929683322830

  Charge       = 0
  Multiplicity = 1
  Electrons    = 14
  Nalpha       = 7
  Nbeta        = 7

  ==> Algorithm <==

  SCF Algorithm Type is OUT_OF_CORE.
  DIIS enabled.
  MOM disabled.
  Fractional occupation disabled.
  Guess Type is SAD.
  Energy threshold   = 1.00e-10
  Density threshold  = 1.00e-08
  Integral threshold = 0.00e+00

  ==> Primary Basis <==

  Basis Set: CC-PVDZ
    Blend: CC-PVDZ
    Number of shells: 12
    Number of basis function: 28
    Number of Cartesian functions: 30
    Spherical Harmonics?: true
    Max angular momentum: 2

  ==> Pre-Iterations <==

   -------------------------------------------------------
    Irrep   Nso     Nmo     Nalpha   Nbeta   Ndocc  Nsocc
   -------------------------------------------------------
     Ag         7       7       3       3       3       0
     B1g        1       1       0       0       0       0
     B2g        3       3       0       0       0       0
     B3g        3       3       0       0       0       0
     Au         1       1       0       0       0       0
     B1u        7       7       2       2       2       0
     B2u        3       3       1       1       1       0
     B3u        3       3       1       1       1       0
   -------------------------------------------------------
    Total      28      28       7       7       7       0
   -------------------------------------------------------

  ==> Integral Setup <==

  ==> DiskJK: Disk-Based J/K Matrices <==

    J tasked:                  Yes
    K tasked:                  Yes
    wK tasked:                  No
    Memory [MiB]:              375
    Schwarz Cutoff:          1E-12

  Minimum eigenvalue in the overlap matrix is 1.8560178110E-01.
  Reciprocal condition number of the overlap matrix is 1.0840187179E-01.
    Using symmetric orthogonalization.
  SCF Guess: Superposition of Atomic Densities via on-the-fly atomic UHF.

  ==> Iterations <==

                        Total Energy        Delta E     RMS |[F,P]|

   @RHF iter SAD:  -106.68350190148031   -1.06684e+02   0.00000e+00 
   @RHF iter   1:  -107.65191191998872   -9.68410e-01   7.75316e-03 DIIS
   @RHF iter   2:  -107.65764956700728   -5.73765e-03   2.09799e-03 DIIS
   @RHF iter   3:  -107.65799332162874   -3.43755e-04   4.53826e-04 DIIS
   @RHF iter   4:  -107.65800952767337   -1.62060e-05   3.80227e-06 DIIS
   @RHF iter   5:  -107.65800952834294   -6.69573e-10   6.03848e-08 DIIS
   @RHF iter   6:  -107.65800952834326   -3.12639e-13   3.02991e-11 DIIS
  Energy and wave function converged.


  ==> Post-Iterations <==

    Orbital Energies [Eh]
    ---------------------

    Doubly Occupied:                                                      

       1Ag   -15.788734     1B1u  -15.788734     2Ag    -1.006629  
       2B1u   -1.006629     3Ag    -0.231576     1B3u   -0.231576  
       1B2u   -0.231576  

    Virtual:                                                              

       1B3g   -0.231046     1B2g   -0.231046     3B1u   -0.231046  
       2B3u    0.928002     2B2g    0.928002     2B2u    0.928002  
       2B3g    0.928002     4Ag     0.928002     4B1u    0.928002  
       5Ag     1.001527     5B1u    1.001527     6Ag     2.002076  
       3B2u    2.002076     3B3u    2.002076     1B1g    2.002076  
       7Ag     2.002076     1Au     2.002076     6B1u    2.002076  
       3B2g    2.002076     3B3g    2.002076     7B1u    2.002076  

    Final Occupation by Irrep:
             Ag   B1g   B2g   B3g    Au   B1u   B2u   B3u 
    DOCC [     3,    0,    0,    0,    0,    2,    1,    1 ]

  @RHF Final Energy:  -107.65800952834326

   => Energetics <=

    Nuclear Repulsion Energy =              0.0259296833228300
    One-Electron Energy =                -146.7969722829956822
    Two-Electron Energy =                  39.1130330713296033
    Total Energy =                       -107.6580095283432570

Computation Completed


Properties will be evaluated at   0.000000,   0.000000,   0.000000 [a0]

Properties computed using the SCF density matrix

  Nuclear Dipole Moment: [e a0]
     X:     0.0000      Y:     0.0000      Z:     0.0000

  Electronic Dipole Moment: [e a0]
     X:     0.0000      Y:     0.0000      Z:     0.0000

  Dipole Moment: [e a0]
     X:     0.0000      Y:     0.0000      Z:     0.0000     Total:     0.0000

  Dipole Moment: [D]
     X:     0.0000      Y:     0.0000      Z:     0.0000     Total:     0.0000


*** tstop() called on Yorks-Mac.local at Thu Feb 27 03:50:05 2020
Module time:
	user time   =       0.40 seconds =       0.01 minutes
	system time =       0.02 seconds =       0.00 minutes
	total time  =          0 seconds =       0.00 minutes
Total time:
	user time   =       0.40 seconds =       0.01 minutes
	system time =       0.02 seconds =       0.00 minutes
	total time  =          0 seconds =       0.00 minutes
 MINTS: Wrapper to libmints.
   by Justin Turney

   Calculation information:
      Number of threads:                 1
      Number of atoms:                   2
      Number of AO shells:              12
      Number of SO shells:               6
      Number of primitives:             44
      Number of atomic orbitals:        30
      Number of basis functions:        28

      Number of irreps:                  8
      Integral cutoff                 1.00e-12
      Number of functions per irrep: [   7    1    3    3    1    7    3    3 ]

 OEINTS: Overlap, kinetic, potential, dipole, and quadrupole integrals
         stored in file 35.

      Computing two-electron integrals...done
      Computed 7109 non-zero two-electron integrals.
        Stored in file 33.


         ---------------------------------------------------------
                Multi-Configurational Self-Consistent Field
                            (a 'D E T C I' module)

                 Daniel G. A. Smith, C. David Sherrill, and
                              Matt L. Leininger
         ---------------------------------------------------------


   ==> Parameters <==

    EX LEVEL       =        6      H0 BLOCKSIZE  =     1000
    VAL EX LEVEL   =        0      H0 GUESS SIZE =     1000
    H0COUPLINGSIZE =        0      H0 COUPLING   =       NO
    MAXITER        =       12      NUM PRINT     =       20
    NUM ROOTS      =        1      ICORE         =        1
    PRINT LVL      =        1      FCI           =      YES
    R CONV         = 1.00e-07      MIXED         =      YES
    E CONV         = 1.00e-10      MIXED4        =      YES
    R4S            =       NO      REPL OTF      =       NO
    DIAG METHOD    =      SEM      FOLLOW ROOT   =        0
    PRECONDITIONER = DAVIDSON      UPDATE        = DAVIDSON
    S              =   0.0000      Ms0           =      YES
    GUESS VECTOR   =  H0BLOCK      OPENTYPE      =     NONE
    COLLAPSE SIZE  =        1      HD AVG        = EVANGELISTI
    MAX NUM VECS   =       13      REF SYM       =     AUTO
    IOPEN        =       NO

    EX ALLOW       =  1  1  1  1  1  1 
    STATE AVERAGE  =  0(1.00) 

   ==> CI Orbital and Space information <==

   ------------------------------------------------------------------------------
               Space    Total    Ag   B1g   B2g   B3g    Au   B1u   B2u   B3u
   ------------------------------------------------------------------------------
                 Nso       28     7     1     3     3     1     7     3     3
                 Nmo       28     7     1     3     3     1     7     3     3
               Ndocc        7     3     0     0     0     0     2     1     1
               Nsocc        0     0     0     0     0     0     0     0     0
   ------------------------------------------------------------------------------
                                    MCSCF Spaces
   ------------------------------------------------------------------------------
         Frozen DOCC        0     0     0     0     0     0     0     0     0
     Restricted DOCC        4     2     0     0     0     0     2     0     0
              Active        6     1     0     1     1     0     1     1     1
     Restricted UOCC       18     4     1     2     2     1     4     2     2
         Frozen UOCC        0     0     0     0     0     0     0     0     0
   ------------------------------------------------------------------------------

   ==> Setting up CI strings <==

    There are 20 alpha and 20 beta strings
    The CI space requires 56 (5.60E+01) determinants and 8 blocks

   ==> Setting up MCSCF integrals <==

  ==> DiskJK: Disk-Based J/K Matrices <==

    J tasked:                  Yes
    K tasked:                  Yes
    wK tasked:                  No
    Memory [MiB]:              400
    Schwarz Cutoff:          1E-12


   ==> Starting MCSCF iterations <==

        Iter         Total Energy       Delta E   Orb RMS    CI RMS  NCI NORB
   @MCSCF  1:   -108.734763812465   -1.0768e+00  7.16e-02  3.50e-14    1    1  Initial CI
   @MCSCF  2:   -108.774265482113   -3.9502e-02  2.45e-02  9.90e-14    1    1  TS
   @MCSCF  3:   -108.776573225448   -2.3077e-03  6.74e-03  6.18e-13    1    1  TS
   @MCSCF  4:   -108.776802166584   -2.2894e-04  2.22e-03  8.56e-14    1    1  TS
   @MCSCF  5:   -108.776825758994   -2.3592e-05  7.08e-04  7.83e-14    1    1  TS
   @MCSCF  6:   -108.776828193772   -2.4348e-06  2.28e-04  3.65e-14    1    1  TS
   @MCSCF  7:   -108.776828445092   -2.5132e-07  7.32e-05  3.46e-14    1    1  TS, DIIS
   @MCSCF  8:   -108.776828471034   -2.5942e-08  2.35e-05  2.87e-14    1    1  TS, DIIS
   @MCSCF  9:   -108.776828474014   -2.9792e-09  1.14e-06  2.87e-14    1    1  TS, DIIS
   @MCSCF 10:   -108.776828474021   -6.9775e-12  3.06e-08  2.72e-14    1    1  TS, DIIS
   @MCSCF 11:   -108.776828474021   -1.4211e-14  1.77e-09  2.52e-14    1    1  TS, DIIS

          @MCSCF has converged!

   @MCSCF Final Energy: -108.776828474020547

   Computing CI Semicanonical Orbitals

   ==> Energetics <==

    SCF energy =         -107.658009528343257
    Total MCSCF energy = -108.776828474020547

   ==> MCSCF root 0 information <==

    MCSCF Root 0 energy =  -108.776828474020519

   Active Space Natural occupation numbers:

        Ag   1.000000       B2g   1.000000       B3g   1.000000
       B2u   1.000000       B3u   1.000000       B1u   1.000000

   The 20 most important determinants:

    *   1   -0.249981  (   12,   12)  3AgX 1B3gX 1B3uX 
    *   2   -0.249981  (   11,   11)  3AgX 1B2gX 1B2uX 
    *   3   -0.249981  (   10,   10)  1B2gX 1B3gX 3B1uX 
    *   4    0.249981  (    5,    5)  3AgX 1B2uX 1B3uX 
    *   5    0.249981  (    3,    3)  1B2gX 3B1uX 1B2uX 
    *   6    0.249981  (    4,    4)  1B3gX 3B1uX 1B3uX 
    *   7    0.249981  (    2,    2)  3AgX 1B2gX 1B3gX 
    *   8   -0.249981  (   13,   13)  3B1uX 1B2uX 1B3uX 
    *   9   -0.168729  (   18,   19)  3AgA 1B2gX 1B3gB 3B1uA 1B2uB 
    *  10   -0.168729  (   19,   18)  3AgB 1B2gX 1B3gA 3B1uB 1B2uA 
    *  11   -0.168729  (    6,    7)  3AgA 1B3gB 3B1uA 1B2uB 1B3uX 
    *  12   -0.168729  (    7,    6)  3AgB 1B3gA 3B1uB 1B2uA 1B3uX 
    *  13    0.168729  (   16,   17)  3AgA 1B2gB 1B3gX 3B1uA 1B3uB 
    *  14    0.168729  (   17,   16)  3AgB 1B2gA 1B3gX 3B1uB 1B3uA 
    *  15    0.168729  (    8,    9)  3AgA 1B2gB 3B1uA 1B2uX 1B3uB 
    *  16    0.168729  (    9,    8)  3AgB 1B2gA 3B1uB 1B2uX 1B3uA 
    *  17    0.168729  (   14,   15)  3AgX 1B2gB 1B3gA 1B2uA 1B3uB 
    *  18    0.168729  (   15,   14)  3AgX 1B2gA 1B3gB 1B2uB 1B3uA 
    *  19   -0.168729  (    0,    1)  1B2gB 1B3gA 3B1uX 1B2uA 1B3uB 
    *  20   -0.168729  (    1,    0)  1B2gA 1B3gB 3B1uX 1B2uB 1B3uA 



Properties will be evaluated at   0.000000,   0.000000,   0.000000 [a0]

Properties computed using the CASSCF density matrix

  Nuclear Dipole Moment: [e a0]
     X:     0.0000      Y:     0.0000      Z:     0.0000

  Electronic Dipole Moment: [e a0]
     X:     0.0000      Y:     0.0000      Z:     0.0000

  Dipole Moment: [e a0]
     X:     0.0000      Y:     0.0000      Z:     0.0000     Total:     0.0000

  Dipole Moment: [D]
     X:     0.0000      Y:     0.0000      Z:     0.0000     Total:     0.0000

    CASSCF energy of N2...............................................PASSED

Scratch directory: /Users/york/scratch/psi4/
   => Loading Basis Set <=

    Name: STO-3G
    Role: ORBITAL
    Keyword: MINAO_BASIS
    atoms 1-2 entry N          line    71 file /Users/york/src/psi4group/psi4/share/psi4/basis/sto-3g.gbs 


  Forte
  ----------------------------------------------------------------------------
  A suite of quantum chemistry methods for strongly correlated electrons

    git branch: spin-adapted-dsrg - git commit: e4dc2c76

  Developed by:
    Francesco A. Evangelista, Chenyang Li, Kevin P. Hannon,
    Jeffrey B. Schriber, Tianyuan Zhang, Chenxi Cai,
    Nan He, Nicholas Stair, Shuhe Wang, Renke Huang
  ----------------------------------------------------------------------------

  Size of Determinant class: 128 bits
  Read options for space FROZEN_DOCC
  Read options for space RESTRICTED_DOCC
  Read options for space ACTIVE
  Read options for space FROZEN_UOCC

  ==> MO Space Information <==

  -------------------------------------------------------------------------
                       Ag   B1g   B2g   B3g    Au   B1u   B2u   B3u   Sum
  -------------------------------------------------------------------------
    FROZEN_DOCC         1     0     0     0     0     1     0     0     2
    RESTRICTED_DOCC     1     0     0     0     0     1     0     0     2
    ACTIVE              1     0     1     1     0     1     1     1     6
    RESTRICTED_UOCC     4     1     2     2     1     4     2     2    18
    FROZEN_UOCC         0     0     0     0     0     0     0     0     0
    Total               7     1     3     3     1     7     3     3    28
  -------------------------------------------------------------------------

  ==> Integral Transformation <==

  Number of molecular orbitals:                    28
  Number of correlated molecular orbitals:         26
  Number of frozen occupied orbitals:               2
  Number of frozen unoccupied orbitals:             0
  Two-electron integral type:              Conventional


  Overall Conventional Integrals timings


  Conventional integrals take 0.33471650 s

  ==> Summary of Active Space Solver Input <==

    Irrep.  Multi.(ms)      N
    --------------------------
       Ag      1 (  0)      1
    --------------------------
    N: number of roots
    ms: twice spin z component
    Total number of roots:   1
    --------------------------


              ---------------------------------------------------
                Complete Active Space Configuration Interaction
                                  Chenyang Li
              ---------------------------------------------------

  Forming alpha and beta strings      ...  Done. Timing        0.000087 s
  Forming determinants                ...  Done. Timing        0.000041 s

  ==> Determinants Summary <==

    number of alpha active electrons         =     3
    number of beta active electrons          =     3
    root symmetry (zero based)               =     0
    number of determinants                   =    56

  Diagonalizing Hamiltonian           ...

  ==> Computing Coupling Lists <==
  --------------------------------
        α          0.000352 s
        β          0.000326 s
        αα         0.000349 s
        ββ         0.000331 s
        αβ         0.000796 s
  --------------------------------

  Davidson-Liu solver algorithm using SigmaVectorSparseList sigma algorithm
  Found 32 roots with 2S+1 = 1 *
  Found 18 roots with 2S+1 = 3
  Found 6 roots with 2S+1 = 5  Done. Timing        0.005567 s

  * * * * * * * * * * * * * * * * *
  *  CI Vectors & Configurations  *
  * * * * * * * * * * * * * * * * *

  ==> Root No. 0 <==

    0 0 2 2 0 2          0.2500000000
    0 0 0 2 2 2         -0.2500000000
    2 0 0 0 2 2          0.2500000000
    2 2 0 0 2 0         -0.2500000000
    2 2 2 0 0 0          0.2500000000
    2 0 2 0 0 2         -0.2500000000
    0 2 2 2 0 0         -0.2500000000
    0 2 0 2 2 0          0.2500000000
    0 b a 2 a b         -0.1666666667
    0 a b 2 b a         -0.1666666667
    2 a b 0 b a          0.1666666667
    2 b a 0 a b          0.1666666667
    a 2 b a b 0         -0.1666666667
    b 2 a b a 0         -0.1666666667
    b 0 a b a 2         -0.1666666667
    a 0 b a b 2         -0.1666666667
    a b 2 a 0 b          0.1666666667
    b a 2 b 0 a          0.1666666667
    b a 0 b 2 a          0.1666666667
    a b 0 a 2 b          0.1666666667
    0 a b 2 a b         -0.0833333333
    0 b a 2 b a         -0.0833333333
    2 a b 0 a b          0.0833333333
    2 b a 0 b a          0.0833333333
    0 a a 2 b b          0.0833333333
    0 b b 2 a a          0.0833333333
    b 0 b a a 2         -0.0833333333
    a 0 a b b 2         -0.0833333333
    2 b b 0 a a         -0.0833333333
    2 a a 0 b b         -0.0833333333
    a b 0 b 2 a          0.0833333333
    b a 0 a 2 b          0.0833333333
    a b 2 b 0 a          0.0833333333
    b a 2 a 0 b          0.0833333333
    b 2 b a a 0         -0.0833333333
    a 2 a b b 0         -0.0833333333
    a 2 b b a 0         -0.0833333333
    b 2 a a b 0         -0.0833333333
    b 0 a a b 2         -0.0833333333
    a 0 b b a 2         -0.0833333333
    a a 2 b 0 b          0.0833333333
    b b 2 a 0 a          0.0833333333
    a a 0 b 2 b          0.0833333333
    b b 0 a 2 a          0.0833333333

    Total Energy:   -108.776828474020519



  ==> Permanent Dipole Moments (Ag) <==

  Only print nonzero (> 1.0e-5) elements.


  ==> Energy Summary <==

    Multi.(ms)  Irrep.  No.               Energy
    ---------------------------------------------
       1  ( 0)    Ag     0      -108.776828474021
    ---------------------------------------------
 Computing  1RDMs (0 Singlet Ag - 0 Singlet Ag) ... Done. Timing        0.000685 s
 Computing  2RDMs (0 Singlet Ag - 0 Singlet Ag) ... Done. Timing        0.001334 s
 Computing  3RDMs (0 Singlet Ag - 0 Singlet Ag) ... Done. Timing        0.004366 s

       -----------------------------------------------------------------
                            Semi-Canonical Orbitals
         Chenyang Li, Jeffrey B. Schriber and Francesco A. Evangelista
       -----------------------------------------------------------------

  Took 0.000563 s to build Fock matrix

  ==> Checking Fock Matrix Diagonal Blocks <==

    Off-Diag. Elements       Max           2-Norm
    ------------------------------------------------
    Fa actv              0.0000000000   0.0000000000
    Fb actv              0.0000000000   0.0000000000
    ------------------------------------------------
    Fa core              0.0000000000   0.0000000000
    Fb core              0.0000000000   0.0000000000
    ------------------------------------------------
    Fa virt              0.0000000000   0.0000000000
    Fb virt              0.0000000000   0.0000000000
    ------------------------------------------------
  Orbitals are already semicanonicalized.

  ==> Multireference Driven Similarity Renormalization Group <==

    Reading DSRG options ............................ Done
    Setting ambit MO space .......................... Done
    Preparing tensors for density cumulants ......... Done
    Building Fock matrix ............................ Done

              ----------------------------------------------------
                    MR-DSRG Second-Order Perturbation Theory
                Chenyang Li, Kevin Hannon, Francesco Evangelista
              ----------------------------------------------------

    References:
      u-DSRG-MRPT2:    J. Chem. Theory Comput. 2015, 11, 2097.
      (pr-)DSRG-MRPT2: J. Chem. Phys. 2017, 146, 124132.

  ==> Calculation Information <==

    ntamp                                                 15
    flow parameter                                 5.000e-01
    taylor expansion threshold                     1.000e-03
    intruder_tamp                                  1.000e-01
    int_type                                    CONVENTIONAL
    source operator                                 STANDARD
    reference relaxation                                ONCE
    state_type                                STATE-SPECIFIC
    form Hbar3                                         FALSE

  ==> Checking Semicanonical Orbitals <==

    Abs. max of Fock core, active, virtual blocks (Fij, i != j)
                  core          active         virtual
    --------------------------------------------------
    Fα    0.0000000000    0.0000000000    0.0000000000
    Fβ    0.0000000000    0.0000000000    0.0000000000
    --------------------------------------------------

    1-Norm of Fock core, active, virtual blocks (Fij, i != j)
                  core          active         virtual
    --------------------------------------------------
    Fα    0.0000000000    0.0000000000    0.0000000000
    Fβ    0.0000000000    0.0000000000    0.0000000000
    --------------------------------------------------

    Orbitals are semi-canonicalized.

  ==> Computing DSRG-MRPT2 ... <==

    Computing T2 amplitudes                  ...  Done. Timing        0.026154 s
    Computing T1 amplitudes                  ...  Done. Timing        0.005706 s
    Renormalizing two-electron integrals     ...  Done. Timing        0.023434 s
    Renormalizing Fock matrix elements       ...  Done. Timing        0.005775 s
    Computing <[F, T1]>                      ...  Done. Timing        0.002126 s
    Computing <[F, T2]>                      ...  Done. Timing        0.006976 s
    Computing <[V, T1]>                      ...  Done. Timing        0.007021 s
    Computing <[V, T2]> (C_2)^4              ...  Done. Timing        0.043321 s
    Computing <[V, T2]> C_4 (C_2)^2 HH       ...  Done. Timing        0.010114 s
    Computing <[V, T2]> C_4 (C_2)^2 PP       ...  Done. Timing        0.012251 s
    Computing <[V, T2]> C_4 (C_2)^2 PH       ...  Done. Timing        0.048513 s
    Computing <[V, T2]> C_6 C_2              ...  Done. Timing        0.171755 s

  ==> Excitation Amplitudes Summary <==

    Active Indices:    1    7   10   15   20   23 
    Largest T1 amplitudes for spin case A:
       i       a                  i       a                  i       a               
    --------------------------------------------------------------------------------
    [ 20      21    ] 0.042860 [  7       8    ] 0.042860 [ 23      24    ] 0.042860 
    [ 10      11    ] 0.042860 [ 15      16    ] 0.042860 [  1       2    ]-0.042860 
    [  0       3    ]-0.000000 [ 14      17    ] 0.000000 [ 14      15    ]-0.000000 
    [  0       1    ]-0.000000 [  1       4    ] 0.000000 [ 15      18    ] 0.000000 
    [ 20      22    ]-0.000000 [ 23      25    ]-0.000000 [  7       9    ]-0.000000 
    --------------------------------------------------------------------------------
    Norm of T1A vector: (nonzero elements: 21)                    0.104984922592831.
    --------------------------------------------------------------------------------
    Largest T1 amplitudes for spin case B:
       _       _                  _       _                  _       _               
       i       a                  i       a                  i       a               
    --------------------------------------------------------------------------------
    [ 20      21    ] 0.042860 [  7       8    ] 0.042860 [ 23      24    ] 0.042860 
    [ 10      11    ] 0.042860 [ 15      16    ] 0.042860 [  1       2    ]-0.042860 
    [  0       3    ]-0.000000 [ 14      17    ] 0.000000 [ 14      15    ]-0.000000 
    [  0       1    ]-0.000000 [  1       4    ] 0.000000 [ 15      18    ] 0.000000 
    [ 20      22    ]-0.000000 [ 23      25    ]-0.000000 [  7       9    ]-0.000000 
    --------------------------------------------------------------------------------
    Norm of T1B vector: (nonzero elements: 21)                    0.104984922592831.
    --------------------------------------------------------------------------------
    Largest T2 amplitudes for spin case AA:
       i   j   a   b              i   j   a   b              i   j   a   b           
    --------------------------------------------------------------------------------
    [ 15  23   2   7]-0.031970 [ 15  20   2  10]-0.031970 [  7  15   2  23] 0.031970 
    [ 10  15   2  20] 0.031970 [  1   7  16  23] 0.031970 [  1  10  16  20] 0.031970 
    [  1  23   7  16]-0.031970 [  1  20  10  16]-0.031970 [ 20  23  20  24] 0.031970 
    [ 10  23  11  23] 0.031970 [  7  20   8  20] 0.031970 [  7  10   7  11] 0.031970 
    [  7  10   8  10] 0.031970 [ 20  23  21  23] 0.031970 [ 10  23  10  24] 0.031970 
    --------------------------------------------------------------------------------
    Norm of T2AA vector: (nonzero elements: 3388)                 0.590420515648107.
    --------------------------------------------------------------------------------
    Largest T2 amplitudes for spin case AB:
           _       _                  _       _                  _       _           
       i   j   a   b              i   j   a   b              i   j   a   b           
    --------------------------------------------------------------------------------
    [ 15  15   1   2]-0.038504 [  1   1  15  16] 0.038504 [ 23  23  23  24] 0.038504 
    [ 10  20  11  20] 0.038504 [  7  23   8  23] 0.038504 [ 10  10  10  11] 0.038504 
    [  7  23   7  24] 0.038504 [ 20  20  20  21] 0.038504 [  7   7   7   8] 0.038504 
    [ 10  20  10  21] 0.038504 [ 23  23   7   8] 0.038504 [ 20  20  10  11] 0.038504 
    [  7   7  23  24] 0.038504 [ 10  10  20  21] 0.038504 [  1  15   2  15]-0.038504 
    --------------------------------------------------------------------------------
    Norm of T2AB vector: (nonzero elements: 4556)                 0.628365879739217.
    --------------------------------------------------------------------------------
    Largest T2 amplitudes for spin case BB:
       _   _   _   _              _   _   _   _              _   _   _   _           
       i   j   a   b              i   j   a   b              i   j   a   b           
    --------------------------------------------------------------------------------
    [ 15  23   2   7]-0.031970 [ 15  20   2  10]-0.031970 [ 10  15   2  20] 0.031970 
    [  7  15   2  23] 0.031970 [  1   7  16  23] 0.031970 [  1  10  16  20] 0.031970 
    [  1  23   7  16]-0.031970 [  1  20  10  16]-0.031970 [ 20  23  20  24] 0.031970 
    [ 10  23  11  23] 0.031970 [  7  20   8  20] 0.031970 [  7  10   7  11] 0.031970 
    [  7  10   8  10] 0.031970 [ 20  23  21  23] 0.031970 [ 10  23  10  24] 0.031970 
    --------------------------------------------------------------------------------
    Norm of T2BB vector: (nonzero elements: 3388)                 0.590420515648107.
    --------------------------------------------------------------------------------

  ==> Possible Intruders <==

    T1 amplitudes larger than 0.1000 for spin case A: NULL
    T1 amplitudes larger than 0.1000 for spin case B: NULL
    T2 amplitudes larger than 0.1000 for spin case AA: NULL
    T2 amplitudes larger than 0.1000 for spin case AB: NULL
    T2 amplitudes larger than 0.1000 for spin case BB: NULL

  ==> DSRG-MRPT2 Energy Summary <==

    E0 (reference)                 =   -108.776828474020590
    <[F, T1]>                      =     -0.040181843383951
    <[F, T2]>                      =      0.040181842930340
    <[V, T1]>                      =      0.040181842930340
    <[V, T2]> (C_2)^4              =     -0.373640118668777
    <[V, T2]> C_4 (C_2)^2 HH       =      0.016770643432924
    <[V, T2]> C_4 (C_2)^2 PP       =      0.069060139117367
    <[V, T2]> C_4 (C_2)^2 PH       =      0.081068063000177
    <[V, T2]> C_6 C_2              =     -0.000000000000000
    <[V, T2]>                      =     -0.206741273118309
    DSRG-MRPT2 correlation energy  =     -0.166559430641580
    DSRG-MRPT2 total energy        =   -108.943387904662174
    max(T1)                        =      0.042859915173005
    max(T2)                        =      0.038504023894561
    ||T1||                         =      0.148471101375472
    ||T2||                         =      1.508829839934946

  Energy took      0.393 s


  ==> De-Normal-Order DSRG Transformed Hamiltonian <==

    Computing the scalar term                ... Done. Timing    0.003 s
    Computing the 1-body term                ... Done. Timing    0.001 s

  ==> Rotate DSRG Transformed Hamiltonian back to Original Basis <==

    Rotating 1-body term to original basis   ... Done. Timing    0.001 s
    Rotating 2-body term to original basis   ... Done. Timing    0.023 s

  ==> Summary of Active Space Solver Input <==

    Irrep.  Multi.(ms)      N
    --------------------------
       Ag      1 (  0)      1
    --------------------------
    N: number of roots
    ms: twice spin z component
    Total number of roots:   1
    --------------------------


              ---------------------------------------------------
                Complete Active Space Configuration Interaction
                                  Chenyang Li
              ---------------------------------------------------

  Forming alpha and beta strings      ...  Done. Timing        0.000070 s
  Forming determinants                ...  Done. Timing        0.000032 s

  ==> Determinants Summary <==

    number of alpha active electrons         =     3
    number of beta active electrons          =     3
    root symmetry (zero based)               =     0
    number of determinants                   =    56

  Diagonalizing Hamiltonian           ...

  ==> Computing Coupling Lists <==
  --------------------------------
        α          0.000331 s
        β          0.000323 s
        αα         0.000334 s
        ββ         0.000324 s
        αβ         0.000765 s
  --------------------------------

  Davidson-Liu solver algorithm using SigmaVectorSparseList sigma algorithm
  Found 32 roots with 2S+1 = 1 *
  Found 18 roots with 2S+1 = 3
  Found 6 roots with 2S+1 = 5  Done. Timing        0.005197 s

  * * * * * * * * * * * * * * * * *
  *  CI Vectors & Configurations  *
  * * * * * * * * * * * * * * * * *

  ==> Root No. 0 <==

    2 0 2 0 0 2         -0.2500000000
    2 0 0 0 2 2          0.2500000000
    2 2 0 0 2 0         -0.2500000000
    0 2 0 2 2 0          0.2500000000
    2 2 2 0 0 0          0.2500000000
    0 0 2 2 0 2          0.2500000000
    0 2 2 2 0 0         -0.2500000000
    0 0 0 2 2 2         -0.2500000000
    b 0 a b a 2         -0.1666666667
    a 0 b a b 2         -0.1666666667
    a b 0 a 2 b          0.1666666667
    b a 0 b 2 a          0.1666666667
    2 a b 0 b a          0.1666666667
    2 b a 0 a b          0.1666666667
    a b 2 a 0 b          0.1666666667
    b a 2 b 0 a          0.1666666667
    0 b a 2 a b         -0.1666666667
    0 a b 2 b a         -0.1666666667
    a 2 b a b 0         -0.1666666667
    b 2 a b a 0         -0.1666666667
    a 0 b b a 2         -0.0833333333
    b 0 a a b 2         -0.0833333333
    a a 0 b 2 b          0.0833333333
    b b 0 a 2 a          0.0833333333
    a a 2 b 0 b          0.0833333333
    b b 2 a 0 a          0.0833333333
    2 b b 0 a a         -0.0833333333
    2 a a 0 b b         -0.0833333333
    b 0 b a a 2         -0.0833333333
    a 0 a b b 2         -0.0833333333
    a b 0 b 2 a          0.0833333333
    b a 0 a 2 b          0.0833333333
    2 b a 0 b a          0.0833333333
    2 a b 0 a b          0.0833333333
    a b 2 b 0 a          0.0833333333
    b a 2 a 0 b          0.0833333333
    0 a a 2 b b          0.0833333333
    0 b b 2 a a          0.0833333333
    0 b a 2 b a         -0.0833333333
    0 a b 2 a b         -0.0833333333
    b 2 a a b 0         -0.0833333333
    a 2 b b a 0         -0.0833333333
    b 2 b a a 0         -0.0833333333
    a 2 a b b 0         -0.0833333333

    Total Energy:   -108.943387904662231



  ==> Permanent Dipole Moments (Ag) <==

  Only print nonzero (> 1.0e-5) elements.


  ==> Energy Summary <==

    Multi.(ms)  Irrep.  No.               Energy
    ---------------------------------------------
       1  ( 0)    Ag     0      -108.943387904662
    ---------------------------------------------

  => DSRG-MRPT2 Reference Relaxation Energy Summary <=

                         Fixed Ref. (a.u.)              Relaxed Ref. (a.u.)
           -------------------------------  -------------------------------
    Iter.          Total Energy      Delta          Total Energy      Delta
    -----------------------------------------------------------------------
        1     -108.943387904662 -1.089e+02     -108.943387904662 -1.089e+02
    -----------------------------------------------------------------------

  ==> Total Timings (s) for Computing Commutators <==

             [H1, T1]    [H1, T2]    [H2, T1]    [H2, T2]
    -----------------------------------------------------
    -> C0       0.002       0.007       0.007       0.286
    -> C1       0.002       0.017       0.012       0.264
    -> C2                   0.014       0.012       0.097
    -----------------------------------------------------


  Time to prepare integrals: 0.34114527702331543 seconds
  Time to run job          : 0.9260637760162354 seconds
  Total                    : 0.9260637760162354 seconds    DSRG-MRPT2 relaxed energy of N2...................................PASSED

Scratch directory: /Users/york/scratch/psi4/

*** tstart() called on Yorks-Mac.local
*** at Thu Feb 27 03:50:07 2020

   => Loading Basis Set <=

    Name: CC-PVDZ
    Role: ORBITAL
    Keyword: BASIS
    atoms 1 entry N          line   168 file /Users/york/src/psi4group/psi4/share/psi4/basis/cc-pvdz.gbs 


         ---------------------------------------------------------
                                   SCF
               by Justin Turney, Rob Parrish, Andy Simmonett
                          and Daniel G. A. Smith
                             ROHF Reference
                        1 Threads,    500 MiB Core
         ---------------------------------------------------------

  ==> Geometry <==

    Molecular point group: d2h
    Geometry (in Angstrom), charge = 0, multiplicity = 4:

       Center              X                  Y                   Z               Mass       
    ------------   -----------------  -----------------  -----------------  -----------------
         N            0.000000000000     0.000000000000     0.000000000000    14.003074004430

  Running in d2h symmetry.

  Rotational constants: A = ************  B = ************  C = ************ [cm^-1]
  Rotational constants: A = ************  B = ************  C = ************ [MHz]
  Nuclear repulsion =    0.000000000000000

  Charge       = 0
  Multiplicity = 4
  Electrons    = 7
  Nalpha       = 5
  Nbeta        = 2

  ==> Algorithm <==

  SCF Algorithm Type is OUT_OF_CORE.
  DIIS enabled.
  MOM disabled.
  Fractional occupation disabled.
  Guess Type is CORE.
  Energy threshold   = 1.00e-10
  Density threshold  = 1.00e-08
  Integral threshold = 0.00e+00

  ==> Primary Basis <==

  Basis Set: CC-PVDZ
    Blend: CC-PVDZ
    Number of shells: 6
    Number of basis function: 14
    Number of Cartesian functions: 15
    Spherical Harmonics?: true
    Max angular momentum: 2

  ==> Pre-Iterations <==

   -------------------------------------------------------
    Irrep   Nso     Nmo     Nalpha   Nbeta   Ndocc  Nsocc
   -------------------------------------------------------
     Ag         5       5       2       2       2       0
     B1g        1       1       0       0       0       0
     B2g        1       1       0       0       0       0
     B3g        1       1       0       0       0       0
     Au         0       0       0       0       0       0
     B1u        2       2       1       0       0       1
     B2u        2       2       1       0       0       1
     B3u        2       2       1       0       0       1
   -------------------------------------------------------
    Total      14      14       5       2       2       3
   -------------------------------------------------------

  ==> Integral Setup <==

  ==> DiskJK: Disk-Based J/K Matrices <==

    J tasked:                  Yes
    K tasked:                  Yes
    wK tasked:                  No
    Memory [MiB]:              375
    Schwarz Cutoff:          1E-12

  Minimum eigenvalue in the overlap matrix is 1.8560178110E-01.
  Reciprocal condition number of the overlap matrix is 1.0840187179E-01.
    Using symmetric orthogonalization.
  SCF Guess: Core (One-Electron) Hamiltonian.

  ==> Iterations <==

                        Total Energy        Delta E     RMS |[F,P]|

   @ROHF iter   1:   -52.73082024368685   -5.27308e+01   1.69734e-01 DIIS
   @ROHF iter   2:   -54.04407358554173   -1.31325e+00   1.06809e-01 DIIS
   @ROHF iter   3:   -54.37338916953003   -3.29316e-01   2.03992e-02 DIIS
   @ROHF iter   4:   -54.38798196060269   -1.45928e-02   2.92434e-03 DIIS
   @ROHF iter   5:   -54.38841188872751   -4.29928e-04   2.89093e-04 DIIS
   @ROHF iter   6:   -54.38841423667969   -2.34795e-06   3.36591e-06 DIIS
   @ROHF iter   7:   -54.38841423700983   -3.30132e-10   1.36709e-07 DIIS
   @ROHF iter   8:   -54.38841423701038   -5.54223e-13   9.07429e-12 DIIS
  Energy and wave function converged.


  ==> Post-Iterations <==

    Orbital Energies [Eh]
    ---------------------

    Doubly Occupied:                                                      

       1Ag   -15.627695     2Ag    -0.942272  

    Singly Occupied:                                                      

       1B2u   -0.173911     1B1u   -0.173911     1B3u   -0.173911  

    Virtual:                                                              

       2B3u    0.960938     2B1u    0.960938     2B2u    0.960938  
       3Ag     1.047611     1B1g    2.053159     1B2g    2.053159  
       1B3g    2.053159     4Ag     2.053159     5Ag     2.053159  

    Final Occupation by Irrep:
             Ag   B1g   B2g   B3g    Au   B1u   B2u   B3u 
    DOCC [     2,    0,    0,    0,    0,    0,    0,    0 ]
    SOCC [     0,    0,    0,    0,    0,    1,    1,    1 ]

  @ROHF Final Energy:   -54.38841423701038

   => Energetics <=

    Nuclear Repulsion Energy =              0.0000000000000000
    One-Electron Energy =                 -73.9497847585587920
    Two-Electron Energy =                  19.5613705215484153
    Total Energy =                        -54.3884142370103802

Computation Completed


Properties will be evaluated at   0.000000,   0.000000,   0.000000 [a0]

Properties computed using the SCF density matrix

  Nuclear Dipole Moment: [e a0]
     X:     0.0000      Y:     0.0000      Z:     0.0000

  Electronic Dipole Moment: [e a0]
     X:     0.0000      Y:     0.0000      Z:     0.0000

  Dipole Moment: [e a0]
     X:     0.0000      Y:     0.0000      Z:     0.0000     Total:     0.0000

  Dipole Moment: [D]
     X:     0.0000      Y:     0.0000      Z:     0.0000     Total:     0.0000


*** tstop() called on Yorks-Mac.local at Thu Feb 27 03:50:07 2020
Module time:
	user time   =       0.18 seconds =       0.00 minutes
	system time =       0.02 seconds =       0.00 minutes
	total time  =          0 seconds =       0.00 minutes
Total time:
	user time   =       2.21 seconds =       0.04 minutes
	system time =       0.18 seconds =       0.00 minutes
	total time  =          2 seconds =       0.03 minutes
    CASSCF energy of N atom...........................................PASSED

Scratch directory: /Users/york/scratch/psi4/
   => Loading Basis Set <=

    Name: STO-3G
    Role: ORBITAL
    Keyword: MINAO_BASIS
    atoms 1 entry N          line    71 file /Users/york/src/psi4group/psi4/share/psi4/basis/sto-3g.gbs 


  Forte
  ----------------------------------------------------------------------------
  A suite of quantum chemistry methods for strongly correlated electrons

    git branch: spin-adapted-dsrg - git commit: e4dc2c76

  Developed by:
    Francesco A. Evangelista, Chenyang Li, Kevin P. Hannon,
    Jeffrey B. Schriber, Tianyuan Zhang, Chenxi Cai,
    Nan He, Nicholas Stair, Shuhe Wang, Renke Huang
  ----------------------------------------------------------------------------

  Size of Determinant class: 128 bits
  Read options for space FROZEN_DOCC
  Read options for space RESTRICTED_DOCC
  Read options for space ACTIVE
  Read options for space FROZEN_UOCC

  ==> MO Space Information <==

  -------------------------------------------------------------------------
                       Ag   B1g   B2g   B3g    Au   B1u   B2u   B3u   Sum
  -------------------------------------------------------------------------
    FROZEN_DOCC         1     0     0     0     0     0     0     0     1
    RESTRICTED_DOCC     1     0     0     0     0     0     0     0     1
    ACTIVE              0     0     0     0     0     1     1     1     3
    RESTRICTED_UOCC     3     1     1     1     0     1     1     1     9
    FROZEN_UOCC         0     0     0     0     0     0     0     0     0
    Total               5     1     1     1     0     2     2     2    14
  -------------------------------------------------------------------------

  ==> Integral Transformation <==

  Number of molecular orbitals:                    14
  Number of correlated molecular orbitals:         13
  Number of frozen occupied orbitals:               1
  Number of frozen unoccupied orbitals:             0
  Two-electron integral type:              Conventional


  Overall Conventional Integrals timings


  Conventional integrals take 0.09502820 s

  ==> Summary of Active Space Solver Input <==

    Irrep.  Multi.(ms)      N
    --------------------------
       Au      4 ( -3)      1
       Au      4 ( -1)      1
       Au      4 (  1)      1
       Au      4 (  3)      1
    --------------------------
    N: number of roots
    ms: twice spin z component
    Total number of roots:   4
    --------------------------


              ---------------------------------------------------
                Complete Active Space Configuration Interaction
                                  Chenyang Li
              ---------------------------------------------------

  Continue to next symmetry block: No need to compute for ms = -3 / 2 < 0.

              ---------------------------------------------------
                Complete Active Space Configuration Interaction
                                  Chenyang Li
              ---------------------------------------------------

  Continue to next symmetry block: No need to compute for ms = -1 / 2 < 0.

              ---------------------------------------------------
                Complete Active Space Configuration Interaction
                                  Chenyang Li
              ---------------------------------------------------

  Forming alpha and beta strings      ...  Done. Timing        0.000032 s
  Forming determinants                ...  Done. Timing        0.000007 s

  ==> Determinants Summary <==

    number of alpha active electrons         =     2
    number of beta active electrons          =     1
    root symmetry (zero based)               =     4
    number of determinants                   =     3

  Diagonalizing Hamiltonian           ...

  ==> Computing Coupling Lists <==
  --------------------------------
        α          0.000020 s
        β          0.000008 s
        αα         0.000015 s
        ββ         0.000003 s
        αβ         0.000016 s
  --------------------------------

  Davidson-Liu solver algorithm using SigmaVectorSparseList sigma algorithm
  Found 2 roots with 2S+1 = 2
  Found 1 roots with 2S+1 = 4 *  Done. Timing        0.000298 s

  * * * * * * * * * * * * * * * * *
  *  CI Vectors & Configurations  *
  * * * * * * * * * * * * * * * * *

  ==> Root No. 0 <==

    a a b         -0.5773502692
    b a a         -0.5773502692
    a b a          0.5773502692

    Total Energy:   -54.388414237010338



  ==> Permanent Dipole Moments (Au) <==

  Only print nonzero (> 1.0e-5) elements.


              ---------------------------------------------------
                Complete Active Space Configuration Interaction
                                  Chenyang Li
              ---------------------------------------------------

  Forming alpha and beta strings      ...  Done. Timing        0.000022 s
  Forming determinants                ...  Done. Timing        0.000005 s

  ==> Determinants Summary <==

    number of alpha active electrons         =     3
    number of beta active electrons          =     0
    root symmetry (zero based)               =     4
    number of determinants                   =     1

  Diagonalizing Hamiltonian           ...

  ==> Computing Coupling Lists <==
  --------------------------------
        α          0.000011 s
        β          0.000001 s
        αα         0.000012 s
        ββ         0.000001 s
        αβ         0.000001 s
  --------------------------------

  Davidson-Liu solver algorithm using SigmaVectorSparseList sigma algorithm
  Found 1 roots with 2S+1 = 4 *  Done. Timing        0.000174 s

  * * * * * * * * * * * * * * * * *
  *  CI Vectors & Configurations  *
  * * * * * * * * * * * * * * * * *

  ==> Root No. 0 <==

    a a a          1.0000000000

    Total Energy:   -54.388414237010359



  ==> Permanent Dipole Moments (Au) <==

  Only print nonzero (> 1.0e-5) elements.


  ==> Energy Summary <==

    Multi.(ms)  Irrep.  No.               Energy
    ---------------------------------------------
       4  ( 1)    Au     0       -54.388414237010
    ---------------------------------------------
       4  ( 3)    Au     0       -54.388414237010
    ---------------------------------------------
 Computing  1RDMs (0 Quartet Au - 0 Quartet Au) ... Done. Timing        0.000072 s
 Computing  2RDMs (0 Quartet Au - 0 Quartet Au) ... Done. Timing        0.000073 s
 Computing  3RDMs (0 Quartet Au - 0 Quartet Au) ... Done. Timing        0.000104 s
 Computing  1RDMs (0 Quartet Au - 0 Quartet Au) ... Done. Timing        0.000052 s
 Computing  2RDMs (0 Quartet Au - 0 Quartet Au) ... Done. Timing        0.000057 s
 Computing  3RDMs (0 Quartet Au - 0 Quartet Au) ... Done. Timing        0.000096 s

       -----------------------------------------------------------------
                            Semi-Canonical Orbitals
         Chenyang Li, Jeffrey B. Schriber and Francesco A. Evangelista
       -----------------------------------------------------------------

  Took 0.000047 s to build Fock matrix

  ==> Checking Fock Matrix Diagonal Blocks <==

    Off-Diag. Elements       Max           2-Norm
    ------------------------------------------------
    Fa actv              0.0000000000   0.0000000000
    Fb actv              0.0000000000   0.0000000000
    ------------------------------------------------
    Fa core              0.0000000000   0.0000000000
    Fb core              0.0000000000   0.0000000000
    ------------------------------------------------
    Fa virt              0.0000000000   0.0000000000
    Fb virt              0.0000000000   0.0000000000
    ------------------------------------------------
  Orbitals are already semicanonicalized.

  ==> Multireference Driven Similarity Renormalization Group <==

    Reading DSRG options ............................ Done
    Setting ambit MO space .......................... Done
    Preparing tensors for density cumulants ......... Done
    Building Fock matrix ............................ Done

              ----------------------------------------------------
                    MR-DSRG Second-Order Perturbation Theory
                Chenyang Li, Kevin Hannon, Francesco Evangelista
              ----------------------------------------------------

    References:
      u-DSRG-MRPT2:    J. Chem. Theory Comput. 2015, 11, 2097.
      (pr-)DSRG-MRPT2: J. Chem. Phys. 2017, 146, 124132.

  ==> Calculation Information <==

    ntamp                                                 15
    flow parameter                                 5.000e-01
    taylor expansion threshold                     1.000e-03
    intruder_tamp                                  1.000e-01
    int_type                                    CONVENTIONAL
    source operator                                 STANDARD
    reference relaxation                                ONCE
    state_type                                STATE-SPECIFIC
    form Hbar3                                         FALSE

  ==> Checking Semicanonical Orbitals <==

    Abs. max of Fock core, active, virtual blocks (Fij, i != j)
                  core          active         virtual
    --------------------------------------------------
    Fα    0.0000000000    0.0000000000    0.0000000000
    Fβ    0.0000000000    0.0000000000    0.0000000000
    --------------------------------------------------

    1-Norm of Fock core, active, virtual blocks (Fij, i != j)
                  core          active         virtual
    --------------------------------------------------
    Fα    0.0000000000    0.0000000000    0.0000000000
    Fβ    0.0000000000    0.0000000000    0.0000000000
    --------------------------------------------------

    Orbitals are semi-canonicalized.

  ==> Computing DSRG-MRPT2 ... <==

    Computing T2 amplitudes                  ...  Done. Timing        0.003759 s
    Computing T1 amplitudes                  ...  Done. Timing        0.004603 s
    Renormalizing two-electron integrals     ...  Done. Timing        0.001881 s
    Renormalizing Fock matrix elements       ...  Done. Timing        0.004834 s
    Computing <[F, T1]>                      ...  Done. Timing        0.002077 s
    Computing <[F, T2]>                      ...  Done. Timing        0.005851 s
    Computing <[V, T1]>                      ...  Done. Timing        0.006579 s
    Computing <[V, T2]> (C_2)^4              ...  Done. Timing        0.039925 s
    Computing <[V, T2]> C_4 (C_2)^2 HH       ...  Done. Timing        0.009995 s
    Computing <[V, T2]> C_4 (C_2)^2 PP       ...  Done. Timing        0.010113 s
    Computing <[V, T2]> C_4 (C_2)^2 PH       ...  Done. Timing        0.043321 s
    Computing <[V, T2]> C_6 C_2              ...  Done. Timing        0.032951 s

  ==> Excitation Amplitudes Summary <==

    Active Indices:    7    9   11 
    Largest T1 amplitudes for spin case A:
       i       a                  i       a                  i       a               
    --------------------------------------------------------------------------------
    [  9      10    ]-0.042860 [  7       8    ]-0.042860 [ 11      12    ]-0.042860 
    [  0       1    ]-0.000000 
    --------------------------------------------------------------------------------
    Norm of T1A vector: (nonzero elements: 4)                     0.074235549797076.
    --------------------------------------------------------------------------------
    Largest T1 amplitudes for spin case B:
       _       _                  _       _                  _       _               
       i       a                  i       a                  i       a               
    --------------------------------------------------------------------------------
    [  9      10    ]-0.042860 [  7       8    ]-0.042860 [ 11      12    ]-0.042860 
    [  0       1    ]-0.000000 
    --------------------------------------------------------------------------------
    Norm of T1B vector: (nonzero elements: 4)                     0.074235549797076.
    --------------------------------------------------------------------------------
    Largest T2 amplitudes for spin case AA:
       i   j   a   b              i   j   a   b              i   j   a   b           
    --------------------------------------------------------------------------------
    [  7  11   8  11]-0.063940 [  7   9   7  10]-0.063940 [  9  11  10  11]-0.063940 
    [  7   9   8   9]-0.063940 [  7  11   7  12]-0.063940 [  9  11   9  12]-0.063940 
    [  0   7   1   7]-0.051917 [  0  11   1  11]-0.051917 [  0   9   1   9]-0.051917 
    [  7  11   8  12]-0.036068 [  7   9   8  10]-0.036068 [  9  11  10  12]-0.036068 
    [  9  11   2   4] 0.025390 [  7   9   3   6]-0.021988 [  7  11   3   5]-0.021988 
    --------------------------------------------------------------------------------
    Norm of T2AA vector: (nonzero elements: 180)                  0.417490350213496.
    --------------------------------------------------------------------------------
    Largest T2 amplitudes for spin case AB:
           _       _                  _       _                  _       _           
       i   j   a   b              i   j   a   b              i   j   a   b           
    --------------------------------------------------------------------------------
    [  7   7   7   8]-0.077008 [  9   9   9  10]-0.077008 [ 11  11  11  12]-0.077008 
    [  7  11   8  11]-0.068296 [  7   9   7  10]-0.068296 [  9  11  10  11]-0.068296 
    [  7   9   8   9]-0.068296 [  7  11   7  12]-0.068296 [  9  11   9  12]-0.068296 
    [  0   7   1   7]-0.063842 [  0  11   1  11]-0.063842 [  0   9   1   9]-0.063842 
    [  0   0   7   7]-0.062107 [  0   0   9   9]-0.062107 [  0   0  11  11]-0.062107 
    --------------------------------------------------------------------------------
    Norm of T2AB vector: (nonzero elements: 273)                  0.444321774358352.
    --------------------------------------------------------------------------------
    Largest T2 amplitudes for spin case BB:
       _   _   _   _              _   _   _   _              _   _   _   _           
       i   j   a   b              i   j   a   b              i   j   a   b           
    --------------------------------------------------------------------------------
    [  7  11   8  11]-0.063940 [  7   9   7  10]-0.063940 [  9  11  10  11]-0.063940 
    [  7   9   8   9]-0.063940 [  7  11   7  12]-0.063940 [  9  11   9  12]-0.063940 
    [  0   7   1   7]-0.051917 [  0  11   1  11]-0.051917 [  0   9   1   9]-0.051917 
    [  7  11   8  12]-0.036068 [  7   9   8  10]-0.036068 [  9  11  10  12]-0.036068 
    [  9  11   2   4] 0.025390 [  7  11   3   5]-0.021988 [  7   9   3   6]-0.021988 
    --------------------------------------------------------------------------------
    Norm of T2BB vector: (nonzero elements: 180)                  0.417490350213496.
    --------------------------------------------------------------------------------

  ==> Possible Intruders <==

    T1 amplitudes larger than 0.1000 for spin case A: NULL
    T1 amplitudes larger than 0.1000 for spin case B: NULL
    T2 amplitudes larger than 0.1000 for spin case AA: NULL
    T2 amplitudes larger than 0.1000 for spin case AB: NULL
    T2 amplitudes larger than 0.1000 for spin case BB: NULL

  ==> DSRG-MRPT2 Energy Summary <==

    E0 (reference)                 =    -54.388414237010380
    <[F, T1]>                      =     -0.020090921201938
    <[F, T2]>                      =      0.020090921201852
    <[V, T1]>                      =      0.020090921201852
    <[V, T2]> (C_2)^4              =     -0.186820059157970
    <[V, T2]> C_4 (C_2)^2 HH       =      0.008385321713901
    <[V, T2]> C_4 (C_2)^2 PP       =      0.034530069518618
    <[V, T2]> C_4 (C_2)^2 PH       =      0.040534031430606
    <[V, T2]> C_6 C_2              =      0.000000000000000
    <[V, T2]>                      =     -0.103370636494846
    DSRG-MRPT2 correlation energy  =     -0.083279715293080
    DSRG-MRPT2 total energy        =    -54.471693952303461
    max(T1)                        =      0.042859914658782
    max(T2)                        =      0.077008047681596
    ||T1||                         =      0.104984921333248
    ||T2||                         =      1.066903810902648

  Energy took      0.170 s


  ==> De-Normal-Order DSRG Transformed Hamiltonian <==

    Computing the scalar term                ... Done. Timing    0.002 s
    Computing the 1-body term                ... Done. Timing    0.001 s

  ==> Rotate DSRG Transformed Hamiltonian back to Original Basis <==

    Rotating 1-body term to original basis   ... Done. Timing    0.001 s
    Rotating 2-body term to original basis   ... Done. Timing    0.022 s

  ==> Summary of Active Space Solver Input <==

    Irrep.  Multi.(ms)      N
    --------------------------
       Au      4 ( -3)      1
       Au      4 ( -1)      1
       Au      4 (  1)      1
       Au      4 (  3)      1
    --------------------------
    N: number of roots
    ms: twice spin z component
    Total number of roots:   4
    --------------------------


              ---------------------------------------------------
                Complete Active Space Configuration Interaction
                                  Chenyang Li
              ---------------------------------------------------

  Continue to next symmetry block: No need to compute for ms = -3 / 2 < 0.

              ---------------------------------------------------
                Complete Active Space Configuration Interaction
                                  Chenyang Li
              ---------------------------------------------------

  Continue to next symmetry block: No need to compute for ms = -1 / 2 < 0.

              ---------------------------------------------------
                Complete Active Space Configuration Interaction
                                  Chenyang Li
              ---------------------------------------------------

  Forming alpha and beta strings      ...  Done. Timing        0.000033 s
  Forming determinants                ...  Done. Timing        0.000007 s

  ==> Determinants Summary <==

    number of alpha active electrons         =     2
    number of beta active electrons          =     1
    root symmetry (zero based)               =     4
    number of determinants                   =     3

  Diagonalizing Hamiltonian           ...

  ==> Computing Coupling Lists <==
  --------------------------------
        α          0.000020 s
        β          0.000009 s
        αα         0.000015 s
        ββ         0.000003 s
        αβ         0.000016 s
  --------------------------------

  Davidson-Liu solver algorithm using SigmaVectorSparseList sigma algorithm
  Found 2 roots with 2S+1 = 2
  Found 1 roots with 2S+1 = 4 *  Done. Timing        0.000298 s

  * * * * * * * * * * * * * * * * *
  *  CI Vectors & Configurations  *
  * * * * * * * * * * * * * * * * *

  ==> Root No. 0 <==

    a a b         -0.5773502692
    b a a         -0.5773502692
    a b a          0.5773502692

    Total Energy:   -54.471693952303447



  ==> Permanent Dipole Moments (Au) <==

  Only print nonzero (> 1.0e-5) elements.


              ---------------------------------------------------
                Complete Active Space Configuration Interaction
                                  Chenyang Li
              ---------------------------------------------------

  Forming alpha and beta strings      ...  Done. Timing        0.000022 s
  Forming determinants                ...  Done. Timing        0.000005 s

  ==> Determinants Summary <==

    number of alpha active electrons         =     3
    number of beta active electrons          =     0
    root symmetry (zero based)               =     4
    number of determinants                   =     1

  Diagonalizing Hamiltonian           ...

  ==> Computing Coupling Lists <==
  --------------------------------
        α          0.000011 s
        β          0.000001 s
        αα         0.000012 s
        ββ         0.000001 s
        αβ         0.000001 s
  --------------------------------

  Davidson-Liu solver algorithm using SigmaVectorSparseList sigma algorithm
  Found 1 roots with 2S+1 = 4 *  Done. Timing        0.000169 s

  * * * * * * * * * * * * * * * * *
  *  CI Vectors & Configurations  *
  * * * * * * * * * * * * * * * * *

  ==> Root No. 0 <==

    a a a          1.0000000000

    Total Energy:   -54.471693952303475



  ==> Permanent Dipole Moments (Au) <==

  Only print nonzero (> 1.0e-5) elements.


  ==> Energy Summary <==

    Multi.(ms)  Irrep.  No.               Energy
    ---------------------------------------------
       4  ( 1)    Au     0       -54.471693952303
    ---------------------------------------------
       4  ( 3)    Au     0       -54.471693952303
    ---------------------------------------------

  => DSRG-MRPT2 Reference Relaxation Energy Summary <=

                         Fixed Ref. (a.u.)              Relaxed Ref. (a.u.)
           -------------------------------  -------------------------------
    Iter.          Total Energy      Delta          Total Energy      Delta
    -----------------------------------------------------------------------
        1      -54.471693952303 -5.447e+01      -54.471693952303 -5.447e+01
    -----------------------------------------------------------------------

  ==> Total Timings (s) for Computing Commutators <==

             [H1, T1]    [H1, T2]    [H2, T1]    [H2, T2]
    -----------------------------------------------------
    -> C0       0.002       0.006       0.007       0.136
    -> C1       0.002       0.015       0.012       0.228
    -> C2                   0.013       0.011       0.085
    -----------------------------------------------------


  Time to prepare integrals: 0.09989595413208008 seconds
  Time to run job          : 0.5863029956817627 seconds
  Total                    : 0.5863029956817627 seconds    DSRG-MRPT2 relaxed energy of N atom...............................PASSED
    Size consistency error: E_N2 - 2 * E_N............................PASSED

    Psi4 stopped on: Thursday, 27 February 2020 03:50AM
    Psi4 wall time for execution: 0:00:03.20

*** Psi4 exiting successfully. Buy a developer a beer!
