
    -----------------------------------------------------------------------
          Psi4: An Open-Source Ab Initio Electronic Structure Package
                               Psi4 undefined 

                         Git: Rev {master} 8abcaf3 


    D. G. A. Smith, L. A. Burns, A. C. Simmonett, R. M. Parrish,
    M. C. Schieber, R. Galvelis, P. Kraus, H. Kruse, R. Di Remigio,
    A. Alenaizan, A. M. James, S. Lehtola, J. P. Misiewicz, M. Scheurer,
    R. A. Shaw, J. B. Schriber, Y. Xie, Z. L. Glick, D. A. Sirianni,
    J. S. O'Brien, J. M. Waldrop, A. Kumar, E. G. Hohenstein,
    B. P. Pritchard, B. R. Brooks, H. F. Schaefer III, A. Yu. Sokolov,
    K. Patkowski, A. E. DePrince III, U. Bozkaya, R. A. King,
    F. A. Evangelista, J. M. Turney, T. D. Crawford, C. D. Sherrill,
    J. Chem. Phys. 152(18) 184108 (2020). https://doi.org/10.1063/5.0006002

                            Additional Code Authors
    E. T. Seidl, C. L. Janssen, E. F. Valeev, M. L. Leininger,
    J. F. Gonthier, R. M. Richard, H. R. McAlexander, M. Saitow, X. Wang,
    P. Verma, and M. H. Lechner

             Previous Authors, Complete List of Code Contributors,
                       and Citations for Specific Modules
    https://github.com/psi4/psi4/blob/master/codemeta.json
    https://github.com/psi4/psi4/graphs/contributors
    http://psicode.org/psi4manual/master/introduction.html#citing-psifour

    -----------------------------------------------------------------------


    Psi4 started on: Thursday, 30 July 2020 09:50AM

    Process ID: 30185
    Host:       CHE-FEVANGE-01I (2)
    PSIDATADIR: /Users/fevange/Source/psi4/objdir-Debug/stage/share/psi4
    Memory:     500.0 MiB
    Threads:    1
    
  ==> Input File <==

--------------------------------------------------------------------------
import forte

molecule HF{
         F            0.000000000000     0.000000000000    -0.046381013528
         H            0.000000000000     0.000000000000     0.874323583870
}

set globals{
  basis                    cc-pvdz
  reference                rhf
  d_convergence            12
  e_convergence            15
  restricted_docc          [2,0,1,1]
  active                   [2,0,0,0]
  maxiter                  100
}

set forte{
  active_space_solver      fci
  correlation_solver       dsrg-mrpt2
  ref_type                 casscf
  frozen_docc              [1,0,0,0]
  restricted_docc          [1,0,1,1]
  active                   [2,0,0,0]
  root_sym                 0
  nroot                    1
  dsrg_s                   0.5
  active_space_solver      fci 
}

ecas,ref = energy('casscf',return_wfn=True)
E = energy('forte',ref_wfn=ref)
--------------------------------------------------------------------------

Scratch directory: /tmp/

*** tstart() called on CHE-FEVANGE-01I (2)
*** at Thu Jul 30 09:50:53 2020

   => Loading Basis Set <=

    Name: CC-PVDZ
    Role: ORBITAL
    Keyword: BASIS
    atoms 1 entry F          line   228 file /Users/fevange/Source/psi4/objdir-Debug/stage/share/psi4/basis/cc-pvdz.gbs 
    atoms 2 entry H          line    22 file /Users/fevange/Source/psi4/objdir-Debug/stage/share/psi4/basis/cc-pvdz.gbs 


         ---------------------------------------------------------
                                   SCF
               by Justin Turney, Rob Parrish, Andy Simmonett
                          and Daniel G. A. Smith
                              RHF Reference
                        1 Threads,    500 MiB Core
         ---------------------------------------------------------

  ==> Geometry <==

    Molecular point group: c2v
    Full point group: C_inf_v

    Geometry (in Angstrom), charge = 0, multiplicity = 1:

       Center              X                  Y                   Z               Mass       
    ------------   -----------------  -----------------  -----------------  -----------------
         F            0.000000000000     0.000000000000    -0.046381013528    18.998403162730
         H            0.000000000000     0.000000000000     0.874323583870     1.007825032230

  Running in c2v symmetry.

  Rotational constants: A = ************  B =     20.77872  C =     20.77872 [cm^-1]
  Rotational constants: A = ************  B = 622930.43972  C = 622930.43972 [MHz]
  Nuclear repulsion =    5.172771928683264

  Charge       = 0
  Multiplicity = 1
  Electrons    = 10
  Nalpha       = 5
  Nbeta        = 5

  ==> Algorithm <==

  SCF Algorithm Type is DF.
  DIIS enabled.
  MOM disabled.
  Fractional occupation disabled.
  Guess Type is SAD.
  Energy threshold   = 1.00e-15
  Density threshold  = 1.00e-12
  Integral threshold = 0.00e+00

  ==> Primary Basis <==

  Basis Set: CC-PVDZ
    Blend: CC-PVDZ
    Number of shells: 9
    Number of basis function: 19
    Number of Cartesian functions: 20
    Spherical Harmonics?: true
    Max angular momentum: 2

   => Loading Basis Set <=

    Name: (CC-PVDZ AUX)
    Role: JKFIT
    Keyword: DF_BASIS_SCF
    atoms 1 entry F          line   271 file /Users/fevange/Source/psi4/objdir-Debug/stage/share/psi4/basis/cc-pvdz-jkfit.gbs 
    atoms 2 entry H          line    51 file /Users/fevange/Source/psi4/objdir-Debug/stage/share/psi4/basis/cc-pvdz-jkfit.gbs 

  ==> Integral Setup <==

  DFHelper Memory: AOs need 0.000 GiB; user supplied 0.366 GiB. Using in-core AOs.

  ==> MemDFJK: Density-Fitted J/K Matrices <==

    J tasked:                   Yes
    K tasked:                   Yes
    wK tasked:                   No
    OpenMP threads:               1
    Memory [MiB]:               375
    Algorithm:                 Core
    Schwarz Cutoff:           1E-12
    Mask sparsity (%):       0.0000
    Fitting Condition:        1E-10

   => Auxiliary Basis Set <=

  Basis Set: (CC-PVDZ AUX)
    Blend: CC-PVDZ-JKFIT
    Number of shells: 33
    Number of basis function: 93
    Number of Cartesian functions: 106
    Spherical Harmonics?: true
    Max angular momentum: 3

  Minimum eigenvalue in the overlap matrix is 4.9592636764E-02.
  Reciprocal condition number of the overlap matrix is 1.7278072360E-02.
    Using symmetric orthogonalization.

  ==> Pre-Iterations <==

  SCF Guess: Superposition of Atomic Densities via on-the-fly atomic UHF (no occupation information).

   -------------------------
    Irrep   Nso     Nmo    
   -------------------------
     A1        10      10 
     A2         1       1 
     B1         4       4 
     B2         4       4 
   -------------------------
    Total      19      19
   -------------------------

  ==> Iterations <==

                           Total Energy        Delta E     RMS |[F,P]|

   @DF-RHF iter SAD:   -99.61456112650028   -9.96146e+01   0.00000e+00 
   @DF-RHF iter   1:   -99.98201122792194   -3.67450e-01   2.70412e-02 DIIS
   @DF-RHF iter   2:  -100.01088602186243   -2.88748e-02   1.47734e-02 DIIS
   @DF-RHF iter   3:  -100.01901199417310   -8.12597e-03   1.49797e-03 DIIS
   @DF-RHF iter   4:  -100.01922721952587   -2.15225e-04   4.20792e-04 DIIS
   @DF-RHF iter   5:  -100.01924571984792   -1.85003e-05   7.88614e-05 DIIS
   @DF-RHF iter   6:  -100.01924659100179   -8.71154e-07   8.59546e-06 DIIS
   @DF-RHF iter   7:  -100.01924660077486   -9.77307e-09   6.08340e-07 DIIS
   @DF-RHF iter   8:  -100.01924660080836   -3.34950e-11   6.49821e-08 DIIS
   @DF-RHF iter   9:  -100.01924660080857   -2.13163e-13   6.21001e-09 DIIS
   @DF-RHF iter  10:  -100.01924660080859   -1.42109e-14   6.35819e-10 DIIS
   @DF-RHF iter  11:  -100.01924660080846    1.27898e-13   5.71307e-11 DIIS
   @DF-RHF iter  12:  -100.01924660080860   -1.42109e-13   1.44293e-12 DIIS
   @DF-RHF iter  13:  -100.01924660080857    2.84217e-14   2.44652e-13 DIIS
   @DF-RHF iter  14:  -100.01924660080866   -8.52651e-14   3.67101e-14 DIIS
   @DF-RHF iter  15:  -100.01924660080860    5.68434e-14   1.14801e-14 DIIS
   @DF-RHF iter  16:  -100.01924660080851    8.52651e-14   5.68239e-15 DIIS
   @DF-RHF iter  17:  -100.01924660080860   -8.52651e-14   3.65592e-15 DIIS
   @DF-RHF iter  18:  -100.01924660080856    4.26326e-14   3.49670e-15 DIIS
   @DF-RHF iter  19:  -100.01924660080851    4.26326e-14   3.65030e-15 DIIS
   @DF-RHF iter  20:  -100.01924660080853   -1.42109e-14   3.19583e-15 DIIS
   @DF-RHF iter  21:  -100.01924660080857   -4.26326e-14   3.20334e-15 DIIS
   @DF-RHF iter  22:  -100.01924660080856    1.42109e-14   3.57434e-15 DIIS
   @DF-RHF iter  23:  -100.01924660080860   -4.26326e-14   3.76172e-15 DIIS
   @DF-RHF iter  24:  -100.01924660080861   -1.42109e-14   4.61123e-15 DIIS
   @DF-RHF iter  25:  -100.01924660080860    1.42109e-14   3.32942e-15 DIIS
   @DF-RHF iter  26:  -100.01924660080857    2.84217e-14   3.80694e-15 DIIS
   @DF-RHF iter  27:  -100.01924660080863   -5.68434e-14   3.16052e-15 DIIS
   @DF-RHF iter  28:  -100.01924660080864   -1.42109e-14   3.18976e-15 DIIS
   @DF-RHF iter  29:  -100.01924660080854    9.94760e-14   3.72643e-15 DIIS
   @DF-RHF iter  30:  -100.01924660080863   -8.52651e-14   3.21807e-15 DIIS
   @DF-RHF iter  31:  -100.01924660080860    2.84217e-14   3.16819e-15 DIIS
   @DF-RHF iter  32:  -100.01924660080854    5.68434e-14   2.90845e-15 DIIS
   @DF-RHF iter  33:  -100.01924660080854    0.00000e+00   3.35576e-15 DIIS
  Energy and wave function converged.


  ==> Post-Iterations <==

    Orbital Energies [Eh]
    ---------------------

    Doubly Occupied:                                                      

       1A1   -26.278196     2A1    -1.582152     3A1    -0.745722  
       1B2    -0.628518     1B1    -0.628518  

    Virtual:                                                              

       4A1     0.183050     5A1     0.806414     2B2     1.410792  
       2B1     1.410792     6A1     1.417034     3B1     1.605106  
       3B2     1.605106     7A1     2.134626     8A1     2.488931  
       9A1     4.005172     1A2     4.005172     4B2     4.277398  
       4B1     4.277398    10A1     5.051229  

    Final Occupation by Irrep:
             A1    A2    B1    B2 
    DOCC [     3,    0,    1,    1 ]

  @DF-RHF Final Energy:  -100.01924660080854

   => Energetics <=

    Nuclear Repulsion Energy =              5.1727719286832636
    One-Electron Energy =                -150.6578246726853365
    Two-Electron Energy =                  45.4658061431935394
    Total Energy =                       -100.0192466008085432

Computation Completed


Properties will be evaluated at   0.000000,   0.000000,   0.000000 [a0]

Properties computed using the SCF density matrix

  Nuclear Dipole Moment: [e a0]
     X:     0.0000      Y:     0.0000      Z:     0.8634

  Electronic Dipole Moment: [e a0]
     X:     0.0000      Y:     0.0000      Z:    -0.0933

  Dipole Moment: [e a0]
     X:     0.0000      Y:     0.0000      Z:     0.7701     Total:     0.7701

  Dipole Moment: [D]
     X:     0.0000      Y:     0.0000      Z:     1.9573     Total:     1.9573


*** tstop() called on CHE-FEVANGE-01I (2) at Thu Jul 30 09:50:54 2020
Module time:
	user time   =       0.81 seconds =       0.01 minutes
	system time =       0.03 seconds =       0.00 minutes
	total time  =          1 seconds =       0.02 minutes
Total time:
	user time   =       0.81 seconds =       0.01 minutes
	system time =       0.03 seconds =       0.00 minutes
	total time  =          1 seconds =       0.02 minutes
 MINTS: Wrapper to libmints.
   by Justin Turney

   Calculation information:
      Number of threads:                 1
      Number of atoms:                   2
      Number of AO shells:               9
      Number of SO shells:               9
      Number of primitives:             27
      Number of atomic orbitals:        20
      Number of basis functions:        19

      Number of irreps:                  4
      Integral cutoff                 1.00e-12
      Number of functions per irrep: [  10    1    4    4 ]

 OEINTS: Overlap, kinetic, potential, dipole, and quadrupole integrals
         stored in file 35.

      Computing two-electron integrals...done
      Computed 4125 non-zero two-electron integrals.
        Stored in file 33.

 MINTS: Wrapper to libmints.
   by Justin Turney

   Calculation information:
      Number of threads:                 1
      Number of atoms:                   2
      Number of AO shells:               9
      Number of SO shells:               9
      Number of primitives:             27
      Number of atomic orbitals:        20
      Number of basis functions:        19

      Number of irreps:                  4
      Integral cutoff                 1.00e-12
      Number of functions per irrep: [  10    1    4    4 ]

 OEINTS: Overlap, kinetic, potential, dipole, and quadrupole integrals
         stored in file 35.

      Computing two-electron integrals...done
      Computed 4125 non-zero two-electron integrals.
        Stored in file 33.


         ---------------------------------------------------------
                Multi-Configurational Self-Consistent Field
                            (a 'D E T C I' module)

                 Daniel G. A. Smith, C. David Sherrill, and
                              Matt L. Leininger
         ---------------------------------------------------------


   ==> Parameters <==

    EX LEVEL       =        2      H0 BLOCKSIZE  =     1000
    VAL EX LEVEL   =        0      H0 GUESS SIZE =     1000
    H0COUPLINGSIZE =        0      H0 COUPLING   =       NO
    MAXITER        =       12      NUM PRINT     =       20
    NUM ROOTS      =        1      ICORE         =        1
    PRINT LVL      =        1      FCI           =      YES
    R CONV         = 1.00e-07      MIXED         =      YES
    E CONV         = 1.00e-15      MIXED4        =      YES
    R4S            =       NO      REPL OTF      =       NO
    DIAG METHOD    =      SEM      FOLLOW ROOT   =        0
    PRECONDITIONER = DAVIDSON      UPDATE        = DAVIDSON
    S              =   0.0000      Ms0           =      YES
    GUESS VECTOR   =  H0BLOCK      OPENTYPE      =     NONE
    COLLAPSE SIZE  =        1      HD AVG        = EVANGELISTI
    MAX NUM VECS   =       13      REF SYM       =     AUTO
    IOPEN        =       NO

    EX ALLOW       =  1  1 
    STATE AVERAGE  =  0(1.00) 

   ==> CI Orbital and Space information <==

   ------------------------------------------------------
               Space    Total    A1    A2    B1    B2
   ------------------------------------------------------
                 Nso       19    10     1     4     4
                 Nmo       19    10     1     4     4
               Ndocc        5     3     0     1     1
               Nsocc        0     0     0     0     0
   ------------------------------------------------------
                        MCSCF Spaces
   ------------------------------------------------------
         Frozen DOCC        0     0     0     0     0
     Restricted DOCC        4     2     0     1     1
              Active        2     2     0     0     0
     Restricted UOCC       13     6     1     3     3
         Frozen UOCC        0     0     0     0     0
   ------------------------------------------------------

   ==> Setting up CI strings <==

    There are 2 alpha and 2 beta strings
    The CI space requires 4 (4.00E+00) determinants and 1 blocks

   ==> Setting up MCSCF integrals <==

  Using in-core PK algorithm.
   Calculation information:
      Number of atoms:                   2
      Number of AO shells:               9
      Number of primitives:             27
      Number of atomic orbitals:        20
      Number of basis functions:        19

      Integral cutoff                 1.00e-12
      Number of threads:                 1

  Performing in-core PK
  Using 36290 doubles for integral storage.
  We computed 1035 shell quartets total.
  Whereas there are 1035 unique shell quartets.

  ==> DiskJK: Disk-Based J/K Matrices <==

    J tasked:                  Yes
    K tasked:                  Yes
    wK tasked:                  No
    Memory [MiB]:              400
    Schwarz Cutoff:          1E-12

    OpenMP threads:              1


   ==> Starting MCSCF iterations <==

        Iter         Total Energy       Delta E   Orb RMS    CI RMS  NCI NORB
   @MCSCF  1:   -100.020252752569   -1.0062e-03  1.73e-03  8.43e-14    1    1  Initial CI
      Warning! Maxstep = 0.92, scaling to 0.50
   @MCSCF  2:   -100.034387552380   -1.4135e-02  1.33e-02  1.35e-14    3    1  TS
   @MCSCF  3:   -100.041860774627   -7.4732e-03  6.45e-03  2.05e-14    2    1  TS
   @MCSCF  4:   -100.042739038530   -8.7826e-04  1.96e-03  1.84e-14    2    1  TS, DIIS
   @MCSCF  5:   -100.042897046040   -1.5801e-04  7.98e-04  1.34e-14    2    1  TS, DIIS
   @MCSCF  6:   -100.042954307278   -5.7261e-05  5.55e-04  1.25e-14    2    1  TS, DIIS
   @MCSCF  7:   -100.042965785282   -1.1478e-05  2.95e-04  1.37e-14    2    1  TS, DIIS
   @MCSCF  8:   -100.042970134215   -4.3489e-06  7.01e-05  1.61e-14    2    1  TS, DIIS
   @MCSCF  9:   -100.042970243910   -1.0970e-07  2.01e-05  1.16e-14    2    1  TS, DIIS
   @MCSCF 10:   -100.042970250403   -6.4930e-09  8.37e-06  5.55e-15    2    1  TS, DIIS

          @MCSCF has converged!

   @MCSCF Final Energy: -100.042970250403329

   Computing CI Semicanonical Orbitals

   ==> Energetics <==

    SCF energy =         -100.019246600808543
    Total MCSCF energy = -100.042970250403329

   ==> MCSCF root 0 information <==

    MCSCF Root 0 energy =  -100.042970250403343

   Active Space Natural occupation numbers:

        A1   1.979085        A1   0.020915

   The 4 most important determinants:

    *   1   -0.994740  (    0,    0)  3A1X 
    *   2    0.102244  (    1,    1)  4A1X 
    *   3   -0.004447  (    0,    1)  3A1A 4A1B 
    *   4   -0.004447  (    1,    0)  3A1B 4A1A 



Properties will be evaluated at   0.000000,   0.000000,   0.000000 [a0]

Properties computed using the CASSCF density matrix

  Nuclear Dipole Moment: [e a0]
     X:     0.0000      Y:     0.0000      Z:     0.8634

  Electronic Dipole Moment: [e a0]
     X:     0.0000      Y:     0.0000      Z:    -0.1414

  Dipole Moment: [e a0]
     X:     0.0000      Y:     0.0000      Z:     0.7221     Total:     0.7221

  Dipole Moment: [D]
     X:     0.0000      Y:     0.0000      Z:     1.8353     Total:     1.8353


Scratch directory: /tmp/

  Forte
  ----------------------------------------------------------------------------
  A suite of quantum chemistry methods for strongly correlated electrons

    git branch: master - git commit: f19bbc59

  Developed by:
    Francesco A. Evangelista, Chenyang Li, Kevin P. Hannon,
    Jeffrey B. Schriber, Tianyuan Zhang, Chenxi Cai,
    Nan He, Nicholas Stair, Shuhe Wang, Renke Huang
  ----------------------------------------------------------------------------

  Size of Determinant class: 256 bits
  Preparing forte objects from a psi4 Wavefunction object   => Loading Basis Set <=

    Name: STO-3G
    Role: ORBITAL
    Keyword: MINAO_BASIS
    atoms 1 entry F          line    91 file /Users/fevange/Source/psi4/objdir-Debug/stage/share/psi4/basis/sto-3g.gbs 
    atoms 2 entry H          line    19 file /Users/fevange/Source/psi4/objdir-Debug/stage/share/psi4/basis/sto-3g.gbs 


  Read options for space FROZEN_DOCC
  Read options for space RESTRICTED_DOCC
  Read options for space ACTIVE

  ==> MO Space Information <==

  -------------------------------------------------
                       A1    A2    B1    B2   Sum
  -------------------------------------------------
    FROZEN_DOCC         1     0     0     0     1
    RESTRICTED_DOCC     1     0     1     1     3
    ACTIVE              2     0     0     0     2
    RESTRICTED_UOCC     6     1     3     3    13
    FROZEN_UOCC         0     0     0     0     0
    Total              10     1     4     4    19
  -------------------------------------------------
  Forte will use psi4 integrals

  ==> Integral Transformation <==

  Number of molecular orbitals:                    19
  Number of correlated molecular orbitals:         18
  Number of frozen occupied orbitals:               1
  Number of frozen unoccupied orbitals:             0
  Two-electron integral type:              Conventional


  Overall Conventional Integrals timings


  Computing Conventional Integrals	Presorting SO-basis two-electron integrals.
	Sorting File: SO Ints (nn|nn) nbuckets = 1
	Transforming the one-electron integrals and constructing Fock matrices
	Starting first half-transformation.
	Sorting half-transformed integrals.
	First half integral transformation complete.
	Starting second half-transformation.
	Two-electron integral transformation complete.

  Integral transformation done. 0.04523293 s
  Reading the two-electron integrals from disk
  Size of two-electron integrals:   0.002913 GB
  Timing for conventional integral transformation:            0.189 s.
  Building frozen-core operator using PK integrals
  Using in-core PK algorithm.
   Calculation information:
      Number of atoms:                   2
      Number of AO shells:               9
      Number of primitives:             27
      Number of atomic orbitals:        20
      Number of basis functions:        19

      Integral cutoff                 1.00e-12
      Number of threads:                 1

  Performing in-core PK
  Using 36290 doubles for integral storage.
  We computed 1035 shell quartets total.
  Whereas there are 1035 unique shell quartets.


  Frozen-core energy            -76.626948558298 a.u.
  Timing for frozen one-body operator:                        0.157 s.
  Resorting integrals after freezing core.
  Timing for freezing core and virtual orbitals:              0.182 s.
  Conventional integrals take 0.37165198 s

  ==> Summary of Active Space Solver Input <==

    Irrep.  Multi.(2ms)      N
    --------------------------
       A1      1  (  0)      1
    --------------------------
    N: number of roots
    ms: spin z component
    Total number of roots:   1
    --------------------------


  ==> String Lists <==

  Number of alpha electrons     = 1
  Number of beta electrons      = 1
  Number of alpha strings       = 2
  Number of beta strings        = 2
  Timing for strings        =      0.000 s
  Timing for NN strings     =      0.000 s
  Timing for VO strings     =      0.000 s
  Timing for OO strings     =      0.000 s
  Timing for VVOO strings   =      0.000 s
  Timing for VOVO strings   =      0.000 s
  Timing for 1-hole strings =      0.000 s
  Timing for 2-hole strings =      0.000 s
  Timing for 3-hole strings =      0.000 s
  Total timing              =      0.000 s

  ==> FCI Solver <==

    Number of determinants                           4
    Symmetry                                         0
    Multiplicity                                     1
    Number of roots                                  1
    Target root                                      0
    Trial vectors per root                          10

  Allocating memory for the Hamiltonian algorithm. Size: 2 x 2 x 2.   Memory: 0.000000 GB

  ==> FCI Initial Guess <==

  ---------------------------------------------
    Root            Energy     <S^2>   Spin
  ---------------------------------------------
      0     -100.042970250403  0.000  singlet
      1      -99.161086815571  2.000  triplet
      2      -98.700007579596  0.000  singlet
      3      -97.731605914318  0.000  singlet
  ---------------------------------------------
  Timing for initial guess  =      0.000 s

  Projecting out root 1

  ==> Diagonalizing Hamiltonian <==

  Energy   convergence: 1.00e-15
  Residual convergence: 1.00e-06
  -----------------------------------------------------
    Iter.      Avg. Energy       Delta_E     Res. Norm
  -----------------------------------------------------
      1     -100.042970250403  -1.000e+02  +2.924e-14
      2     -100.042970250403  +0.000e+00  +2.924e-14
  -----------------------------------------------------
  The Davidson-Liu algorithm converged in 3 iterations.

  ==> Root No. 0 <==

    20      0.99473951
    02     -0.10224356

    Total Energy:      -100.042970250403343

  ==> Energy Summary <==

    Multi.(2ms)  Irrep.  No.               Energy
    ---------------------------------------------
       1  (  0)    A1     0     -100.042970250403
    ---------------------------------------------

  ==> Computing RDMs for Root No. 0 <==

    Timing for 1-RDM: 0.000 s
    Timing for 2-RDM: 0.000 s
    Timing for 3-RDM: 0.000 s

  ==> NATURAL ORBITALS <==

        1A1     1.979085      2A1     0.020915  


       -----------------------------------------------------------------
                            Semi-Canonical Orbitals
         Chenyang Li, Jeffrey B. Schriber and Francesco A. Evangelista
       -----------------------------------------------------------------

  Took 0.000372 s to build Fock matrix

  ==> Checking Fock Matrix Diagonal Blocks <==

    Off-Diag. Elements       Max           2-Norm
    ------------------------------------------------
    Fa actv              0.0000000000   0.0000000000
    Fb actv              0.0000000000   0.0000000000
    ------------------------------------------------
    Fa core              0.0000000000   0.0000000000
    Fb core              0.0000000000   0.0000000000
    ------------------------------------------------
    Fa virt              0.0000000000   0.0000000000
    Fb virt              0.0000000000   0.0000000000
    ------------------------------------------------
  Orbitals are already semicanonicalized.

  ==> Multireference Driven Similarity Renormalization Group <==

    Reading DSRG options ............................ Done
    Setting ambit MO space .......................... Done
    Preparing tensors for density cumulants ......... Done
    Building Fock matrix ............................ Done

              ----------------------------------------------------
                    MR-DSRG Second-Order Perturbation Theory
                Chenyang Li, Kevin Hannon, Francesco Evangelista
              ----------------------------------------------------

    References:
      u-DSRG-MRPT2:    J. Chem. Theory Comput. 2015, 11, 2097.
      (pr-)DSRG-MRPT2: J. Chem. Phys. 2017, 146, 124132.

  ==> Calculation Information <==

    ntamp                                                 15
    flow parameter                                 5.000e-01
    taylor expansion threshold                     1.000e-03
    intruder_tamp                                  1.000e-01
    int_type                                    CONVENTIONAL
    source operator                                 STANDARD
    reference relaxation                                NONE
    state_type                                STATE-SPECIFIC
    form Hbar3                                         FALSE

  ==> Checking Semicanonical Orbitals <==

    Abs. max of Fock core, active, virtual blocks (Fij, i != j)
                  core          active         virtual
    --------------------------------------------------
    Fα    0.0000000000    0.0000000000    0.0000000000
    Fβ    0.0000000000    0.0000000000    0.0000000000
    --------------------------------------------------

    1-Norm of Fock core, active, virtual blocks (Fij, i != j)
                  core          active         virtual
    --------------------------------------------------
    Fα    0.0000000000    0.0000000000    0.0000000000
    Fβ    0.0000000000    0.0000000000    0.0000000000
    --------------------------------------------------

    Orbitals are semi-canonicalized.

  ==> Computing DSRG-MRPT2 ... <==

    Computing T2 amplitudes                  ...  Done. Timing        0.003429 s
    Computing T1 amplitudes                  ...  Done. Timing        0.030458 s
    Renormalizing two-electron integrals     ...  Done. Timing        0.002378 s
    Renormalizing Fock matrix elements       ...  Done. Timing        0.014013 s
    Computing <[F, T1]>                      ...  Done. Timing        0.001581 s
    Computing <[F, T2]>                      ...  Done. Timing        0.009166 s
    Computing <[V, T1]>                      ...  Done. Timing        0.009899 s
    Computing <[V, T2]> (C_2)^4              ...  Done. Timing        0.067437 s
    Computing <[V, T2]> C_4 (C_2)^2 HH       ...  Done. Timing        0.013139 s
    Computing <[V, T2]> C_4 (C_2)^2 PP       ...  Done. Timing        0.014765 s
    Computing <[V, T2]> C_4 (C_2)^2 PH       ...  Done. Timing        0.064576 s
    Computing <[V, T2]> C_6 C_2              ...  Done. Timing        0.103414 s

  ==> Excitation Amplitudes Summary <==

    Active Indices:    1    2 
    Largest T1 amplitudes for spin case A:
       i       a                  i       a                  i       a               
    --------------------------------------------------------------------------------
    [  2       6    ]-0.194558 [  2       5    ] 0.104484 [  0       1    ]-0.081442 
    [  2       8    ] 0.080129 [  2       3    ] 0.057946 [  2       4    ] 0.050857 
    [  1       4    ]-0.004702 [  1       6    ] 0.003376 [  1       5    ]-0.002710 
    [  0       2    ]-0.000886 [  1       3    ]-0.000133 [  1       8    ]-0.000123 
    [ 14      15    ]-0.000071 [ 10      11    ]-0.000071 [  0       5    ]-0.000066 
    --------------------------------------------------------------------------------
    Norm of T1A vector: (nonzero elements: 23)                    0.260401554572151.
    --------------------------------------------------------------------------------
    Largest T1 amplitudes for spin case B:
       _       _                  _       _                  _       _               
       i       a                  i       a                  i       a               
    --------------------------------------------------------------------------------
    [  2       6    ]-0.194558 [  2       5    ] 0.104484 [  0       1    ]-0.081442 
    [  2       8    ] 0.080129 [  2       3    ] 0.057946 [  2       4    ] 0.050857 
    [  1       4    ]-0.004702 [  1       6    ] 0.003376 [  1       5    ]-0.002710 
    [  0       2    ]-0.000886 [  1       3    ]-0.000133 [  1       8    ]-0.000123 
    [ 14      15    ]-0.000071 [ 10      11    ]-0.000071 [  0       5    ]-0.000066 
    --------------------------------------------------------------------------------
    Norm of T1B vector: (nonzero elements: 23)                    0.260401554572152.
    --------------------------------------------------------------------------------
    Largest T2 amplitudes for spin case AA:
       i   j   a   b              i   j   a   b              i   j   a   b           
    --------------------------------------------------------------------------------
    [  1  10   1  11]-0.062591 [  1  14   1  15]-0.062591 [  2  10   2  11]-0.053020 
    [  2  14   2  15]-0.053020 [  2  10   2  12]-0.041771 [  2  14   2  16]-0.041771 
    [  1   2   2   6] 0.034728 [  1  10   1  12]-0.032965 [  1  14   1  16]-0.032965 
    [  0   1   1   4] 0.032426 [  1  10   2  11] 0.031264 [  1  14   2  15] 0.031264 
    [  1   2   1   6]-0.028884 [  1   2   1   5] 0.026959 [ 10  14  11  15]-0.026870 
    --------------------------------------------------------------------------------
    Norm of T2AA vector: (nonzero elements: 1008)                 0.386750823466787.
    --------------------------------------------------------------------------------
    Largest T2 amplitudes for spin case AB:
           _       _                  _       _                  _       _           
       i   j   a   b              i   j   a   b              i   j   a   b           
    --------------------------------------------------------------------------------
    [  1  10   1  11]-0.060858 [  1  14   1  15]-0.060858 [  2  10   2  11]-0.058671 
    [  2  14   2  15]-0.058671 [  1   1   1   4]-0.056306 [  2  10   2  12]-0.049092 
    [  2  14   2  16]-0.049092 [  0   0   1   1]-0.045998 [  1  10   1  12]-0.045766 
    [  1  14   1  16]-0.045766 [  1   2   1   6]-0.044269 [  2   2   1   4] 0.039681 
    [  1   2   2   4]-0.039605 [ 14  14  15  15]-0.039200 [ 10  10  11  11]-0.039200 
    --------------------------------------------------------------------------------
    Norm of T2AB vector: (nonzero elements: 1487)                 0.399152317458799.
    --------------------------------------------------------------------------------
    Largest T2 amplitudes for spin case BB:
       _   _   _   _              _   _   _   _              _   _   _   _           
       i   j   a   b              i   j   a   b              i   j   a   b           
    --------------------------------------------------------------------------------
    [  1  14   1  15]-0.062591 [  1  10   1  11]-0.062591 [  2  10   2  11]-0.053020 
    [  2  14   2  15]-0.053020 [  2  10   2  12]-0.041771 [  2  14   2  16]-0.041771 
    [  1   2   2   6] 0.034728 [  1  10   1  12]-0.032965 [  1  14   1  16]-0.032965 
    [  0   1   1   4] 0.032426 [  1  14   2  15] 0.031264 [  1  10   2  11] 0.031264 
    [  1   2   1   6]-0.028884 [  1   2   1   5] 0.026959 [ 10  14  11  15]-0.026870 
    --------------------------------------------------------------------------------
    Norm of T2BB vector: (nonzero elements: 1008)                 0.386750823466787.
    --------------------------------------------------------------------------------

  ==> Possible Intruders <==

    T1 amplitudes larger than 0.1000 for spin case A:
        Amplitude         Value                  Denominator              
    ----------------------------------------------------------------------
    [  2       6    ]   -0.19455806 (  0.791797 -   2.369141 =  -1.577344)
    [  2       5    ]    0.10448380 (  0.791797 -   2.104210 =  -1.312413)
    ----------------------------------------------------------------------
    T1 amplitudes larger than 0.1000 for spin case B:
        Amplitude         Value                  Denominator              
    ----------------------------------------------------------------------
    [  2       6    ]   -0.19455806 (  0.791797 -   2.369141 =  -1.577344)
    [  2       5    ]    0.10448380 (  0.791797 -   2.104210 =  -1.312413)
    ----------------------------------------------------------------------
    T2 amplitudes larger than 0.1000 for spin case AA: NULL
    T2 amplitudes larger than 0.1000 for spin case AB: NULL
    T2 amplitudes larger than 0.1000 for spin case BB: NULL

  ==> DSRG-MRPT2 Energy Summary <==

    E0 (reference)                 =   -100.042970250403329
    <[F, T1]>                      =     -0.004319794355605
    <[F, T2]>                      =      0.004461375085448
    <[V, T1]>                      =      0.003736694050355
    <[V, T2]> (C_2)^4              =     -0.191964049396382
    <[V, T2]> C_4 (C_2)^2 HH       =      0.000799072461405
    <[V, T2]> C_4 (C_2)^2 PP       =      0.003426791648987
    <[V, T2]> C_4 (C_2)^2 PH       =      0.009766349246431
    <[V, T2]> C_6 C_2              =     -0.000303718525875
    <[V, T2]>                      =     -0.178275554565433
    DSRG-MRPT2 correlation energy  =     -0.174397279785235
    DSRG-MRPT2 total energy        =   -100.217367530188568
    max(T1)                        =      0.194558058003790
    max(T2)                        =      0.062591095346858
    ||T1||                         =      0.368263410138974
    ||T2||                         =      0.967699689488116

  Energy took      0.349 s


  ==> Total Timings (s) for Computing Commutators <==

             [H1, T1]    [H1, T2]    [H2, T1]    [H2, T2]
    -----------------------------------------------------
    -> C0       0.002       0.009       0.010       0.264
    -> C1       0.000       0.000       0.000       0.000
    -> C2                   0.000       0.000       0.000
    -----------------------------------------------------


  Time to prepare integrals:        0.390 seconds
  Time to run job          :        0.395 seconds
  Total                    :        0.395 seconds
    Psi4 stopped on: Thursday, 30 July 2020 09:50AM
    Psi4 wall time for execution: 0:00:02.52

*** Psi4 exiting successfully. Buy a developer a beer!
