
    -----------------------------------------------------------------------
          Psi4: An Open-Source Ab Initio Electronic Structure Package
                               Psi4 1.9a1.dev51 

                         Git: Rev {diis_ambit} a5263a6 


    D. G. A. Smith, L. A. Burns, A. C. Simmonett, R. M. Parrish,
    M. C. Schieber, R. Galvelis, P. Kraus, H. Kruse, R. Di Remigio,
    A. Alenaizan, A. M. James, S. Lehtola, J. P. Misiewicz, M. Scheurer,
    R. A. Shaw, J. B. Schriber, Y. Xie, Z. L. Glick, D. A. Sirianni,
    J. S. O'Brien, J. M. Waldrop, A. Kumar, E. G. Hohenstein,
    B. P. Pritchard, B. R. Brooks, H. F. Schaefer III, A. Yu. Sokolov,
    K. Patkowski, A. E. DePrince III, U. Bozkaya, R. A. King,
    F. A. Evangelista, J. M. Turney, T. D. Crawford, C. D. Sherrill,
    J. Chem. Phys. 152(18) 184108 (2020). https://doi.org/10.1063/5.0006002

                            Additional Code Authors
    E. T. Seidl, C. L. Janssen, E. F. Valeev, M. L. Leininger,
    J. F. Gonthier, R. M. Richard, H. R. McAlexander, M. Saitow, X. Wang,
    P. Verma, M. H. Lechner, A. Jiang, S. Behnle, A. G. Heide,
    M. F. Herbst, and D. L. Poole

             Previous Authors, Complete List of Code Contributors,
                       and Citations for Specific Modules
    https://github.com/psi4/psi4/blob/master/codemeta.json
    https://github.com/psi4/psi4/graphs/contributors
    http://psicode.org/psi4manual/master/introduction.html#citing-psifour

    -----------------------------------------------------------------------


    Psi4 started on: Thursday, 14 December 2023 10:53AM

    Process ID: 57660
    Host:       Yorks-Mac.local
    PSIDATADIR: /Users/york/src/psi4new/psi4/share/psi4
    Memory:     500.0 MiB
    Threads:    1
    
  ==> Input File <==

--------------------------------------------------------------------------
#! A test of CASSCF on BeH2 with no symmetry

import forte

refscf       = -15.5049032510
refcasscf     = -15.5107025722

molecule {
  0 1
  Be        0.000000000000     0.000000000000     0.000000000000
  H         0.000000000000     1.390000000000     2.500000000000
  H         0.000000000000    -1.390000000000     2.500000000000
  symmetry c1
  units bohr
  no_reorient
}

set globals {
   scf_type             pk
   mcscf_e_convergence  8
   mcscf_r_convergence  6
   basis                3-21g
   restricted_docc      [2]
   active               [2]
#  restricted_docc      [2,0,0,0]
#  active               [1,0,0,1]
   maxiter              20
   reference            rhf
   mcscf_type           conv
}
ecas_psi4 = energy('casscf')
compare_values(refcasscf, ecas_psi4, 6, "PSI4 CASSCF ENERGY")

set forte{
   job_type             mcscf_two_step
   active_space_solver  fci
   casscf_g_convergence 1e-6
   casscf_e_convergence 1e-8
   restricted_docc      [2]
   active               [2]
#  restricted_docc      [2,0,0,0]
#  active               [1,0,0,1]
}
e_casscf = energy('forte')

compare_values(refcasscf, e_casscf, 6, "FORTE CASSCF ENERGY")
--------------------------------------------------------------------------

Scratch directory: /Users/york/scratch/psi4/
   => Libint2 <=

    Primary   basis highest AM E, G, H:  5, 4, 3
    Auxiliary basis highest AM E, G, H:  6, 5, 4
    Onebody   basis highest AM E, G, H:  6, 5, 4
    Solid Harmonics ordering:            gaussian

*** tstart() called on Yorks-Mac.local
*** at Thu Dec 14 10:53:35 2023

   => Loading Basis Set <=

    Name: 3-21G
    Role: ORBITAL
    Keyword: BASIS
    atoms 1   entry BE         line    46 file /Users/york/src/psi4new/psi4/share/psi4/basis/3-21g.gbs 
    atoms 2-3 entry H          line    21 file /Users/york/src/psi4new/psi4/share/psi4/basis/3-21g.gbs 


         ---------------------------------------------------------
                                   SCF
               by Justin Turney, Rob Parrish, Andy Simmonett
                          and Daniel G. A. Smith
                              RHF Reference
                        1 Threads,    500 MiB Core
         ---------------------------------------------------------

  ==> Geometry <==

    Molecular point group: c1
    Full point group: C2v

    Geometry (in Bohr), charge = 0, multiplicity = 1:

       Center              X                  Y                   Z               Mass       
    ------------   -----------------  -----------------  -----------------  -----------------
         BE           0.000000000000     0.000000000000    -0.456946083786     9.012183065000
         H            0.000000000000     1.390000000000     2.043053916214     1.007825032230
         H            0.000000000000    -1.390000000000     2.043053916214     1.007825032230

  Running in c1 symmetry.

  Rotational constants: A =     15.45786  B =      5.84735  C =      4.24251 [cm^-1]
  Rotational constants: A = 463415.11676  B = 175299.21065  C = 127187.22704 [MHz]
  Nuclear repulsion =    3.156487659063052

  Charge       = 0
  Multiplicity = 1
  Electrons    = 6
  Nalpha       = 3
  Nbeta        = 3

  ==> Algorithm <==

  SCF Algorithm Type is PK.
  DIIS enabled.
  MOM disabled.
  Fractional occupation disabled.
  Guess Type is SAD.
  Energy threshold   = 1.00e-08
  Density threshold  = 1.00e-08
  Integral threshold = 1.00e-12

  ==> Primary Basis <==

  Basis Set: 3-21G
    Blend: 3-21G
    Number of shells: 9
    Number of basis functions: 13
    Number of Cartesian functions: 13
    Spherical Harmonics?: false
    Max angular momentum: 1

  ==> Integral Setup <==

  Using in-core PK algorithm.
   Calculation information:
      Number of atoms:                   3
      Number of AO shells:               9
      Number of primitives:             15
      Number of atomic orbitals:        13
      Number of basis functions:        13

      Integral cutoff                 1.00e-12
      Number of threads:                 1

  Performing in-core PK
  Using 8372 doubles for integral storage.
  We computed 1035 shell quartets total.
  Whereas there are 1035 unique shell quartets.

  ==> DiskJK: Disk-Based J/K Matrices <==

    J tasked:                  Yes
    K tasked:                  Yes
    wK tasked:                  No
    Memory [MiB]:              375
    Schwarz Cutoff:          1E-12

    OpenMP threads:              1

  Minimum eigenvalue in the overlap matrix is 6.9151243551E-02.
  Reciprocal condition number of the overlap matrix is 2.0040661777E-02.
    Using symmetric orthogonalization.

  ==> Pre-Iterations <==

  SCF Guess: Superposition of Atomic Densities via on-the-fly atomic UHF (no occupation information).

   -------------------------
    Irrep   Nso     Nmo    
   -------------------------
     A         13      13 
   -------------------------
    Total      13      13
   -------------------------

  ==> Iterations <==

                        Total Energy        Delta E     RMS |[F,P]|

   @RHF iter SAD:   -15.06179950371552   -1.50618e+01   0.00000e+00 
   @RHF iter   1:   -15.47550888346636   -4.13709e-01   1.05296e-02 DIIS/ADIIS
   @RHF iter   2:   -15.50447398826365   -2.89651e-02   1.47960e-03 DIIS/ADIIS
   @RHF iter   3:   -15.50484397001566   -3.69982e-04   4.06108e-04 DIIS/ADIIS
   @RHF iter   4:   -15.50489999752453   -5.60275e-05   7.69210e-05 DIIS
   @RHF iter   5:   -15.50490304364605   -3.04612e-06   1.83539e-05 DIIS
   @RHF iter   6:   -15.50490324869533   -2.05049e-07   2.53998e-06 DIIS
   @RHF iter   7:   -15.50490325095553   -2.26020e-09   3.85785e-07 DIIS
   @RHF iter   8:   -15.50490325102758   -7.20544e-11   5.81758e-08 DIIS
   @RHF iter   9:   -15.50490325102893   -1.34825e-12   3.37088e-09 DIIS
  Energy and wave function converged.


  ==> Post-Iterations <==

    Orbital Energies [Eh]
    ---------------------

    Doubly Occupied:                                                      

       1A     -4.712251     2A     -0.513669     3A     -0.269844  

    Virtual:                                                              

       4A     -0.022166     5A      0.070636     6A      0.202776  
       7A      0.260895     8A      0.440218     9A      0.450039  
      10A      0.454040    11A      0.541561    12A      1.299903  
      13A      1.513643  

    Final Occupation by Irrep:
              A 
    DOCC [     3 ]
    NA   [     3 ]
    NB   [     3 ]

  @RHF Final Energy:   -15.50490325102893

   => Energetics <=

    Nuclear Repulsion Energy =              3.1564876590630520
    One-Electron Energy =                 -26.3312547319445436
    Two-Electron Energy =                   7.6698638218525588
    Total Energy =                        -15.5049032510289315

Computation Completed


Properties will be evaluated at   0.000000,   0.000000,   0.000000 [a0]

Properties computed using the SCF density matrix


 Multipole Moments:

 ------------------------------------------------------------------------------------
     Multipole            Electronic (a.u.)      Nuclear  (a.u.)        Total (a.u.)
 ------------------------------------------------------------------------------------

 L = 1.  Multiply by 2.5417464519 to convert [e a0] to [Debye]
 Dipole X            :          0.0000000            0.0000000            0.0000000
 Dipole Y            :         -0.0000000            0.0000000           -0.0000000
 Dipole Z            :         -3.8059449            2.2583235           -1.5476214
 Magnitude           :                                                    1.5476214

 ------------------------------------------------------------------------------------

*** tstop() called on Yorks-Mac.local at Thu Dec 14 10:53:36 2023
Module time:
	user time   =       0.70 seconds =       0.01 minutes
	system time =       0.08 seconds =       0.00 minutes
	total time  =          1 seconds =       0.02 minutes
Total time:
	user time   =       0.70 seconds =       0.01 minutes
	system time =       0.08 seconds =       0.00 minutes
	total time  =          1 seconds =       0.02 minutes
 MINTS: Wrapper to libmints.
   by Justin Turney

   Calculation information:
      Number of threads:                 1
      Number of atoms:                   3
      Number of AO shells:               9
      Number of SO shells:               9
      Number of primitives:             15
      Number of atomic orbitals:        13
      Number of basis functions:        13

      Number of irreps:                  1
      Integral cutoff                 1.00e-12
      Number of functions per irrep: [  13 ]

 OEINTS: Overlap, kinetic, potential, dipole, and quadrupole integrals
         stored in file 35.

      Computing two-electron integrals...done
      Computed 2260 non-zero two-electron integrals.
        Stored in file 33.

 MINTS: Wrapper to libmints.
   by Justin Turney

   Calculation information:
      Number of threads:                 1
      Number of atoms:                   3
      Number of AO shells:               9
      Number of SO shells:               9
      Number of primitives:             15
      Number of atomic orbitals:        13
      Number of basis functions:        13

      Number of irreps:                  1
      Integral cutoff                 1.00e-12
      Number of functions per irrep: [  13 ]

 OEINTS: Overlap, kinetic, potential, dipole, and quadrupole integrals
         stored in file 35.

      Computing two-electron integrals...done
      Computed 2260 non-zero two-electron integrals.
        Stored in file 33.


         ---------------------------------------------------------
                Multi-Configurational Self-Consistent Field
                            (a 'D E T C I' module)

                 Daniel G. A. Smith, C. David Sherrill, and
                              Matt L. Leininger
         ---------------------------------------------------------


   ==> Parameters <==

    EX LEVEL       =        2      H0 BLOCKSIZE  =     1000
    VAL EX LEVEL   =        0      H0 GUESS SIZE =     1000
    H0COUPLINGSIZE =        0      H0 COUPLING   =       NO
    MAXITER        =       12      NUM PRINT     =       20
    NUM ROOTS      =        1      ICORE         =        1
    PRINT LVL      =        1      FCI           =      YES
    R CONV         = 1.00e-07      MIXED         =      YES
    E CONV         = 1.00e-06      MIXED4        =      YES
    R4S            =       NO      REPL OTF      =       NO
    DIAG METHOD    =      SEM      FOLLOW ROOT   =        0
    PRECONDITIONER = DAVIDSON      UPDATE        = DAVIDSON
    S              =   0.0000      Ms0           =      YES
    GUESS VECTOR   =  H0BLOCK      OPENTYPE      =     NONE
    COLLAPSE SIZE  =        1      HD AVG        = EVANGELISTI
    MAX NUM VECS   =       13      REF SYM       =     AUTO
    IOPEN        =       NO

    EX ALLOW       =  1  1 
    STATE AVERAGE  =  0(1.00) 

   ==> CI Orbital and Space information <==

   ------------------------------------
               Space    Total     A
   ------------------------------------
                 Nso       13    13
                 Nmo       13    13
               Ndocc        3     3
               Nsocc        0     0
   ------------------------------------
               MCSCF Spaces
   ------------------------------------
         Frozen DOCC        0     0
     Restricted DOCC        2     2
              Active        2     2
     Restricted UOCC        9     9
         Frozen UOCC        0     0
   ------------------------------------

   ==> Setting up CI strings <==

    There are 2 alpha and 2 beta strings
    The CI space requires 4 (4.00E+00) determinants and 1 blocks

   ==> Setting up MCSCF integrals <==

  Using in-core PK algorithm.
   Calculation information:
      Number of atoms:                   3
      Number of AO shells:               9
      Number of primitives:             15
      Number of atomic orbitals:        13
      Number of basis functions:        13

      Integral cutoff                 1.00e-12
      Number of threads:                 1

  Performing in-core PK
  Using 8372 doubles for integral storage.
  We computed 1035 shell quartets total.
  Whereas there are 1035 unique shell quartets.

  ==> DiskJK: Disk-Based J/K Matrices <==

    J tasked:                  Yes
    K tasked:                  Yes
    wK tasked:                  No
    Memory [MiB]:              400
    Schwarz Cutoff:          1E-12

    OpenMP threads:              1


   ==> Starting MCSCF iterations <==

        Iter         Total Energy       Delta E   Orb RMS    CI RMS  NCI NORB
(sem_iter): H0block_->H0b_diag[1][0] - H0block_->H0b_diag[2][0] = 0.707107 - -0.707107 = 1.414214 > 1.0E-8
   @MCSCF  1:    -15.506736886330   -1.8336e-03  1.84e-03  3.27e-15    1    1  Initial CI
   @MCSCF  2:    -15.510139811026   -3.4029e-03  2.17e-03  1.71e-16    2    1  TS
   @MCSCF  3:    -15.510593525910   -4.5371e-04  9.18e-04  1.89e-15    1    1  TS
   @MCSCF  4:    -15.510671343916   -7.7818e-05  5.25e-04  4.96e-15    1    1  TS, DIIS
   @MCSCF  5:    -15.510692224855   -2.0881e-05  3.47e-04  1.01e-14    1    1  TS, DIIS
   @MCSCF  6:    -15.510701776717   -9.5519e-06  6.70e-05  8.07e-16    2    1  TS, DIIS
   @MCSCF  7:    -15.510702510296   -7.3358e-07  4.08e-05  1.77e-15    2    1  TS, DIIS
   @MCSCF  8:    -15.510702535715   -2.5420e-08  2.60e-05  1.46e-13    1    1  TS, DIIS
   @MCSCF  9:    -15.510702570785   -3.5070e-08  4.11e-06  3.87e-15    2    1  TS, DIIS
   @MCSCF 10:    -15.510702572007   -1.2218e-09  1.14e-06  3.32e-15    2    1  TS, DIIS
   @MCSCF 11:    -15.510702572215   -2.0822e-10  2.55e-07  2.31e-15    2    1  TS, DIIS

          @MCSCF has converged!

   @MCSCF Final Energy:  -15.510702572215449

   Computing CI Semicanonical Orbitals

   ==> Starting CI iterations <==

    H0 Block Eigenvalue = -15.51070257

    Simultaneous Expansion Method (Block Davidson Method)
    Using 1 initial trial vectors

     Iter   Root       Total Energy       Delta E      C RMS

   @CI  0:     0    -15.510702572215   -9.0663E-01   3.6106E-15  
    Warning: Norm of correction (root 0) is < 1.0E-13
   @CI  1:     0    -15.510702572215   0.0000E+00   1.5883E-15 c

   ==> Energetics <==

    SCF energy =          -15.504903251028932
    Total MCSCF energy =  -15.510702572215449

   ==> MCSCF root 0 information <==

    MCSCF Root 0 energy =   -15.510702572215445

   Active Space Natural occupation numbers:

         A   1.940658         A   0.059342

   The 4 most important determinants:

    *   1    0.985053  (    0,    0)  3AX 
    *   2   -0.172253  (    1,    1)  4AX 
    *   3    0.000000  (    0,    1)  3AA 4AB 
    *   4    0.000000  (    1,    0)  3AB 4AA 



Properties will be evaluated at   0.000000,   0.000000,   0.000000 [a0]

Properties computed using the CASSCF density matrix


 Multipole Moments:

 ------------------------------------------------------------------------------------
     Multipole            Electronic (a.u.)      Nuclear  (a.u.)        Total (a.u.)
 ------------------------------------------------------------------------------------

 L = 1.  Multiply by 2.5417464519 to convert [e a0] to [Debye]
 Dipole X            :          0.0000000            0.0000000            0.0000000
 Dipole Y            :          0.0000000            0.0000000            0.0000000
 Dipole Z            :         -3.6844688            2.2583235           -1.4261453
 Magnitude           :                                                    1.4261453

 ------------------------------------------------------------------------------------
    PSI4 CASSCF ENERGY....................................................................PASSED

Scratch directory: /Users/york/scratch/psi4/

  Forte
  ----------------------------------------------------------------------------
  A suite of quantum chemistry methods for strongly correlated electrons

    git branch: casscf-1 - git commit: 8a6ab9bc

  Developed by:
    Francesco A. Evangelista, Chenyang Li, Kevin P. Hannon,
    Jeffrey B. Schriber, Tianyuan Zhang, Chenxi Cai,
    Nan He, Nicholas Stair, Shuhe Wang, Renke Huang
  ----------------------------------------------------------------------------


  Preparing forte objects from a Psi4 Wavefunction object
  No reference wave function provided for Forte. Computing SCF orbitals using Psi4 ...
   => Libint2 <=

    Primary   basis highest AM E, G, H:  5, 4, 3
    Auxiliary basis highest AM E, G, H:  6, 5, 4
    Onebody   basis highest AM E, G, H:  6, 5, 4
    Solid Harmonics ordering:            gaussian

*** tstart() called on Yorks-Mac.local
*** at Thu Dec 14 10:53:36 2023

   => Loading Basis Set <=

    Name: 3-21G
    Role: ORBITAL
    Keyword: BASIS
    atoms 1   entry BE         line    46 file /Users/york/src/psi4new/psi4/share/psi4/basis/3-21g.gbs 
    atoms 2-3 entry H          line    21 file /Users/york/src/psi4new/psi4/share/psi4/basis/3-21g.gbs 


         ---------------------------------------------------------
                                   SCF
               by Justin Turney, Rob Parrish, Andy Simmonett
                          and Daniel G. A. Smith
                              RHF Reference
                        1 Threads,    500 MiB Core
         ---------------------------------------------------------

  ==> Geometry <==

    Molecular point group: c1
    Full point group: C2v

    Geometry (in Bohr), charge = 0, multiplicity = 1:

       Center              X                  Y                   Z               Mass       
    ------------   -----------------  -----------------  -----------------  -----------------
         BE           0.000000000000     0.000000000000    -0.456946083786     9.012183065000
         H            0.000000000000     1.390000000000     2.043053916214     1.007825032230
         H            0.000000000000    -1.390000000000     2.043053916214     1.007825032230

  Running in c1 symmetry.

  Rotational constants: A =     15.45786  B =      5.84735  C =      4.24251 [cm^-1]
  Rotational constants: A = 463415.11676  B = 175299.21065  C = 127187.22704 [MHz]
  Nuclear repulsion =    3.156487659063052

  Charge       = 0
  Multiplicity = 1
  Electrons    = 6
  Nalpha       = 3
  Nbeta        = 3

  ==> Algorithm <==

  SCF Algorithm Type is PK.
  DIIS enabled.
  MOM disabled.
  Fractional occupation disabled.
  Guess Type is SAD.
  Energy threshold   = 1.00e-08
  Density threshold  = 1.00e-08
  Integral threshold = 1.00e-12

  ==> Primary Basis <==

  Basis Set: 3-21G
    Blend: 3-21G
    Number of shells: 9
    Number of basis functions: 13
    Number of Cartesian functions: 13
    Spherical Harmonics?: false
    Max angular momentum: 1

  ==> Integral Setup <==

  Using in-core PK algorithm.
   Calculation information:
      Number of atoms:                   3
      Number of AO shells:               9
      Number of primitives:             15
      Number of atomic orbitals:        13
      Number of basis functions:        13

      Integral cutoff                 1.00e-12
      Number of threads:                 1

  Performing in-core PK
  Using 8372 doubles for integral storage.
  We computed 1035 shell quartets total.
  Whereas there are 1035 unique shell quartets.

  ==> DiskJK: Disk-Based J/K Matrices <==

    J tasked:                  Yes
    K tasked:                  Yes
    wK tasked:                  No
    Memory [MiB]:              375
    Schwarz Cutoff:          1E-12

    OpenMP threads:              1

  Minimum eigenvalue in the overlap matrix is 6.9151243551E-02.
  Reciprocal condition number of the overlap matrix is 2.0040661777E-02.
    Using symmetric orthogonalization.

  ==> Pre-Iterations <==

  SCF Guess: Superposition of Atomic Densities via on-the-fly atomic UHF (no occupation information).

   -------------------------
    Irrep   Nso     Nmo    
   -------------------------
     A         13      13 
   -------------------------
    Total      13      13
   -------------------------

  ==> Iterations <==

                        Total Energy        Delta E     RMS |[F,P]|

   @RHF iter SAD:   -15.06179950371552   -1.50618e+01   0.00000e+00 
   @RHF iter   1:   -15.47550888346636   -4.13709e-01   1.05296e-02 DIIS/ADIIS
   @RHF iter   2:   -15.50447398826365   -2.89651e-02   1.47960e-03 DIIS/ADIIS
   @RHF iter   3:   -15.50484397001566   -3.69982e-04   4.06108e-04 DIIS/ADIIS
   @RHF iter   4:   -15.50489999752453   -5.60275e-05   7.69210e-05 DIIS
   @RHF iter   5:   -15.50490304364605   -3.04612e-06   1.83539e-05 DIIS
   @RHF iter   6:   -15.50490324869533   -2.05049e-07   2.53998e-06 DIIS
   @RHF iter   7:   -15.50490325095553   -2.26020e-09   3.85785e-07 DIIS
   @RHF iter   8:   -15.50490325102758   -7.20544e-11   5.81758e-08 DIIS
   @RHF iter   9:   -15.50490325102893   -1.34825e-12   3.37088e-09 DIIS
  Energy and wave function converged.


  ==> Post-Iterations <==

    Orbital Energies [Eh]
    ---------------------

    Doubly Occupied:                                                      

       1A     -4.712251     2A     -0.513669     3A     -0.269844  

    Virtual:                                                              

       4A     -0.022166     5A      0.070636     6A      0.202776  
       7A      0.260895     8A      0.440218     9A      0.450039  
      10A      0.454040    11A      0.541561    12A      1.299903  
      13A      1.513643  

    Final Occupation by Irrep:
              A 
    DOCC [     3 ]
    NA   [     3 ]
    NB   [     3 ]

  @RHF Final Energy:   -15.50490325102893

   => Energetics <=

    Nuclear Repulsion Energy =              3.1564876590630520
    One-Electron Energy =                 -26.3312547319445436
    Two-Electron Energy =                   7.6698638218525588
    Total Energy =                        -15.5049032510289315

Computation Completed


Properties will be evaluated at   0.000000,   0.000000,   0.000000 [a0]

Properties computed using the SCF density matrix


 Multipole Moments:

 ------------------------------------------------------------------------------------
     Multipole            Electronic (a.u.)      Nuclear  (a.u.)        Total (a.u.)
 ------------------------------------------------------------------------------------

 L = 1.  Multiply by 2.5417464519 to convert [e a0] to [Debye]
 Dipole X            :          0.0000000            0.0000000            0.0000000
 Dipole Y            :         -0.0000000            0.0000000           -0.0000000
 Dipole Z            :         -3.8059449            2.2583235           -1.5476214
 Magnitude           :                                                    1.5476214

 ------------------------------------------------------------------------------------

*** tstop() called on Yorks-Mac.local at Thu Dec 14 10:53:37 2023
Module time:
	user time   =       0.54 seconds =       0.01 minutes
	system time =       0.01 seconds =       0.00 minutes
	total time  =          1 seconds =       0.02 minutes
Total time:
	user time   =       1.74 seconds =       0.03 minutes
	system time =       0.21 seconds =       0.00 minutes
	total time  =          2 seconds =       0.03 minutes

  Read options for space RESTRICTED_DOCC
  Read options for space ACTIVE
  Read options for space RESTRICTED_DOCC

  ==> MO Space Information <==

  -------------------------------
                        A   Sum
  -------------------------------
    FROZEN_DOCC         0     0
    RESTRICTED_DOCC     2     2
    GAS1                2     2
    GAS2                0     0
    GAS3                0     0
    GAS4                0     0
    GAS5                0     0
    GAS6                0     0
    RESTRICTED_UOCC     9     9
    FROZEN_UOCC         0     0
    Total              13    13
  -------------------------------   => Loading Basis Set <=

    Name: STO-3G
    Role: ORBITAL
    Keyword: MINAO_BASIS
    atoms 1   entry BE         line    41 file /Users/york/src/psi4new/psi4/share/psi4/basis/sto-3g.gbs 
    atoms 2-3 entry H          line    19 file /Users/york/src/psi4new/psi4/share/psi4/basis/sto-3g.gbs 


  State Singlet (Ms = 0) A GAS min: 0 0 0 0 0 0 ; GAS max: 4 0 0 0 0 0 ; weights:
      1.000000000000
  Forte will use psi4 integrals

  ==> Primary Basis Set Summary <==

  Basis Set: 3-21G
    Blend: 3-21G
    Number of shells: 9
    Number of basis functions: 13
    Number of Cartesian functions: 13
    Spherical Harmonics?: false
    Max angular momentum: 1


  JK created using conventional PK integrals
  Using in-core PK algorithm.
   Calculation information:
      Number of atoms:                   3
      Number of AO shells:               9
      Number of primitives:             15
      Number of atomic orbitals:        13
      Number of basis functions:        13

      Integral cutoff                 1.00e-12
      Number of threads:                 1

  Performing in-core PK
  Using 8372 doubles for integral storage.
  We computed 1035 shell quartets total.
  Whereas there are 1035 unique shell quartets.

  ==> DiskJK: Disk-Based J/K Matrices <==

    J tasked:                  Yes
    K tasked:                  Yes
    wK tasked:                  No
    Memory [MiB]:              400
    Schwarz Cutoff:          1E-12

    OpenMP threads:              1



  ==> Integral Transformation <==

  Number of molecular orbitals:                         13
  Number of correlated molecular orbitals:              13
  Number of frozen occupied orbitals:                    0
  Number of frozen unoccupied orbitals:                  0
  Two-electron integral type:                 Conventional


  Skip integral allocation and transformation for AO-driven CASSCF.

          -----------------------------------------------------------
                  Multi-Configurational Self Consistent Field
                Two-Step Approximate Second-Order AO Algorithm
            written by Chenyang Li, Kevin P. Hannon, and Shuhe Wang
          -----------------------------------------------------------


  ==> MCSCF Calculation Information <==

    --------------------------------------------------------
    Print level                                      Default
    Integral type                               CONVENTIONAL
    CI solver type                                       FCI
    Final orbital type                             CANONICAL
    Derivative type                                     NONE
    Optimize orbitals                                   TRUE
    Include internal rotations                         FALSE
    Debug printing                                     FALSE
    Energy convergence                             1.000e-08
    Gradient convergence                           1.000e-06
    Max value for rotation                         2.000e-01
    Max number of macro iterations                       100
    Max number of micro iterations                        40
    Min number of micro iterations                         6
    DIIS start                                            15
    Min DIIS vectors                                       3
    Max DIIS vectors                                       8
    Frequency of DIIS extrapolation                        1
    --------------------------------------------------------

  ==> Independent Orbital Rotations <==

    ORBITAL SPACES                         A
    ----------------------------------------
             ACTIVE / RESTRICTED_DOCC      4
    RESTRICTED_UOCC /          ACTIVE     18
    RESTRICTED_UOCC / RESTRICTED_DOCC     18
    ----------------------------------------

  ==> MCSCF Iterations <==

                      Energy CI                    Energy Orbital
           ------------------------------  ------------------------------
    Iter.        Total Energy       Delta        Total Energy       Delta  Orb. Grad.  Micro
    ----------------------------------------------------------------------------------------
       1     -15.506736886330 -1.5507e+01    -15.509735227529 -1.5510e+01  1.9203e-03    6/N
       2     -15.510314955977 -3.5781e-03    -15.510543884613 -8.0866e-04  1.5508e-04    6/N
       3     -15.510661767202 -3.4681e-04    -15.510691979534 -1.4809e-04  9.6525e-06    6/N
       4     -15.510700342197 -3.8575e-05    -15.510702101729 -1.0122e-05  4.5407e-06    6/N
       5     -15.510702478161 -2.1360e-06    -15.510702553418 -4.5169e-07  1.1017e-06    6/N
       6     -15.510702568501 -9.0340e-08    -15.510702571484 -1.8066e-08  1.7223e-07    4/Y
       7     -15.510702572075 -3.5738e-09    -15.510702572191 -7.0609e-10  2.0298e-07    2/Y
    ----------------------------------------------------------------------------------------

  A miracle has come to pass: MCSCF iterations have converged!

  Performing final CI Calculation using converged orbitals

  ==> String Lists <==

    --------------------------------------------------------
    number of alpha electrons                              1
    number of beta electrons                               1
    number of alpha strings                                2
    number of beta strings                                 2
    --------------------------------------------------------

  ==> FCI Solver <==

    --------------------------------------------------------
    Spin adapt                                         FALSE
    Number of determinants                                 4
    Symmetry                                               0
    Multiplicity                                           1
    Number of roots                                        1
    Target root                                            0
    --------------------------------------------------------

  ==> Initial Guess <==

  Initial guess determinants:         4

  Classification of the initial guess solutions

  Number   2S+1   Selected
  ------------------------
     3       1       *
     1       3        
  ------------------------

    Spin    Root           Energy        <S^2>    Status
  -------------------------------------------------------
   singlet    0      -15.510702572213  +0.000000  added
  -------------------------------------------------------

  ==> Root No. 0 <==

    20      0.98505353
    02     -0.17224846

    Total Energy:     -15.510702572213, <S^2>: 0.000000
    Time for FCI:       0.001100640000

  ==> Energy Summary <==

    Multi.(2ms)  Irrep.  No.               Energy      <S^2>
    --------------------------------------------------------
       1  (  0)     A     0      -15.510702572213   0.000000
    --------------------------------------------------------

  ==> Natural Orbitals <==

        1A      1.940661      2A      0.059339  


  ==> Dipole Moments [e a0] (Nuclear + Electronic) for Singlet (Ms = 0) A <==

       State           DM_X           DM_Y           DM_Z           |DM|
    --------------------------------------------------------------------
          0A     0.00000000     0.00000000    -1.38243926     1.38243926
    --------------------------------------------------------------------
     Nuclear     0.00000000     0.00000000     2.25832350     2.25832350
    --------------------------------------------------------------------

  ==> Natural Orbitals <==

        1A      1.940661      2A      0.059339  


  ==> Quadrupole Moments [e a0^2] (Nuclear + Electronic) for Singlet (Ms = 0) A <==

       State          QM_XX          QM_XY          QM_XZ          QM_YY          QM_YZ          QM_ZZ
    --------------------------------------------------------------------------------------------------
          0A    -5.43114615     0.00000000     0.00000000   -10.05631810    -0.00000000    -5.44469490
    --------------------------------------------------------------------------------------------------
     Nuclear     0.00000000     0.00000000     0.00000000     3.86420000     0.00000000     9.18333750
    --------------------------------------------------------------------------------------------------

  ==> Natural Orbitals <==

        1A      1.940661      2A      0.059339  


  ==> Semicanonicalize Orbitals <==

    MIX INACTIVE ORBITALS         FALSE
    MIX GAS ACTIVE ORBITALS       FALSE
    FROZEN_DOCC                   CANONICAL
    FROZEN_UOCC                   CANONICAL
    GAS1                          CANONICAL
    RESTRICTED_DOCC               CANONICAL
    RESTRICTED_UOCC               CANONICAL

    Off-Diag. Elements       Max           2-Norm
    ------------------------------------------------
    GAS1                 0.0000000000   0.0000000000
    RESTRICTED_DOCC      0.0001997883   0.0002825433
    RESTRICTED_UOCC      0.0349280668   0.0747824534
    ------------------------------------------------

    Canonicalization test failed

  Timing for orbital canonicalization:                        0.000 s.

  Time to prepare integrals:        0.655 seconds
  Time to run job          :        0.082 seconds
  Total                    :        0.737 seconds
    FORTE CASSCF ENERGY...................................................................PASSED

    Psi4 stopped on: Thursday, 14 December 2023 10:53AM
    Psi4 wall time for execution: 0:00:02.52

*** Psi4 exiting successfully. Buy a developer a beer!
