
    -----------------------------------------------------------------------
          Psi4: An Open-Source Ab Initio Electronic Structure Package
                               Psi4 undefined 

                         Git: Rev {master} 335343d 


    R. M. Parrish, L. A. Burns, D. G. A. Smith, A. C. Simmonett,
    A. E. DePrince III, E. G. Hohenstein, U. Bozkaya, A. Yu. Sokolov,
    R. Di Remigio, R. M. Richard, J. F. Gonthier, A. M. James,
    H. R. McAlexander, A. Kumar, M. Saitow, X. Wang, B. P. Pritchard,
    P. Verma, H. F. Schaefer III, K. Patkowski, R. A. King, E. F. Valeev,
    F. A. Evangelista, J. M. Turney, T. D. Crawford, and C. D. Sherrill,
    J. Chem. Theory Comput. 13(7) pp 3185--3197 (2017).
    (doi: 10.1021/acs.jctc.7b00174)


                         Additional Contributions by
    P. Kraus, H. Kruse, M. H. Lechner, M. C. Schieber, and R. A. Shaw

    -----------------------------------------------------------------------


    Psi4 started on: Monday, 17 December 2018 12:07PM

    Process ID: 50521
    Host:       laptop-btkos4mc.wireless.emory.edu
    PSIDATADIR: /Users/jeffschriber/src/psi4-debug-install/share/psi4
    Memory:     500.0 MiB
    Threads:    1
    
  ==> Input File <==

--------------------------------------------------------------------------
import forte

memory 2 gb

escf = -304.9057795504940600
efix = -305.389273128890693
eaci = -305.397732367669391

molecule ene2{
0 1

    C            0.335863347908    -0.638024351991     0.000000000207
    H            1.432938644893    -0.620850793123     0.000000000280
    C           -0.296842800370    -1.839541056853     0.000000000164
    H           -1.393739522764    -1.860704439495     0.000000000280
    C            0.383204758655    -3.118962138239     0.000000000233
    H            1.479554406702    -3.087254985300     0.000000001289
    C           -0.237579194060    -4.313790051647    -0.000000000740
    H            0.325161338012    -5.249189944735    -0.000000000503
    H           -1.329245280272    -4.386987205251    -0.000000001655
    C           -0.335863360640     0.638024352182     0.000000000468
    H           -1.432938656420     0.620850793004     0.000000000922
    C            0.296842792408     1.839541055584     0.000000000041
    H            1.393739512934     1.860704430863    -0.000000000539
    C           -0.383204755743     3.118962141979     0.000000000141
    H           -1.479554404938     3.087254999541     0.000000000472
    C            0.237579209937     4.313790049182    -0.000000000431
    H            1.329245296894     4.386987192215    -0.000000001010
    H           -0.325161312367     5.249189949931    -0.000000000534

units angstrom
symmetry c1
}

set {
  basis sto-3g 
  df_basis_mp2 cc-pvdz-ri 
  df_basis_scf cc-pvdz-jkfit 
  scf_type df
  guess sad
  maxiter 500
  e_convergence 12
  d_convergence 12
  r_convergence 12
  reference rhf
}

set forte {
  multiplicity 1
  int_type df
  job_type three-dsrg-mrpt2
  frozen_docc      [8]
  restricted_docc  [17]
  active           [8]
  cas_type aci
  sigma 0.001
  diag_algorithm dynamic
  aci_direct_rdms true
  aci_batched_screening true
  aci_batch_alg vector
  aci_nbatch 4
  nroot 1
  root_sym 0
  charge 0
  print_no true
  relax_ref once
  localize PIPEK_MEZEY
  localize_space [25,28, 29,32]
}

set_num_threads(8)

e, scf_wfn = energy('scf', return_wfn=True)

compare_values(escf,variable("CURRENT ENERGY"), 9, "SCF energy") 

energy('forte', ref_wfn=scf_wfn)
compare_values(efix,variable("UNRELAXED ENERGY"), 9, "ACI-DSRG-MRPT2 fixed energy")
compare_values(eaci,variable("CURRENT ENERGY"), 9, "ACI-DSRG-MRPT2 relaxed energy") 



--------------------------------------------------------------------------

  Memory set to   1.863 GiB by Python driver.
  Threads set to 8 by Python driver.

*** tstart() called on laptop-btkos4mc.wireless.emory.edu
*** at Mon Dec 17 12:07:50 2018

   => Loading Basis Set <=

    Name: STO-3G
    Role: ORBITAL
    Keyword: BASIS
    atoms 1, 3, 5, 7, 10, 12, 14, 16      entry C          line    61 file /Users/jeffschriber/src/psi4-debug-install/share/psi4/basis/sto-3g.gbs 
    atoms 2, 4, 6, 8-9, 11, 13, 15, 17-18 entry H          line    19 file /Users/jeffschriber/src/psi4-debug-install/share/psi4/basis/sto-3g.gbs 


         ---------------------------------------------------------
                                   SCF
            by Justin Turney, Rob Parrish, Andy Simmonett
                             and Daniel Smith
                              RHF Reference
                        8 Threads,   1907 MiB Core
         ---------------------------------------------------------

  ==> Geometry <==

    Molecular point group: c1
    Full point group: Cs

    Geometry (in Angstrom), charge = 0, multiplicity = 1:

       Center              X                  Y                   Z               Mass       
    ------------   -----------------  -----------------  -----------------  -----------------
         C            0.335863347908    -0.638024351991     0.000000000207    12.000000000000
         H            1.432938644893    -0.620850793123     0.000000000280     1.007825032230
         C           -0.296842800370    -1.839541056853     0.000000000164    12.000000000000
         H           -1.393739522764    -1.860704439495     0.000000000280     1.007825032230
         C            0.383204758655    -3.118962138239     0.000000000233    12.000000000000
         H            1.479554406702    -3.087254985300     0.000000001289     1.007825032230
         C           -0.237579194060    -4.313790051647    -0.000000000740    12.000000000000
         H            0.325161338012    -5.249189944735    -0.000000000503     1.007825032230
         H           -1.329245280272    -4.386987205251    -0.000000001655     1.007825032230
         C           -0.335863360640     0.638024352182     0.000000000468    12.000000000000
         H           -1.432938656420     0.620850793004     0.000000000922     1.007825032230
         C            0.296842792408     1.839541055584     0.000000000041    12.000000000000
         H            1.393739512934     1.860704430863    -0.000000000539     1.007825032230
         C           -0.383204755743     3.118962141979     0.000000000141    12.000000000000
         H           -1.479554404938     3.087254999541     0.000000000472     1.007825032230
         C            0.237579209937     4.313790049182    -0.000000000431    12.000000000000
         H            1.329245296894     4.386987192215    -0.000000001010     1.007825032230
         H           -0.325161312367     5.249189949931    -0.000000000534     1.007825032230

  Running in c1 symmetry.

  Rotational constants: A =      0.65101  B =      0.01889  C =      0.01836 [cm^-1]
  Rotational constants: A =  19516.70371  B =    566.30750  C =    550.33857 [MHz]
  Nuclear repulsion =  296.638713598584559

  Charge       = 0
  Multiplicity = 1
  Electrons    = 58
  Nalpha       = 29
  Nbeta        = 29

  ==> Algorithm <==

  SCF Algorithm Type is DF.
  DIIS enabled.
  MOM disabled.
  Fractional occupation disabled.
  Guess Type is SAD.
  Energy threshold   = 1.00e-12
  Density threshold  = 1.00e-12
  Integral threshold = 0.00e+00

  ==> Primary Basis <==

  Basis Set: STO-3G
    Blend: STO-3G
    Number of shells: 34
    Number of basis function: 50
    Number of Cartesian functions: 50
    Spherical Harmonics?: true
    Max angular momentum: 1

   => Loading Basis Set <=

    Name: CC-PVDZ-JKFIT
    Role: JKFIT
    Keyword: DF_BASIS_SCF
    atoms 1, 3, 5, 7, 10, 12, 14, 16      entry C          line   121 file /Users/jeffschriber/src/psi4-debug-install/share/psi4/basis/cc-pvdz-jkfit.gbs 
    atoms 2, 4, 6, 8-9, 11, 13, 15, 17-18 entry H          line    51 file /Users/jeffschriber/src/psi4-debug-install/share/psi4/basis/cc-pvdz-jkfit.gbs 

  ==> Pre-Iterations <==

   -------------------------------------------------------
    Irrep   Nso     Nmo     Nalpha   Nbeta   Ndocc  Nsocc
   -------------------------------------------------------
     A         50      50       0       0       0       0
   -------------------------------------------------------
    Total      50      50      29      29      29       0
   -------------------------------------------------------

  ==> Integral Setup <==

  DFHelper Memory: AOs need 0.014 GiB; user supplied 1.397 GiB. Using in-core AOs.

  ==> MemDFJK: Density-Fitted J/K Matrices <==

    J tasked:                   Yes
    K tasked:                   Yes
    wK tasked:                   No
    OpenMP threads:               8
    Memory [MiB]:              1430
    Algorithm:                 Core
    Schwarz Cutoff:           1E-12
    Mask sparsity (%):       9.0400
    Fitting Condition:        1E-12

   => Auxiliary Basis Set <=

  Basis Set: CC-PVDZ-JKFIT
    Blend: CC-PVDZ-JKFIT
    Number of shells: 282
    Number of basis function: 790
    Number of Cartesian functions: 898
    Spherical Harmonics?: true
    Max angular momentum: 3

  Minimum eigenvalue in the overlap matrix is 1.8898432078E-01.
  Using Symmetric Orthogonalization.

  SCF Guess: Superposition of Atomic Densities via on-the-fly atomic UHF.

  ==> Iterations <==

                           Total Energy        Delta E     RMS |[F,P]|

   @DF-RHF iter   0:  -306.53836889996870   -3.06538e+02   8.47067e-02 
   @DF-RHF iter   1:  -304.80370791139785    1.73466e+00   5.40546e-03 
   @DF-RHF iter   2:  -304.88942967891876   -8.57218e-02   2.08734e-03 DIIS
   @DF-RHF iter   3:  -304.90296164477377   -1.35320e-02   9.75458e-04 DIIS
   @DF-RHF iter   4:  -304.90561872244598   -2.65708e-03   1.82217e-04 DIIS
   @DF-RHF iter   5:  -304.90576750328529   -1.48781e-04   5.02004e-05 DIIS
   @DF-RHF iter   6:  -304.90577856913285   -1.10658e-05   1.44853e-05 DIIS
   @DF-RHF iter   7:  -304.90577945104172   -8.81909e-07   5.27931e-06 DIIS
   @DF-RHF iter   8:  -304.90577954165695   -9.06152e-08   1.68573e-06 DIIS
   @DF-RHF iter   9:  -304.90577954996007   -8.30312e-09   3.02756e-07 DIIS
   @DF-RHF iter  10:  -304.90577955041846   -4.58385e-10   5.23253e-08 DIIS
   @DF-RHF iter  11:  -304.90577955043187   -1.34150e-11   1.26795e-08 DIIS
   @DF-RHF iter  12:  -304.90577955043238   -5.11591e-13   3.23945e-09 DIIS
   @DF-RHF iter  13:  -304.90577955043295   -5.68434e-13   3.33292e-10 DIIS
   @DF-RHF iter  14:  -304.90577955043295    0.00000e+00   7.00010e-11 DIIS
   @DF-RHF iter  15:  -304.90577955043290    5.68434e-14   2.07891e-11 DIIS
   @DF-RHF iter  16:  -304.90577955043278    1.13687e-13   4.56342e-12 DIIS
   @DF-RHF iter  17:  -304.90577955043273    5.68434e-14   1.17379e-12 DIIS
   @DF-RHF iter  18:  -304.90577955043284   -1.13687e-13   3.06488e-13 DIIS
  Energy converged.


  ==> Post-Iterations <==

    Orbital Energies [Eh]
    ---------------------

    Doubly Occupied:                                                      

       1A    -11.031463     2A    -11.031463     3A    -11.030022  
       4A    -11.029944     5A    -11.029029     6A    -11.029029  
       7A    -11.017273     8A    -11.017272     9A     -1.054452  
      10A     -1.022461    11A     -0.972841    12A     -0.910398  
      13A     -0.799624    14A     -0.726577    15A     -0.712392  
      16A     -0.696778    17A     -0.608018    18A     -0.592151  
      19A     -0.566877    20A     -0.529785    21A     -0.507590  
      22A     -0.482012    23A     -0.466177    24A     -0.448857  
      25A     -0.431943    26A     -0.427940    27A     -0.379530  
      28A     -0.302489    29A     -0.205538  

    Virtual:                                                              

      30A      0.178749    31A      0.294211    32A      0.396674  
      33A      0.465433    34A      0.552373    35A      0.608844  
      36A      0.656945    37A      0.676380    38A      0.678211  
      39A      0.689426    40A      0.689961    41A      0.695974  
      42A      0.697874    43A      0.824020    44A      0.831403  
      45A      0.912966    46A      0.929715    47A      1.002591  
      48A      1.014854    49A      1.076008    50A      1.109031  

    Final Occupation by Irrep:
              A 
    DOCC [    29 ]

  @DF-RHF Final Energy:  -304.90577955043284

   => Energetics <=

    Nuclear Repulsion Energy =            296.6387135985845589
    One-Electron Energy =               -1000.9691385408732458
    Two-Electron Energy =                 399.4246453918558473
    Total Energy =                       -304.9057795504328396

Computation Completed


Properties will be evaluated at   0.000000,   0.000000,   0.000000 [a0]

Properties computed using the SCF density matrix

  Nuclear Dipole Moment: [e a0]
     X:     0.0000      Y:    -0.0000      Z:    -0.0000

  Electronic Dipole Moment: [e a0]
     X:    -0.0000      Y:     0.0000      Z:     0.0000

  Dipole Moment: [e a0]
     X:     0.0000      Y:     0.0000      Z:     0.0000     Total:     0.0000

  Dipole Moment: [D]
     X:     0.0000      Y:     0.0000      Z:     0.0000     Total:     0.0000


*** tstop() called on laptop-btkos4mc.wireless.emory.edu at Mon Dec 17 12:07:54 2018
Module time:
	user time   =       6.00 seconds =       0.10 minutes
	system time =       3.13 seconds =       0.05 minutes
	total time  =          4 seconds =       0.07 minutes
Total time:
	user time   =       6.00 seconds =       0.10 minutes
	system time =       3.13 seconds =       0.05 minutes
	total time  =          4 seconds =       0.07 minutes
	SCF energy........................................................PASSED
   => Loading Basis Set <=

    Name: CC-PVDZ-RI
    Role: RIFIT
    Keyword: DF_BASIS_MP2
    atoms 1, 3, 5, 7, 10, 12, 14, 16      entry C          line   159 file /Users/jeffschriber/src/psi4-debug-install/share/psi4/basis/cc-pvdz-ri.gbs 
    atoms 2, 4, 6, 8-9, 11, 13, 15, 17-18 entry H          line    19 file /Users/jeffschriber/src/psi4-debug-install/share/psi4/basis/cc-pvdz-ri.gbs 

   => Loading Basis Set <=

    Name: STO-3G
    Role: ORBITAL
    Keyword: MINAO_BASIS
    atoms 1, 3, 5, 7, 10, 12, 14, 16      entry C          line    61 file /Users/jeffschriber/src/psi4-debug-install/share/psi4/basis/sto-3g.gbs 
    atoms 2, 4, 6, 8-9, 11, 13, 15, 17-18 entry H          line    19 file /Users/jeffschriber/src/psi4-debug-install/share/psi4/basis/sto-3g.gbs 


  Forte
  ----------------------------------------------------------------------------
  A suite of quantum chemistry methods for strongly correlated electrons

    git branch: localizer_fix - git commit: b83b21e9

  Developed by:
    Francesco A. Evangelista, Chenyang Li, Kevin P. Hannon,
    Jeffrey B. Schriber, Tianyuan Zhang, Chenxi Cai,    Nan He, Nicholas Stair, Shuhe Wang, Renke Huang
  ----------------------------------------------------------------------------

  Size of Determinant class: 16

  ==> MO Space Information <==

  Read options for space FROZEN_DOCC
  Read options for space RESTRICTED_DOCC
  Read options for space ACTIVE
  -------------------------------
                        A   Sum
  -------------------------------
    FROZEN_DOCC         8     8
    RESTRICTED_DOCC    17    17
    ACTIVE              8     8
    RESTRICTED_UOCC    17    17
    FROZEN_UOCC         0     0
    Total              50    50
  -------------------------------

  ==> Integral Transformation <==

  Number of molecular orbitals:                    50
  Number of correlated molecular orbitals:         42
  Number of frozen occupied orbitals:               8
  Number of frozen unoccupied orbitals:             0
  Two-electron integral type:              Density fitting

  DFHelper Memory: AOs need 0.010 GiB; user supplied 1.907 GiB. Using in-core AOs.

  DFHelper Memory: AOs need 0.011 GiB; user supplied 11.921 GiB. Using in-core AOs.


  Timing for computing density-fitted integrals:              2.008 s.


  Localizing orbitals: 25 26 27 28  ==> Pipek-Mezey Localizer <==

    Convergence =   1.000E-12
    Maxiter     =        1000

    Iteration                   Metric       Residual
    @PM    0   6.2968296834306026E-01              -
    @PM    1   1.8162954847233992E+00   1.884460E+00
    @PM    2   1.8556247970692716E+00   2.165359E-02
    @PM    3   1.8557296058123556E+00   5.648165E-05
    @PM    4   1.8557296539635761E+00   2.594733E-08
    @PM    5   1.8557296542779786E+00   1.694226E-10
    @PM    6   1.8557296542782165E+00   1.281489E-13

    PM Localizer converged.


  Localizing orbitals: 29 30 31 32  ==> Pipek-Mezey Localizer <==

    Convergence =   1.000E-12
    Maxiter     =        1000

    Iteration                   Metric       Residual
    @PM    0   6.2880954724707983E-01              -
    @PM    1   1.8447715190160021E+00   1.933752E+00
    @PM    2   1.8562077540518933E+00   6.199269E-03
    @PM    3   1.8562167660430591E+00   4.855055E-06
    @PM    4   1.8562167733829624E+00   3.954227E-09
    @PM    5   1.8562167734312074E+00   2.599102E-11
    @PM    6   1.8562167734312445E+00   1.997690E-14

    PM Localizer converged.


 Integrals are about to be computed.  DFHelper Memory: AOs need 0.010 GiB; user supplied 1.907 GiB. Using in-core AOs.


 Integrals are about to be updated.  DFHelper Memory: AOs need 0.011 GiB; user supplied 11.921 GiB. Using in-core AOs.


  Number of active alpha electrons: 4
  Number of active beta electrons: 4
  Maximum reference space size: 1000
  Number of reference determinants: 225
  Reference generated from 7 MOs

        ---------------------------------------------------------------
                      Adaptive Configuration Interaction
          written by Jeffrey B. Schriber and Francesco A. Evangelista
        ---------------------------------------------------------------

  ==> Reference Information <==

  There are 25 frozen orbitals.
  There are 8 active orbitals.

  ==> Calculation Information <==

  -----------------------------------------------------------------
    Multiplicity                             1    
    Symmetry                                 0    
    Number of roots                          1    
    Root used for properties                 0    
    Sigma (Eh)                               1.00e-03
    Gamma (Eh^(-1))                          1.00e+00
    Convergence threshold                    1.00e-09
    Ms                                       0
    Diagonalization algorithm                DYNAMIC
    Determinant selection criterion          Second-order Energy
    Selection criterion                      Aimed selection
    Excited Algorithm                        ROOT_ORTHOGONALIZE
    Project out spin contaminants            True
    Enforce spin completeness of basis       True
    Enforce complete aimed selection         True
  -----------------------------------------------------------------
  Using 1 threads
  Computing wavefunction for root 0
  Using streamlined Q-space builder.

  ==> Cycle 0 <==

  Initial P space dimension: 225
  Spin-complete dimension of the P space: 225 determinants

  Davidson-Liu solver algorithm with dynamic sigma builds

 SigmaVectorDynamic:
 Maximum memory   : 10000000 double
 Number of threads: 1

  Initial guess space is incomplete!
  Trying to add 5 determinant(s).  5 determinant(s) added.
  Initial guess found 45 solutions with 2S+1 = 1 *
  Initial guess found 51 solutions with 2S+1 = 3  
  Initial guess found 9 solutions with 2S+1 = 5  
  Adding guess 0 (multiplicity = 1.000000)
  Adding guess 1 (multiplicity = 1.000000)

  ==> Diagonalizing Hamiltonian <==

  ----------------------------------------
    Iter.      Avg. Energy       Delta_E
  ----------------------------------------
      1     -405.528922379579  -4.055e+02
      2     -405.532917585182  -3.995e-03
      3     -405.533089865543  -1.723e-04
      4     -405.533103672044  -1.381e-05
      5     -405.533105589945  -1.918e-06
      6     -405.533105814132  -2.242e-07
      7     -405.533105854377  -4.024e-08
      8     -405.533105860898  -6.521e-09
      9     -405.533105862220  -1.322e-09
     10     -405.533105862447  -2.265e-10
     11     -405.533105862491  -4.462e-11
     12     -405.533105862500  -8.129e-12
     13     -405.533105862501  -1.535e-12
     14     -405.533105862501  -2.274e-13
  ----------------------------------------
  The Davidson-Liu algorithm converged in 15 iterations.
  Davidson-Liu procedure took  0.075016 s
  Time spent diagonalizing H:   0.305630 s

    P-space  CI Energy Root   0        = -304.989684386756 Eh =   0.0000 eV

  Using batched Q_space algorithm
  Setting nbin to 1 based on estimated memory ( 1.331 MB)
  Overwriting nbin to 4 based on user input
 -----------------------------------------
                Bin 0
  Build: 0.582071
  Merge: 0.006729
  Inter-thread merge: 0.000000
    Build F                  0.589026 
    Build criteria vector    0.000998
    Screening                0.000140
    Added 61 dets of 1025 from bin 0
                Bin 1
  Build: 0.461924
  Merge: 0.006870
  Inter-thread merge: 0.000000
    Build F                  0.468976 
    Build criteria vector    0.000787
    Screening                0.000088
    Added 122 dets of 600 from bin 1
                Bin 2
  Build: 0.460405
  Merge: 0.006814
  Inter-thread merge: 0.000000
    Build F                  0.467396 
    Build criteria vector    0.000782
    Screening                0.000086
    Added 148 dets of 600 from bin 2
                Bin 3
  Build: 0.224244
  Merge: 0.007145
  Inter-thread merge: 0.000000
    Build F                  0.231494 
    Build criteria vector    0.001543
    Screening                0.000185
    Added 170 dets of 1250 from bin 3
 ------------------------------------
  Screened out 0.0004874745 Eh of correlation
  Dimension of the truncated SD space: 170 determinants
  Time spent building the external space (default): 1.762162 s

  Time spent sorting: 0.000031
  Added 1 missing determinants in aimed selection.
  Time spent selecting: 0.000057
  Dimension of the P + Q space: 334 determinants
  Time spent screening the model space: 0.000069 s
  Time spent building the model space: 1.762311
  Spin-complete dimension of the PQ space: 376

  Davidson-Liu solver algorithm with dynamic sigma builds

 SigmaVectorDynamic:
 Maximum memory   : 10000000 double
 Number of threads: 1

  Initial guess space is incomplete!
  Trying to add 37 determinant(s).  37 determinant(s) added.
  Initial guess found 54 solutions with 2S+1 = 1 *
  Initial guess found 66 solutions with 2S+1 = 3  
  Initial guess found 17 solutions with 2S+1 = 5  
  Adding guess 0 (multiplicity = 1.000000)
  Adding guess 1 (multiplicity = 1.000000)

  ==> Diagonalizing Hamiltonian <==

  ----------------------------------------
    Iter.      Avg. Energy       Delta_E
  ----------------------------------------
      1     -405.589940494615  -4.056e+02
      2     -405.609735790040  -1.980e-02
      3     -405.612785585054  -3.050e-03
      4     -405.613144319488  -3.587e-04
      5     -405.613220871060  -7.655e-05
      6     -405.613229995710  -9.125e-06
      7     -405.613231466456  -1.471e-06
      8     -405.613231766881  -3.004e-07
      9     -405.613231847131  -8.025e-08
     10     -405.613231862667  -1.554e-08
     11     -405.613231866253  -3.587e-09
     12     -405.613231867162  -9.088e-10
     13     -405.613231867416  -2.536e-10
     14     -405.613231867475  -5.883e-11
     15     -405.613231867488  -1.359e-11
     16     -405.613231867492  -3.467e-12
     17     -405.613231867493  -9.095e-13
     18     -405.613231867493  -2.274e-13
  ----------------------------------------
  The Davidson-Liu algorithm converged in 19 iterations.
  Davidson-Liu procedure took  0.137157 s
  Total time spent diagonalizing H:   0.351342 s

    PQ-space CI Energy Root   0        = -305.069810391747 Eh =   0.0000 eV
    PQ-space CI Energy + EPT2 Root   0 = -305.070803408544 Eh =   0.0000 eV

  Added 1 missing determinants in aimed selection.

  Most important contributions to root   0:
    0   0.884341 0.782059718         224 |22220000>
    1  -0.216716 0.046965928         128 |22020200>
    2  -0.207426 0.043025642         208 |22202000>
    3  -0.203495 0.041410255         332 |20220020>
    4  -0.195059 0.038047914         331 |02220002>
    5   0.048718 0.002373473         330 |20020220>
    6   0.048599 0.002361905          80 |22002200>
    7   0.045252 0.002047718         328 |20202020>
    8   0.045088 0.002032903         329 |02020202>
    9   0.044951 0.002020628         189 |22+--+00>

  Spin state for root 0: S^2 = 0.000000, S = 0.000, singlet
  Cycle 0 took: 2.424582 s

  ==> Cycle 1 <==

  Initial P space dimension: 144
  Spin-complete dimension of the P space: 180 determinants
  Time spent diagonalizing H:   0.021773 s

    P-space  CI Energy Root   0        = -305.069266584839 Eh =   0.0000 eV

  Using batched Q_space algorithm
  Setting nbin to 1 based on estimated memory ( 1.064 MB)
  Overwriting nbin to 4 based on user input
 -----------------------------------------
                Bin 0
  Build: 0.421257
  Merge: 0.006413
  Inter-thread merge: 0.000000
    Build F                  0.429266 
    Build criteria vector    0.001375
    Screening                0.000175
    Added 121 dets of 1188 from bin 0
                Bin 1
  Build: 0.379838
  Merge: 0.005975
  Inter-thread merge: 0.000000
    Build F                  0.385977 
    Build criteria vector    0.001378
    Screening                0.000168
    Added 215 dets of 1154 from bin 1
                Bin 2
  Build: 0.310578
  Merge: 0.005989
  Inter-thread merge: 0.000000
    Build F                  0.316714 
    Build criteria vector    0.001420
    Screening                0.000169
    Added 256 dets of 1148 from bin 2
                Bin 3
  Build: 0.300293
  Merge: 0.006271
  Inter-thread merge: 0.000000
    Build F                  0.306880 
    Build criteria vector    0.001476
    Screening                0.000180
    Added 292 dets of 1194 from bin 3
 ------------------------------------
  Screened out 0.0004944107 Eh of correlation
  Dimension of the truncated SD space: 292 determinants
  Time spent building the external space (default): 1.446444 s

  Time spent sorting: 0.000039
  Added 1 missing determinants in aimed selection.
  Time spent selecting: 0.000086
  Dimension of the P + Q space: 347 determinants
  Time spent screening the model space: 0.000101 s
  Time spent building the model space: 1.446638
  Spin-complete dimension of the PQ space: 397

  Davidson-Liu solver algorithm with dynamic sigma builds

 SigmaVectorDynamic:
 Maximum memory   : 10000000 double
 Number of threads: 1

  Initial guess space is incomplete!
  Trying to add 51 determinant(s).  51 determinant(s) added.
  Initial guess found 59 solutions with 2S+1 = 1 *
  Initial guess found 73 solutions with 2S+1 = 3  
  Initial guess found 19 solutions with 2S+1 = 5  
  Adding guess 0 (multiplicity = 1.000000)
  Adding guess 1 (multiplicity = 1.000000)

  ==> Diagonalizing Hamiltonian <==

  ----------------------------------------
    Iter.      Avg. Energy       Delta_E
  ----------------------------------------
      1     -405.589439008724  -4.056e+02
      2     -405.614009964056  -2.457e-02
      3     -405.619652490333  -5.643e-03
      4     -405.620356943856  -7.045e-04
      5     -405.620512416415  -1.555e-04
      6     -405.620534704405  -2.229e-05
      7     -405.620538704681  -4.000e-06
      8     -405.620539443217  -7.385e-07
      9     -405.620539587432  -1.442e-07
     10     -405.620539613192  -2.576e-08
     11     -405.620539619601  -6.409e-09
     12     -405.620539621086  -1.485e-09
     13     -405.620539621523  -4.370e-10
     14     -405.620539621636  -1.124e-10
     15     -405.620539621665  -2.916e-11
     16     -405.620539621673  -8.015e-12
     17     -405.620539621675  -2.387e-12
     18     -405.620539621676  -5.684e-13
  ----------------------------------------
  The Davidson-Liu algorithm converged in 19 iterations.
  Davidson-Liu procedure took  0.143482 s
  Total time spent diagonalizing H:   0.361353 s

    PQ-space CI Energy Root   0        = -305.077118145930 Eh =   0.0000 eV
    PQ-space CI Energy + EPT2 Root   0 = -305.078112743363 Eh =   0.0000 eV


  Most important contributions to root   0:
    0  -0.871856 0.760132655         142 |22220000>
    1   0.215185 0.046304616         141 |22020200>
    2   0.214842 0.046157001         139 |20220020>
    3   0.207122 0.042899539         140 |22202000>
    4   0.206909 0.042811247         138 |02220002>
    5  -0.051991 0.002703077         137 |20020220>
    6  -0.050212 0.002521247         134 |02020202>
    7  -0.050050 0.002505028         135 |20202020>
    8  -0.048534 0.002355534         136 |22002200>
    9  -0.048215 0.002324704         345 |00220022>

  Spin state for root 0: S^2 = 0.000000, S = 0.000, singlet
  Cycle 1 took: 1.834541 s

  ==> Cycle 2 <==

  Initial P space dimension: 239
  Spin-complete dimension of the P space: 273 determinants

  Davidson-Liu solver algorithm with dynamic sigma builds

 SigmaVectorDynamic:
 Maximum memory   : 10000000 double
 Number of threads: 1

  Initial guess space is incomplete!
  Trying to add 21 determinant(s).  21 determinant(s) added.
  Initial guess found 49 solutions with 2S+1 = 1 *
  Initial guess found 58 solutions with 2S+1 = 3  
  Initial guess found 14 solutions with 2S+1 = 5  
  Adding guess 0 (multiplicity = 1.000000)
  Adding guess 1 (multiplicity = 1.000000)

  ==> Diagonalizing Hamiltonian <==

  ----------------------------------------
    Iter.      Avg. Energy       Delta_E
  ----------------------------------------
      1     -405.589312027560  -4.056e+02
      2     -405.613654132628  -2.434e-02
      3     -405.618972611722  -5.318e-03
      4     -405.619582466552  -6.099e-04
      5     -405.619701856648  -1.194e-04
      6     -405.619716804783  -1.495e-05
      7     -405.619719006723  -2.202e-06
      8     -405.619719355302  -3.486e-07
      9     -405.619719413417  -5.811e-08
     10     -405.619719421463  -8.046e-09
     11     -405.619719422798  -1.335e-09
     12     -405.619719423045  -2.474e-10
     13     -405.619719423109  -6.406e-11
     14     -405.619719423123  -1.324e-11
     15     -405.619719423126  -3.297e-12
     16     -405.619719423127  -7.958e-13
  ----------------------------------------
  The Davidson-Liu algorithm converged in 17 iterations.
  Davidson-Liu procedure took  0.083625 s
  Time spent diagonalizing H:   0.303309 s

    P-space  CI Energy Root   0        = -305.076297947381 Eh =   0.0000 eV

  Using batched Q_space algorithm
  Setting nbin to 1 based on estimated memory ( 1.614 MB)
  Overwriting nbin to 4 based on user input
 -----------------------------------------
                Bin 0
  Build: 0.624861
  Merge: 0.008609
  Inter-thread merge: 0.000000
    Build F                  0.633710 
    Build criteria vector    0.001390
    Screening                0.000184
    Added 133 dets of 1242 from bin 0
                Bin 1
  Build: 0.561171
  Merge: 0.008534
  Inter-thread merge: 0.000000
    Build F                  0.569916 
    Build criteria vector    0.001390
    Screening                0.000173
    Added 235 dets of 1188 from bin 1
                Bin 2
  Build: 0.487544
  Merge: 0.008569
  Inter-thread merge: 0.000000
    Build F                  0.496299 
    Build criteria vector    0.001448
    Screening                0.000184
    Added 280 dets of 1186 from bin 2
                Bin 3
  Build: 0.485485
  Merge: 0.008635
  Inter-thread merge: 0.000000
    Build F                  0.494291 
    Build criteria vector    0.001482
    Screening                0.000178
    Added 335 dets of 1244 from bin 3
 ------------------------------------
  Screened out 0.0004939460 Eh of correlation
  Dimension of the truncated SD space: 335 determinants
  Time spent building the external space (default): 2.201298 s

  Time spent sorting: 0.000043
  Added 1 missing determinants in aimed selection.
  Time spent selecting: 0.000072
  Dimension of the P + Q space: 440 determinants
  Time spent screening the model space: 0.000083 s
  Time spent building the model space: 2.201464
  Spin-complete dimension of the PQ space: 542

  Davidson-Liu solver algorithm with dynamic sigma builds

 SigmaVectorDynamic:
 Maximum memory   : 10000000 double
 Number of threads: 1

  Initial guess space is incomplete!
  Trying to add 51 determinant(s).  51 determinant(s) added.
  Initial guess found 59 solutions with 2S+1 = 1 *
  Initial guess found 73 solutions with 2S+1 = 3  
  Initial guess found 19 solutions with 2S+1 = 5  
  Adding guess 0 (multiplicity = 1.000000)
  Adding guess 1 (multiplicity = 1.000000)

  ==> Diagonalizing Hamiltonian <==

  ----------------------------------------
    Iter.      Avg. Energy       Delta_E
  ----------------------------------------
      1     -405.589439008724  -4.056e+02
      2     -405.614282997019  -2.484e-02
      3     -405.620225023351  -5.942e-03
      4     -405.621026280967  -8.013e-04
      5     -405.621217200610  -1.909e-04
      6     -405.621243561092  -2.636e-05
      7     -405.621248428505  -4.867e-06
      8     -405.621249398634  -9.701e-07
      9     -405.621249621679  -2.230e-07
     10     -405.621249665473  -4.379e-08
     11     -405.621249677244  -1.177e-08
     12     -405.621249680114  -2.870e-09
     13     -405.621249680918  -8.039e-10
     14     -405.621249681133  -2.151e-10
     15     -405.621249681194  -6.037e-11
     16     -405.621249681210  -1.626e-11
     17     -405.621249681214  -4.093e-12
     18     -405.621249681215  -1.251e-12
  ----------------------------------------
  The Davidson-Liu algorithm converged in 19 iterations.
  Davidson-Liu procedure took  0.165682 s
  Total time spent diagonalizing H:   0.381078 s

    PQ-space CI Energy Root   0        = -305.077828205470 Eh =   0.0000 eV
    PQ-space CI Energy + EPT2 Root   0 = -305.078827355697 Eh =   0.0000 eV

  Added 1 missing determinants in aimed selection.

  Most important contributions to root   0:
    0   0.870206 0.757258408         238 |22220000>
    1  -0.215230 0.046323988         237 |22020200>
    2  -0.215158 0.046292992         236 |20220020>
    3  -0.206926 0.042818321         235 |22202000>
    4  -0.206912 0.042812575         234 |02220002>
    5   0.052561 0.002762618         233 |20020220>
    6   0.050471 0.002547355         232 |02020202>
    7   0.050411 0.002541285         231 |20202020>
    8   0.048765 0.002378056         230 |22002200>
    9   0.048763 0.002377825         229 |00220022>

  Spin state for root 0: S^2 = 0.000000, S = 0.000, singlet
  Cycle 2 took: 2.892536 s

  ==> Cycle 3 <==

  Initial P space dimension: 279
  Spin-complete dimension of the P space: 307 determinants

  Davidson-Liu solver algorithm with dynamic sigma builds

 SigmaVectorDynamic:
 Maximum memory   : 10000000 double
 Number of threads: 1

  Initial guess space is incomplete!
  Trying to add 39 determinant(s).  39 determinant(s) added.
  Initial guess found 55 solutions with 2S+1 = 1 *
  Initial guess found 67 solutions with 2S+1 = 3  
  Initial guess found 17 solutions with 2S+1 = 5  
  Adding guess 0 (multiplicity = 1.000000)
  Adding guess 1 (multiplicity = 1.000000)

  ==> Diagonalizing Hamiltonian <==

  ----------------------------------------
    Iter.      Avg. Energy       Delta_E
  ----------------------------------------
      1     -405.589404964285  -4.056e+02
      2     -405.613653851194  -2.425e-02
      3     -405.619139758849  -5.486e-03
      4     -405.619813598338  -6.738e-04
      5     -405.619961915806  -1.483e-04
      6     -405.619981415856  -1.950e-05
      7     -405.619984403197  -2.987e-06
      8     -405.619984913628  -5.104e-07
      9     -405.619985008014  -9.439e-08
     10     -405.619985022657  -1.464e-08
     11     -405.619985025622  -2.965e-09
     12     -405.619985026249  -6.273e-10
     13     -405.619985026420  -1.707e-10
     14     -405.619985026458  -3.769e-11
     15     -405.619985026466  -8.640e-12
     16     -405.619985026468  -2.160e-12
     17     -405.619985026469  -5.684e-13
  ----------------------------------------
  The Davidson-Liu algorithm converged in 18 iterations.
  Davidson-Liu procedure took  0.108121 s
  Time spent diagonalizing H:   0.319542 s

    P-space  CI Energy Root   0        = -305.076563550723 Eh =   0.0000 eV

  Using batched Q_space algorithm
  Setting nbin to 1 based on estimated memory ( 1.815 MB)
  Overwriting nbin to 4 based on user input
 -----------------------------------------
                Bin 0
  Build: 0.698533
  Merge: 0.009467
  Inter-thread merge: 0.000000
    Build F                  0.708258 
    Build criteria vector    0.001365
    Screening                0.000179
    Added 124 dets of 1242 from bin 0
                Bin 1
  Build: 0.646436
  Merge: 0.009408
  Inter-thread merge: 0.000000
    Build F                  0.656057 
    Build criteria vector    0.001371
    Screening                0.000172
    Added 216 dets of 1188 from bin 1
                Bin 2
  Build: 0.533474
  Merge: 0.009841
  Inter-thread merge: 0.000000
    Build F                  0.543514 
    Build criteria vector    0.001437
    Screening                0.000182
    Added 263 dets of 1186 from bin 2
                Bin 3
  Build: 0.526610
  Merge: 0.009596
  Inter-thread merge: 0.000000
    Build F                  0.536376 
    Build criteria vector    0.001478
    Screening                0.000180
    Added 320 dets of 1244 from bin 3
 ------------------------------------
  Screened out 0.0004963046 Eh of correlation
  Dimension of the truncated SD space: 320 determinants
  Time spent building the external space (default): 2.451282 s

  Time spent sorting: 0.000042
  Added 1 missing determinants in aimed selection.
  Time spent selecting: 0.000069
  Dimension of the P + Q space: 454 determinants
  Time spent screening the model space: 0.000079 s
  Time spent building the model space: 2.451443
  Spin-complete dimension of the PQ space: 542

  Davidson-Liu solver algorithm with dynamic sigma builds

 SigmaVectorDynamic:
 Maximum memory   : 10000000 double
 Number of threads: 1

  Initial guess space is incomplete!
  Trying to add 51 determinant(s).  51 determinant(s) added.
  Initial guess found 59 solutions with 2S+1 = 1 *
  Initial guess found 73 solutions with 2S+1 = 3  
  Initial guess found 19 solutions with 2S+1 = 5  
  Adding guess 0 (multiplicity = 1.000000)
  Adding guess 1 (multiplicity = 1.000000)

  ==> Diagonalizing Hamiltonian <==

  ----------------------------------------
    Iter.      Avg. Energy       Delta_E
  ----------------------------------------
      1     -405.589439008724  -4.056e+02
      2     -405.614276456004  -2.484e-02
      3     -405.620222643642  -5.946e-03
      4     -405.621026700673  -8.041e-04
      5     -405.621217703212  -1.910e-04
      6     -405.621243815719  -2.611e-05
      7     -405.621248590682  -4.775e-06
      8     -405.621249545165  -9.545e-07
      9     -405.621249770463  -2.253e-07
     10     -405.621249815602  -4.514e-08
     11     -405.621249827934  -1.233e-08
     12     -405.621249830953  -3.020e-09
     13     -405.621249831775  -8.216e-10
     14     -405.621249831995  -2.202e-10
     15     -405.621249832057  -6.196e-11
     16     -405.621249832073  -1.637e-11
     17     -405.621249832078  -4.263e-12
     18     -405.621249832079  -1.251e-12
     19     -405.621249832079  -2.274e-13
  ----------------------------------------
  The Davidson-Liu algorithm converged in 20 iterations.
  Davidson-Liu procedure took  0.170460 s
  Total time spent diagonalizing H:   0.382473 s

    PQ-space CI Energy Root   0        = -305.077828356334 Eh =   0.0000 eV
    PQ-space CI Energy + EPT2 Root   0 = -305.078825507936 Eh =   0.0000 eV


  Most important contributions to root   0:
    0   0.870171 0.757197709         277 |22220000>
    1  -0.215160 0.046293955         276 |22020200>
    2  -0.215160 0.046293955         275 |20220020>
    3  -0.206846 0.042785096         274 |22202000>
    4  -0.206846 0.042785096         273 |02220002>
    5   0.052515 0.002757805         272 |20020220>
    6   0.050394 0.002539574         271 |02020202>
    7   0.050394 0.002539574         270 |20202020>
    8   0.048729 0.002374560         269 |22002200>
    9   0.048729 0.002374559         268 |00220022>

  Spin state for root 0: S^2 = 0.000000, S = 0.000, singlet
  Cycle 3 took: 3.160236 s

  ==> Cycle 4 <==

  Initial P space dimension: 279
  Spin-complete dimension of the P space: 307 determinants

  Davidson-Liu solver algorithm with dynamic sigma builds

 SigmaVectorDynamic:
 Maximum memory   : 10000000 double
 Number of threads: 1

  Initial guess space is incomplete!
  Trying to add 39 determinant(s).  39 determinant(s) added.
  Initial guess found 55 solutions with 2S+1 = 1 *
  Initial guess found 67 solutions with 2S+1 = 3  
  Initial guess found 17 solutions with 2S+1 = 5  
  Adding guess 0 (multiplicity = 1.000000)
  Adding guess 1 (multiplicity = 1.000000)

  ==> Diagonalizing Hamiltonian <==

  ----------------------------------------
    Iter.      Avg. Energy       Delta_E
  ----------------------------------------
      1     -405.589404964285  -4.056e+02
      2     -405.613653851194  -2.425e-02
      3     -405.619139758848  -5.486e-03
      4     -405.619813598338  -6.738e-04
      5     -405.619961915805  -1.483e-04
      6     -405.619981415856  -1.950e-05
      7     -405.619984403197  -2.987e-06
      8     -405.619984913628  -5.104e-07
      9     -405.619985008014  -9.439e-08
     10     -405.619985022657  -1.464e-08
     11     -405.619985025622  -2.965e-09
     12     -405.619985026249  -6.274e-10
     13     -405.619985026420  -1.704e-10
     14     -405.619985026458  -3.763e-11
     15     -405.619985026466  -8.356e-12
     16     -405.619985026468  -2.160e-12
     17     -405.619985026469  -5.116e-13
  ----------------------------------------
  The Davidson-Liu algorithm converged in 18 iterations.
  Davidson-Liu procedure took  0.109010 s
  Time spent diagonalizing H:   0.351298 s

    P-space  CI Energy Root   0        = -305.076563550723 Eh =   0.0000 eV

  Using batched Q_space algorithm
  Setting nbin to 1 based on estimated memory ( 1.815 MB)
  Overwriting nbin to 4 based on user input
 -----------------------------------------
                Bin 0
  Build: 0.694793
  Merge: 0.009797
  Inter-thread merge: 0.000000
    Build F                  0.704912 
    Build criteria vector    0.001434
    Screening                0.000196
    Added 124 dets of 1242 from bin 0
                Bin 1
  Build: 0.641524
  Merge: 0.009375
  Inter-thread merge: 0.000000
    Build F                  0.651126 
    Build criteria vector    0.001371
    Screening                0.000178
    Added 216 dets of 1188 from bin 1
                Bin 2
  Build: 0.540738
  Merge: 0.009464
  Inter-thread merge: 0.000000
    Build F                  0.550400 
    Build criteria vector    0.001450
    Screening                0.000186
    Added 263 dets of 1186 from bin 2
                Bin 3
  Build: 0.527416
  Merge: 0.009555
  Inter-thread merge: 0.000000
    Build F                  0.537153 
    Build criteria vector    0.001488
    Screening                0.000180
    Added 320 dets of 1244 from bin 3
 ------------------------------------
  Screened out 0.0004963046 Eh of correlation
  Dimension of the truncated SD space: 320 determinants
  Time spent building the external space (default): 2.450753 s

  Time spent sorting: 0.000041
  Added 1 missing determinants in aimed selection.
  Time spent selecting: 0.000069
  Dimension of the P + Q space: 454 determinants
  Time spent screening the model space: 0.000080 s
  Time spent building the model space: 2.450913
  Spin-complete dimension of the PQ space: 542

  Davidson-Liu solver algorithm with dynamic sigma builds

 SigmaVectorDynamic:
 Maximum memory   : 10000000 double
 Number of threads: 1

  Initial guess space is incomplete!
  Trying to add 51 determinant(s).  51 determinant(s) added.
  Initial guess found 59 solutions with 2S+1 = 1 *
  Initial guess found 73 solutions with 2S+1 = 3  
  Initial guess found 19 solutions with 2S+1 = 5  
  Adding guess 0 (multiplicity = 1.000000)
  Adding guess 1 (multiplicity = 1.000000)

  ==> Diagonalizing Hamiltonian <==

  ----------------------------------------
    Iter.      Avg. Energy       Delta_E
  ----------------------------------------
      1     -405.589439008724  -4.056e+02
      2     -405.614276456004  -2.484e-02
      3     -405.620222643642  -5.946e-03
      4     -405.621026700673  -8.041e-04
      5     -405.621217703212  -1.910e-04
      6     -405.621243815719  -2.611e-05
      7     -405.621248590682  -4.775e-06
      8     -405.621249545165  -9.545e-07
      9     -405.621249770463  -2.253e-07
     10     -405.621249815603  -4.514e-08
     11     -405.621249827933  -1.233e-08
     12     -405.621249830953  -3.020e-09
     13     -405.621249831775  -8.220e-10
     14     -405.621249831995  -2.202e-10
     15     -405.621249832057  -6.179e-11
     16     -405.621249832073  -1.626e-11
     17     -405.621249832078  -4.491e-12
     18     -405.621249832079  -1.251e-12
     19     -405.621249832079  -2.274e-13
  ----------------------------------------
  The Davidson-Liu algorithm converged in 20 iterations.
  Davidson-Liu procedure took  0.171495 s
  Total time spent diagonalizing H:   0.385780 s

    PQ-space CI Energy Root   0        = -305.077828356334 Eh =   0.0000 eV
    PQ-space CI Energy + EPT2 Root   0 = -305.078825507936 Eh =   0.0000 eV

  ***** Calculation Converged *****
  Saving root 0, ref_root is 0
  Number of old roots: 1

  ==> ACI Summary <==

  Iterations required:                         4
  Dimension of optimized determinant space:    542

  * Adaptive-CI Energy Root   0        = -305.077828356334 Eh =   0.0000 eV
  * Adaptive-CI Energy Root   0 + EPT2 = -305.078825507936 Eh =   0.0000 eV

  ==> Wavefunction Information <==

  Most important contributions to root   0:
    0   0.870171 0.757197709         278 |22220000>
    1  -0.215160 0.046293955         277 |22020200>
    2  -0.215160 0.046293955         276 |20220020>
    3  -0.206846 0.042785096         275 |22202000>
    4  -0.206846 0.042785096         274 |02220002>
    5   0.052515 0.002757805         273 |20020220>
    6   0.050394 0.002539574         272 |02020202>
    7   0.050394 0.002539574         271 |20202020>
    8   0.048729 0.002374560         270 |22002200>
    9   0.048729 0.002374559         269 |00220022>

  Spin state for root 0: S^2 = 0.000000, S = 0.000, singlet
  Diag takes 0.003659
 all alpha takes 0.007561
 all beta takes 0.006958
  2dif: 0.011098  
  4dif: 0.004712
 all alpha/beta takes 0.016067

  ==> NATURAL ORBITALS <==

        1A      1.919759      2A      1.899811      3A      1.860380  
        4A      1.794189      5A      0.211143      6A      0.138877  
        7A      0.097886      8A      0.077956  


  RDMS took 0.047639

  Adaptive-CI ran in : 13.554355 s

  Saving information for root: 0
  energy: -305.077828356

       -----------------------------------------------------------------
                            Semi-Canonical Orbitals
         Chenyang Li, Jeffrey B. Schriber and Francesco A. Evangelista
       -----------------------------------------------------------------

  Took 0.114629 s to build Fock matrix

  ==> Checking Fock Matrix Diagonal Blocks <==

    Off-Diag. Elements       Max           2-Norm
    ------------------------------------------------
    Fa actv              0.0892912868   0.2797187982
    Fb actv              0.0892912868   0.2797187982
    ------------------------------------------------
    Fa core              0.0006175065   0.0021945418
    Fb core              0.0006175065   0.0021945418
    ------------------------------------------------
    Fa virt              0.0011038614   0.0040413845
    Fb virt              0.0011038614   0.0040413845
    ------------------------------------------------

  ==> Integral Transformation to Semicanonical Basis <==

 Integrals are about to be computed.  DFHelper Memory: AOs need 0.010 GiB; user supplied 1.907 GiB. Using in-core AOs.


 Integrals are about to be updated.  DFHelper Memory: AOs need 0.011 GiB; user supplied 11.921 GiB. Using in-core AOs.



  ==> Reference Transformation to Semicanonical Basis <==

    Transformed 1 cumulants.
    Transformed 2 cumulants and RDMs.
    Transformed 3 cumulants.
  SemiCanonicalize takes 2.585507 s.

  ==> Multireference Driven Similarity Renormalization Group <==

    Reading DSRG options ............................ Done
    Setting ambit MO space .......................... Done
    Preparing tensors for density cumulants ......... Done
    Building Fock matrix ............................ Done
    Checking reference energy ....................... Done

                  --------------------------------------------
                      Density Fitted / Cholesky Decomposed
                    MR-DSRG Second-Order Perturbation Theory
                      Kevin Hannon and Chenyang (York) Li
                                    1 thread
                  --------------------------------------------

    References:
      u-DSRG-MRPT2:      J. Chem. Theory Comput. 2015, 11, 2097.
      DF/CD-DSRG-MRPT2:  J. Chem. Phys. 2016, 144, 204111.
      (pr-)DSRG-MRPT2:   J. Chem. Phys. 2017, 146, 124132.


  ==> Calculation Information <==

    Flow parameter                                 1.000e+10
    Taylor expansion threshold                     1.000e-03
    Cholesky tolerance                             1.000e-06
    Psi4 ref_type                                        RHF
    Integral type                                         DF
    Source operator                                 STANDARD
    CCVV algorithm                                 FLY_AMBIT
    CCVV source                                       NORMAL
    Reference relaxation                                ONCE
    State type                                STATE-SPECIFIC
    form Hbar3                                         FALSE

  ==> Checking Semicanonical Orbitals <==

    Abs. max of Fock core, active, virtual blocks (Fij, i != j)
                  core          active         virtual
    --------------------------------------------------
    F    0.0000000000    0.0000000000    0.0000000000
    F    0.0000000000    0.0000000000    0.0000000000
    --------------------------------------------------

    1-Norm of Fock core, active, virtual blocks (Fij, i != j)
                  core          active         virtual
    --------------------------------------------------
    F    0.0000000000    0.0000000000    0.0000000000
    F    0.0000000000    0.0000000000    0.0000000000
    --------------------------------------------------

    Orbitals are semi-canonicalized.

  ==> Computing DSRG-MRPT2 Energy <==

  Reference Energy = -305.077828356333612
    Computing T2                             ...... Done. Timing        0.068461 s
    Renormalizing V                          ...... Done. Timing        0.062740 s
    Computing T1                             ...... Done. Timing        0.001889 s
    Renormalizing F                          ...... Done. Timing        0.002182 s
    Computing <[F, T1]>                      ...... Done. Timing        0.000757 s
    Computing <[F, T2]>                      ...... Done. Timing        0.002362 s
    Computing <[V, T1]>                      ...... Done. Timing        0.002211 s
    Computing <[V, T2]> 4HH                  ...... Done. Timing        0.003151 s
    Computing <V, T2]> 4PP                   ...... Done. Timing        0.003255 s
    Computing [V, T2] 4PH                    ...... Done. Timing        0.014930 s
    Computing [V, T2] 3                     ...... Done. Timing        0.079912 s
    Computing <[V, T2]> (C_2)^4 (no ccvv)    ...... Done. Timing        0.013524 s
    Computing <[V, T2]> (C_2)^4 ccvv         ...... Done. Timing        0.040090 s
  Eccvv: -0.2177094816

  ==> DSRG-MRPT2 (DF/CD) Energy Summary <==

    E0 (reference)                 =   -305.077828356333612
    <[F, T1]>                      =     -0.000013562279988
    <[F, T2]>                      =     -0.000000000000000
    <[V, T1]>                      =     -0.000000000000000
    <[V, T2]> C_4 (C_2)^2 HH       =      0.005536782047162
    <[V, T2]> C_4 (C_2)^2 PP       =      0.004432699269240
    <[V, T2]> C_4 (C_2)^2 PH       =      0.100509998068644
    <[V, T2]> C_6 C_2              =      0.000000000000000
    <[V, T2]> (C_2)^4              =     -0.421910689662074
    <[V, T2]>                      =     -0.311431210277027
    DSRG-MRPT2 correlation energy  =     -0.311444772557016
    DSRG-MRPT2 total energy        =   -305.389273128890636
    max(T1)                        =      0.000585505571373
    ||T1||                         =      0.002937520319368

  ==> Form DSRG-PT2 Transformed Hamiltonian <==

    Initalizing Hbar                         ... Done. Timing:      0.006 s.
    Computing all-active Hbar                ... Done. Timing:      0.128 s.
 Computing ints for Heff

  ==> De-Normal-Order DSRG Transformed Hamiltonian <==

    Computing the scalar term                ... Done. Timing    0.001 s
    Computing the 1-body term                ... Done. Timing    0.000 s

  ==> Rotate DSRG Transformed Hamiltonian back to Original Basis <==

    Rotating 1-body term to original basis   ... Done. Timing    0.000 s
    Rotating 2-body term to original basis   ... Done. Timing    0.004 s
 done
  Number of active alpha electrons: 4
  Number of active beta electrons: 4
  Maximum reference space size: 1000
  Number of reference determinants: 225
  Reference generated from 7 MOs

        ---------------------------------------------------------------
                      Adaptive Configuration Interaction
          written by Jeffrey B. Schriber and Francesco A. Evangelista
        ---------------------------------------------------------------

  ==> Reference Information <==

  There are 25 frozen orbitals.
  There are 8 active orbitals.

  ==> Calculation Information <==

  -----------------------------------------------------------------
    Multiplicity                             1    
    Symmetry                                 0    
    Number of roots                          1    
    Root used for properties                 0    
    Sigma (Eh)                               1.00e-03
    Gamma (Eh^(-1))                          1.00e+00
    Convergence threshold                    1.00e-09
    Ms                                       0
    Diagonalization algorithm                DYNAMIC
    Determinant selection criterion          Second-order Energy
    Selection criterion                      Aimed selection
    Excited Algorithm                        ROOT_ORTHOGONALIZE
    Project out spin contaminants            True
    Enforce spin completeness of basis       True
    Enforce complete aimed selection         True
  -----------------------------------------------------------------
  Using 1 threads
  Computing wavefunction for root 0
  Using streamlined Q-space builder.

  ==> Cycle 0 <==

  Initial P space dimension: 225
  Spin-complete dimension of the P space: 225 determinants

  Davidson-Liu solver algorithm with dynamic sigma builds

 SigmaVectorDynamic:
 Maximum memory   : 10000000 double
 Number of threads: 1

  Initial guess space is incomplete!
  Trying to add 5 determinant(s).  5 determinant(s) added.
  Initial guess found 45 solutions with 2S+1 = 1 *
  Initial guess found 51 solutions with 2S+1 = 3  
  Initial guess found 9 solutions with 2S+1 = 5  
  Adding guess 0 (multiplicity = 1.000000)
  Adding guess 1 (multiplicity = 1.000000)

  ==> Diagonalizing Hamiltonian <==

  ----------------------------------------
    Iter.      Avg. Energy       Delta_E
  ----------------------------------------
      1     -404.842311291299  -4.048e+02
      2     -404.844089237476  -1.778e-03
      3     -404.844016188652  +7.305e-05
      4     -404.844020504199  -4.316e-06
      5     -404.844027851196  -7.347e-06
      6     -404.844027889284  -3.809e-08
      7     -404.844027826817  +6.247e-08
      8     -404.844027827175  -3.583e-10
      9     -404.844027822282  +4.893e-09
     10     -404.844027822359  -7.691e-11
     11     -404.844027890198  -6.784e-08
     12     -404.844027890198  -1.137e-13
     13     -404.844027888819  +1.379e-09
     14     -404.844027888819  +1.137e-13
     15     -404.844027888819  -2.274e-13
  ----------------------------------------
  The Davidson-Liu algorithm converged in 16 iterations.
  Davidson-Liu procedure took  0.075836 s
  Time spent diagonalizing H:   0.287229 s

    P-space  CI Energy Root   0        = -305.348856966719 Eh =   0.0000 eV

  Using batched Q_space algorithm
  Setting nbin to 1 based on estimated memory ( 1.331 MB)
  Overwriting nbin to 4 based on user input
 -----------------------------------------
                Bin 0
  Build: 0.581814
  Merge: 0.006661
  Inter-thread merge: 0.000000
    Build F                  0.589081 
    Build criteria vector    0.000992
    Screening                0.000155
    Added 43 dets of 1025 from bin 0
                Bin 1
  Build: 0.456067
  Merge: 0.006890
  Inter-thread merge: 0.000000
    Build F                  0.463272 
    Build criteria vector    0.000777
    Screening                0.000089
    Added 84 dets of 600 from bin 1
                Bin 2
  Build: 0.451624
  Merge: 0.006805
  Inter-thread merge: 0.000000
    Build F                  0.458633 
    Build criteria vector    0.000779
    Screening                0.000086
    Added 102 dets of 600 from bin 2
                Bin 3
  Build: 0.224862
  Merge: 0.007138
  Inter-thread merge: 0.000000
    Build F                  0.232089 
    Build criteria vector    0.001540
    Screening                0.000184
    Added 112 dets of 1250 from bin 3
 ------------------------------------
  Screened out 0.0004813248 Eh of correlation
  Dimension of the truncated SD space: 112 determinants
  Time spent building the external space (default): 1.748778 s

  Time spent sorting: 0.000014
  Added 1 missing determinants in aimed selection.
  Time spent selecting: 0.000038
  Dimension of the P + Q space: 280 determinants
  Time spent screening the model space: 0.000049 s
  Time spent building the model space: 1.748881
  Spin-complete dimension of the PQ space: 310

  Davidson-Liu solver algorithm with dynamic sigma builds

 SigmaVectorDynamic:
 Maximum memory   : 10000000 double
 Number of threads: 1

  Initial guess space is incomplete!
  Trying to add 13 determinant(s).  13 determinant(s) added.
  Initial guess found 47 solutions with 2S+1 = 1 *
  Initial guess found 54 solutions with 2S+1 = 3  
  Initial guess found 12 solutions with 2S+1 = 5  
  Adding guess 0 (multiplicity = 1.000000)
  Adding guess 1 (multiplicity = 1.000000)

  ==> Diagonalizing Hamiltonian <==

  ----------------------------------------
    Iter.      Avg. Energy       Delta_E
  ----------------------------------------
      1     -404.879423336132  -4.049e+02
      2     -404.888295096444  -8.872e-03
      3     -404.888519689518  -2.246e-04
      4     -404.888584742608  -6.505e-05
      5     -404.888618431088  -3.369e-05
      6     -404.888619559915  -1.129e-06
      7     -404.888620521015  -9.611e-07
      8     -404.888620539797  -1.878e-08
      9     -404.888620878061  -3.383e-07
     10     -404.888620879216  -1.154e-09
     11     -404.888620872850  +6.366e-09
     12     -404.888620872911  -6.145e-11
     13     -404.888620917166  -4.425e-08
     14     -404.888620917168  -2.615e-12
     15     -404.888620896479  +2.069e-08
     16     -404.888620896479  -7.390e-13
     17     -404.888620888185  +8.294e-09
     18     -404.888620888186  -5.116e-13
     19     -404.888620896718  -8.533e-09
     20     -404.888620896718  +0.000e+00
     21     -404.888620900082  -3.363e-09
     22     -404.888620900082  -1.137e-13
     23     -404.888620900082  -3.979e-13
  ----------------------------------------
  The Davidson-Liu algorithm converged in 24 iterations.
  Davidson-Liu procedure took  0.117428 s
  Total time spent diagonalizing H:   0.327788 s

    PQ-space CI Energy Root   0        = -305.393449977983 Eh =   0.0000 eV
    PQ-space CI Energy + EPT2 Root   0 = -305.394447823780 Eh =   0.0000 eV


  Most important contributions to root   0:
    0  -0.922981 0.851894628         224 |22220000>
    1   0.180628 0.032626435         128 |22020200>
    2   0.174333 0.030392009         278 |20220020>
    3   0.167215 0.027960938         208 |22202000>
    4   0.160153 0.025649048         277 |02220002>
    5  -0.036020 0.001297423         147 |22-++-00>
    6  -0.036020 0.001297423         189 |22+--+00>
    7  -0.033381 0.001114311         266 |+-2200-+>
    8  -0.033381 0.001114311         265 |-+2200+->
    9  -0.032447 0.001052792         272 |-22++00->

  Spin state for root 0: S^2 = 0.000000, S = 0.000, singlet
  Cycle 0 took: 2.368012 s

  ==> Cycle 1 <==

  Initial P space dimension: 86
  Spin-complete dimension of the P space: 106 determinants
  Time spent diagonalizing H:   0.006831 s

    P-space  CI Energy Root   0        = -305.391441474849 Eh =   0.0000 eV

  Using batched Q_space algorithm
  Setting nbin to 1 based on estimated memory ( 0.627 MB)
  Overwriting nbin to 4 based on user input
 -----------------------------------------
                Bin 0
  Build: 0.229697
  Merge: 0.003680
  Inter-thread merge: 0.000000
    Build F                  0.233478 
    Build criteria vector    0.001232
    Screening                0.000154
    Added 94 dets of 1021 from bin 0
                Bin 1
  Build: 0.226169
  Merge: 0.003569
  Inter-thread merge: 0.000000
    Build F                  0.229821 
    Build criteria vector    0.001151
    Screening                0.000133
    Added 145 dets of 932 from bin 1
                Bin 2
  Build: 0.169339
  Merge: 0.003614
  Inter-thread merge: 0.000000
    Build F                  0.173024 
    Build criteria vector    0.001174
    Screening                0.000130
    Added 168 dets of 918 from bin 2
                Bin 3
  Build: 0.171166
  Merge: 0.003684
  Inter-thread merge: 0.000000
    Build F                  0.174917 
    Build criteria vector    0.001262
    Screening                0.000145
    Added 183 dets of 1024 from bin 3
 ------------------------------------
  Screened out 0.0004871049 Eh of correlation
  Dimension of the truncated SD space: 183 determinants
  Time spent building the external space (default): 0.816977 s

  Time spent sorting: 0.000024
  Added 1 missing determinants in aimed selection.
  Time spent selecting: 0.000048
  Dimension of the P + Q space: 215 determinants
  Time spent screening the model space: 0.000059 s
  Time spent building the model space: 0.817097
  Spin-complete dimension of the PQ space: 261

  Davidson-Liu solver algorithm with dynamic sigma builds

 SigmaVectorDynamic:
 Maximum memory   : 10000000 double
 Number of threads: 1

  Initial guess space is incomplete!
  Trying to add 25 determinant(s).  25 determinant(s) added.
  Initial guess found 48 solutions with 2S+1 = 1 *
  Initial guess found 60 solutions with 2S+1 = 3  
  Initial guess found 17 solutions with 2S+1 = 5  
  Adding guess 0 (multiplicity = 1.000000)
  Adding guess 1 (multiplicity = 1.000000)

  ==> Diagonalizing Hamiltonian <==

  ----------------------------------------
    Iter.      Avg. Energy       Delta_E
  ----------------------------------------
      1     -404.879664787143  -4.049e+02
      2     -404.891310366539  -1.165e-02
      3     -404.892203422465  -8.931e-04
      4     -404.892378046986  -1.746e-04
      5     -404.892452389221  -7.434e-05
      6     -404.892455340685  -2.951e-06
      7     -404.892454781568  +5.591e-07
      8     -404.892454832783  -5.121e-08
      9     -404.892455746887  -9.141e-07
     10     -404.892455747792  -9.048e-10
     11     -404.892455696491  +5.130e-08
     12     -404.892455696535  -4.474e-11
     13     -404.892455696536  -9.095e-13
  ----------------------------------------
  The Davidson-Liu algorithm converged in 14 iterations.
  Davidson-Liu procedure took  0.077011 s
  Total time spent diagonalizing H:   0.290076 s

    PQ-space CI Energy Root   0        = -305.397284774437 Eh =   0.0000 eV
    PQ-space CI Energy + EPT2 Root   0 = -305.398277278686 Eh =   0.0000 eV


  Most important contributions to root   0:
    0   0.914206 0.835772549          85 |22220000>
    1  -0.181432 0.032917657          84 |22020200>
    2  -0.181357 0.032890498          83 |20220020>
    3  -0.169607 0.028766453          82 |22202000>
    4  -0.169005 0.028562768          81 |02220002>
    5   0.037647 0.001417286          76 |-22++00->
    6   0.037647 0.001417286          75 |+22--00+>
    7   0.036608 0.001340115          80 |22-++-00>
    8   0.036608 0.001340115          79 |22+--+00>
    9   0.036518 0.001333583          77 |-+2200+->

  Spin state for root 0: S^2 = 0.000000, S = 0.000, singlet
  Cycle 1 took: 1.116954 s

  ==> Cycle 2 <==

  Initial P space dimension: 172
  Spin-complete dimension of the P space: 233 determinants

  Davidson-Liu solver algorithm with dynamic sigma builds

 SigmaVectorDynamic:
 Maximum memory   : 10000000 double
 Number of threads: 1

  Initial guess space is incomplete!
  Trying to add 23 determinant(s).  23 determinant(s) added.
  Initial guess found 47 solutions with 2S+1 = 1 *
  Initial guess found 59 solutions with 2S+1 = 3  
  Initial guess found 17 solutions with 2S+1 = 5  
  Adding guess 0 (multiplicity = 1.000000)
  Adding guess 1 (multiplicity = 1.000000)

  ==> Diagonalizing Hamiltonian <==

  ----------------------------------------
    Iter.      Avg. Energy       Delta_E
  ----------------------------------------
      1     -404.879663827312  -4.049e+02
      2     -404.891085273668  -1.142e-02
      3     -404.891690342133  -6.051e-04
      4     -404.891809077948  -1.187e-04
      5     -404.891852313961  -4.324e-05
      6     -404.891853375431  -1.061e-06
      7     -404.891852676034  +6.994e-07
      8     -404.891852685688  -9.654e-09
      9     -404.891853051703  -3.660e-07
     10     -404.891853051811  -1.082e-10
     11     -404.891852987203  +6.461e-08
     12     -404.891852987268  -6.514e-11
     13     -404.891853021252  -3.398e-08
     14     -404.891853021286  -3.394e-11
     15     -404.891853054505  -3.322e-08
     16     -404.891853054509  -3.865e-12
     17     -404.891853067160  -1.265e-08
     18     -404.891853067161  -1.364e-12
     19     -404.891853052003  +1.516e-08
     20     -404.891853052004  -7.958e-13
     21     -404.891853054069  -2.065e-09
     22     -404.891853054070  -9.095e-13
     23     -404.891853053671  +3.984e-10
     24     -404.891853053672  -7.390e-13
     25     -404.891853055745  -2.073e-09
     26     -404.891853055746  -4.547e-13
     27     -404.891853055043  +7.029e-10
     28     -404.891853055043  -1.705e-13
     29     -404.891853056158  -1.115e-09
     30     -404.891853056159  -5.684e-14
     31     -404.891853055633  +5.255e-10
     32     -404.891853055633  -5.684e-14
     33     -404.891853056136  -5.028e-10
     34     -404.891853056136  +5.684e-14
     35     -404.891853056137  -8.527e-13
  ----------------------------------------
  The Davidson-Liu algorithm converged in 36 iterations.
  Davidson-Liu procedure took  0.108308 s
  Time spent diagonalizing H:   0.322406 s

    P-space  CI Energy Root   0        = -305.396682134037 Eh =   0.0000 eV

  Using batched Q_space algorithm
  Setting nbin to 1 based on estimated memory ( 1.378 MB)
  Overwriting nbin to 4 based on user input
 -----------------------------------------
                Bin 0
  Build: 0.523083
  Merge: 0.007460
  Inter-thread merge: 0.000000
    Build F                  0.530802 
    Build criteria vector    0.001403
    Screening                0.000183
    Added 78 dets of 1232 from bin 0
                Bin 1
  Build: 0.480495
  Merge: 0.007420
  Inter-thread merge: 0.000000
    Build F                  0.488131 
    Build criteria vector    0.001385
    Screening                0.000171
    Added 127 dets of 1186 from bin 1
                Bin 2
  Build: 0.400802
  Merge: 0.007480
  Inter-thread merge: 0.000000
    Build F                  0.408457 
    Build criteria vector    0.001444
    Screening                0.000178
    Added 153 dets of 1178 from bin 2
                Bin 3
  Build: 0.415350
  Merge: 0.007575
  Inter-thread merge: 0.000000
    Build F                  0.423125 
    Build criteria vector    0.001485
    Screening                0.000184
    Added 162 dets of 1238 from bin 3
 ------------------------------------
  Screened out 0.0004911332 Eh of correlation
  Dimension of the truncated SD space: 162 determinants
  Time spent building the external space (default): 1.857997 s

  Time spent sorting: 0.000021
  Time spent selecting: 0.000031
  Dimension of the P + Q space: 283 determinants
  Time spent screening the model space: 0.000042 s
  Time spent building the model space: 1.858099
  Spin-complete dimension of the PQ space: 283

  Davidson-Liu solver algorithm with dynamic sigma builds

 SigmaVectorDynamic:
 Maximum memory   : 10000000 double
 Number of threads: 1

  Initial guess space is incomplete!
  Trying to add 21 determinant(s).  21 determinant(s) added.
  Initial guess found 47 solutions with 2S+1 = 1 *
  Initial guess found 58 solutions with 2S+1 = 3  
  Initial guess found 16 solutions with 2S+1 = 5  
  Adding guess 0 (multiplicity = 1.000000)
  Adding guess 1 (multiplicity = 1.000000)

  ==> Diagonalizing Hamiltonian <==

  ----------------------------------------
    Iter.      Avg. Energy       Delta_E
  ----------------------------------------
      1     -404.879660951329  -4.049e+02
      2     -404.891455010588  -1.179e-02
      3     -404.892490272505  -1.035e-03
      4     -404.892704118327  -2.138e-04
      5     -404.892805310353  -1.012e-04
      6     -404.892811680775  -6.370e-06
      7     -404.892812003221  -3.224e-07
      8     -404.892812182088  -1.789e-07
      9     -404.892813940531  -1.758e-06
     10     -404.892813944469  -3.939e-09
     11     -404.892813941193  +3.277e-09
     12     -404.892813941193  -5.684e-14
     13     -404.892813929703  +1.149e-08
     14     -404.892813929703  -1.137e-13
     15     -404.892813920713  +8.991e-09
     16     -404.892813920713  -1.137e-13
     17     -404.892813916110  +4.603e-09
     18     -404.892813916110  -5.684e-14
     19     -404.892813907749  +8.361e-09
     20     -404.892813907750  -1.705e-13
     21     -404.892813899349  +8.401e-09
     22     -404.892813899349  -1.137e-13
     23     -404.892813895781  +3.568e-09
     24     -404.892813895781  -5.684e-14
     25     -404.892813883621  +1.216e-08
     26     -404.892813883621  -2.274e-13
     27     -404.892813910579  -2.696e-08
     28     -404.892813910579  +5.684e-14
     29     -404.892813910579  -1.137e-13
  ----------------------------------------
  The Davidson-Liu algorithm converged in 30 iterations.
  Davidson-Liu procedure took  0.111031 s
  Total time spent diagonalizing H:   0.321340 s

    PQ-space CI Energy Root   0        = -305.397642988479 Eh =   0.0000 eV
    PQ-space CI Energy + EPT2 Root   0 = -305.398641196803 Eh =   0.0000 eV


  Most important contributions to root   0:
    0  -0.913380 0.834263881         171 |22220000>
    1   0.181247 0.032850546         169 |20220020>
    2   0.181233 0.032845425         170 |22020200>
    3   0.169243 0.028643084         168 |22202000>
    4   0.169214 0.028633270         167 |02220002>
    5  -0.038002 0.001444172         166 |-22++00->
    6  -0.038002 0.001444172         165 |+22--00+>
    7  -0.037389 0.001397902         162 |-+2200+->
    8  -0.037389 0.001397902         161 |+-2200-+>
    9  -0.037375 0.001396927         164 |22-++-00>

  Spin state for root 0: S^2 = 0.000000, S = 0.000, singlet
  Cycle 2 took: 2.505400 s

  ==> Cycle 3 <==

  Initial P space dimension: 191
  Spin-complete dimension of the P space: 251 determinants

  Davidson-Liu solver algorithm with dynamic sigma builds

 SigmaVectorDynamic:
 Maximum memory   : 10000000 double
 Number of threads: 1

  Initial guess space is incomplete!
  Trying to add 21 determinant(s).  21 determinant(s) added.
  Initial guess found 47 solutions with 2S+1 = 1 *
  Initial guess found 58 solutions with 2S+1 = 3  
  Initial guess found 16 solutions with 2S+1 = 5  
  Adding guess 0 (multiplicity = 1.000000)
  Adding guess 1 (multiplicity = 1.000000)

  ==> Diagonalizing Hamiltonian <==

  ----------------------------------------
    Iter.      Avg. Energy       Delta_E
  ----------------------------------------
      1     -404.879660951329  -4.049e+02
      2     -404.891141308173  -1.148e-02
      3     -404.891998848985  -8.575e-04
      4     -404.892180879210  -1.820e-04
      5     -404.892262487687  -8.161e-05
      6     -404.892267508611  -5.021e-06
      7     -404.892267989990  -4.814e-07
      8     -404.892268126654  -1.367e-07
      9     -404.892269628559  -1.502e-06
     10     -404.892269631029  -2.470e-09
     11     -404.892269645091  -1.406e-08
     12     -404.892269645092  -5.684e-14
     13     -404.892269627668  +1.742e-08
     14     -404.892269627668  -5.684e-14
     15     -404.892269620930  +6.739e-09
     16     -404.892269620930  -5.684e-14
     17     -404.892269620930  -1.137e-13
  ----------------------------------------
  The Davidson-Liu algorithm converged in 18 iterations.
  Davidson-Liu procedure took  0.079336 s
  Time spent diagonalizing H:   0.290326 s

    P-space  CI Energy Root   0        = -305.397098698830 Eh =   0.0000 eV

  Using batched Q_space algorithm
  Setting nbin to 1 based on estimated memory ( 1.484 MB)
  Overwriting nbin to 4 based on user input
 -----------------------------------------
                Bin 0
  Build: 0.550630
  Merge: 0.007921
  Inter-thread merge: 0.000000
    Build F                  0.558794 
    Build criteria vector    0.001401
    Screening                0.000186
    Added 75 dets of 1240 from bin 0
                Bin 1
  Build: 0.526360
  Merge: 0.007876
  Inter-thread merge: 0.000000
    Build F                  0.534415 
    Build criteria vector    0.001388
    Screening                0.000169
    Added 122 dets of 1186 from bin 1
                Bin 2
  Build: 0.438046
  Merge: 0.007946
  Inter-thread merge: 0.000000
    Build F                  0.446142 
    Build criteria vector    0.001443
    Screening                0.000179
    Added 148 dets of 1186 from bin 2
                Bin 3
  Build: 0.443661
  Merge: 0.008279
  Inter-thread merge: 0.000000
    Build F                  0.452099 
    Build criteria vector    0.001492
    Screening                0.000183
    Added 157 dets of 1244 from bin 3
 ------------------------------------
  Screened out 0.0004929845 Eh of correlation
  Dimension of the truncated SD space: 157 determinants
  Time spent building the external space (default): 1.998599 s

  Time spent sorting: 0.000020
  Time spent selecting: 0.000026
  Dimension of the P + Q space: 289 determinants
  Time spent screening the model space: 0.000037 s
  Time spent building the model space: 1.998695
  Spin-complete dimension of the PQ space: 289

  Davidson-Liu solver algorithm with dynamic sigma builds

 SigmaVectorDynamic:
 Maximum memory   : 10000000 double
 Number of threads: 1

  Initial guess space is incomplete!
  Trying to add 17 determinant(s).  17 determinant(s) added.
  Initial guess found 46 solutions with 2S+1 = 1 *
  Initial guess found 56 solutions with 2S+1 = 3  
  Initial guess found 15 solutions with 2S+1 = 5  
  Adding guess 0 (multiplicity = 1.000000)
  Adding guess 1 (multiplicity = 1.000000)

  ==> Diagonalizing Hamiltonian <==

  ----------------------------------------
    Iter.      Avg. Energy       Delta_E
  ----------------------------------------
      1     -404.879027006216  -4.049e+02
      2     -404.891183581044  -1.216e-02
      3     -404.892474423564  -1.291e-03
      4     -404.892734957936  -2.605e-04
      5     -404.892869543174  -1.346e-04
      6     -404.892879279045  -9.736e-06
      7     -404.892880654105  -1.375e-06
      8     -404.892880937202  -2.831e-07
      9     -404.892883257553  -2.320e-06
     10     -404.892883263479  -5.926e-09
     11     -404.892883263479  +0.000e+00
  ----------------------------------------
  The Davidson-Liu algorithm converged in 12 iterations.
  Davidson-Liu procedure took  0.069728 s
  Total time spent diagonalizing H:   0.284149 s

    PQ-space CI Energy Root   0        = -305.397712341380 Eh =   0.0000 eV
    PQ-space CI Energy + EPT2 Root   0 = -305.398711227613 Eh =   0.0000 eV


  Most important contributions to root   0:
    0  -0.913203 0.833939033         190 |22220000>
    1   0.181042 0.032776284         189 |20220020>
    2   0.180947 0.032741835         188 |22020200>
    3   0.168950 0.028544224         187 |22202000>
    4   0.168926 0.028536065         186 |02220002>
    5  -0.038157 0.001455939         183 |-+2200+->
    6  -0.038157 0.001455939         182 |+-2200-+>
    7  -0.038147 0.001455210         180 |22+--+00>
    8  -0.038147 0.001455210         181 |22-++-00>
    9  -0.037933 0.001438940         184 |+22--00+>

  Spin state for root 0: S^2 = 0.000000, S = 0.000, singlet
  Cycle 3 took: 2.576819 s

  ==> Cycle 4 <==

  Initial P space dimension: 196
  Spin-complete dimension of the P space: 257 determinants

  Davidson-Liu solver algorithm with dynamic sigma builds

 SigmaVectorDynamic:
 Maximum memory   : 10000000 double
 Number of threads: 1

  Initial guess space is incomplete!
  Trying to add 17 determinant(s).  17 determinant(s) added.
  Initial guess found 46 solutions with 2S+1 = 1 *
  Initial guess found 56 solutions with 2S+1 = 3  
  Initial guess found 15 solutions with 2S+1 = 5  
  Adding guess 0 (multiplicity = 1.000000)
  Adding guess 1 (multiplicity = 1.000000)

  ==> Diagonalizing Hamiltonian <==

  ----------------------------------------
    Iter.      Avg. Energy       Delta_E
  ----------------------------------------
      1     -404.879027006216  -4.049e+02
      2     -404.890877148678  -1.185e-02
      3     -404.892007397019  -1.130e-03
      4     -404.892238575704  -2.312e-04
      5     -404.892353312527  -1.147e-04
      6     -404.892361399910  -8.087e-06
      7     -404.892362880070  -1.480e-06
      8     -404.892363107428  -2.274e-07
      9     -404.892365138758  -2.031e-06
     10     -404.892365142772  -4.014e-09
     11     -404.892365192169  -4.940e-08
     12     -404.892365192169  -2.274e-13
     13     -404.892365170685  +2.148e-08
     14     -404.892365170685  -5.684e-14
     15     -404.892365156971  +1.371e-08
     16     -404.892365156971  -1.137e-13
     17     -404.892365107547  +4.942e-08
     18     -404.892365107554  -6.651e-12
     19     -404.892365161613  -5.406e-08
     20     -404.892365161613  -5.684e-14
     21     -404.892365161614  -3.411e-13
  ----------------------------------------
  The Davidson-Liu algorithm converged in 22 iterations.
  Davidson-Liu procedure took  0.084985 s
  Time spent diagonalizing H:   0.295513 s

    P-space  CI Energy Root   0        = -305.397194239514 Eh =   0.0000 eV

  Using batched Q_space algorithm
  Setting nbin to 1 based on estimated memory ( 1.520 MB)
  Overwriting nbin to 4 based on user input
 -----------------------------------------
                Bin 0
  Build: 0.570871
  Merge: 0.008178
  Inter-thread merge: 0.000000
    Build F                  0.579246 
    Build criteria vector    0.001423
    Screening                0.000193
    Added 73 dets of 1242 from bin 0
                Bin 1
  Build: 0.542191
  Merge: 0.008134
  Inter-thread merge: 0.000000
    Build F                  0.550512 
    Build criteria vector    0.001381
    Screening                0.000172
    Added 118 dets of 1186 from bin 1
                Bin 2
  Build: 0.456206
  Merge: 0.008406
  Inter-thread merge: 0.000000
    Build F                  0.464786 
    Build criteria vector    0.001448
    Screening                0.000179
    Added 144 dets of 1186 from bin 2
                Bin 3
  Build: 0.448883
  Merge: 0.008244
  Inter-thread merge: 0.000000
    Build F                  0.457266 
    Build criteria vector    0.001491
    Screening                0.000183
    Added 153 dets of 1244 from bin 3
 ------------------------------------
  Screened out 0.0004951338 Eh of correlation
  Dimension of the truncated SD space: 153 determinants
  Time spent building the external space (default): 2.059000 s

  Time spent sorting: 0.000020
  Time spent selecting: 0.000017
  Dimension of the P + Q space: 291 determinants
  Time spent screening the model space: 0.000027 s
  Time spent building the model space: 2.059085
  Spin-complete dimension of the PQ space: 291

  Davidson-Liu solver algorithm with dynamic sigma builds

 SigmaVectorDynamic:
 Maximum memory   : 10000000 double
 Number of threads: 1

  Initial guess space is incomplete!
  Trying to add 17 determinant(s).  17 determinant(s) added.
  Initial guess found 46 solutions with 2S+1 = 1 *
  Initial guess found 56 solutions with 2S+1 = 3  
  Initial guess found 15 solutions with 2S+1 = 5  
  Adding guess 0 (multiplicity = 1.000000)
  Adding guess 1 (multiplicity = 1.000000)

  ==> Diagonalizing Hamiltonian <==

  ----------------------------------------
    Iter.      Avg. Energy       Delta_E
  ----------------------------------------
      1     -404.879027006216  -4.049e+02
      2     -404.891202399381  -1.218e-02
      3     -404.892494250649  -1.292e-03
      4     -404.892754889431  -2.606e-04
      5     -404.892889577750  -1.347e-04
      6     -404.892899311870  -9.734e-06
      7     -404.892900679115  -1.367e-06
      8     -404.892900961993  -2.829e-07
      9     -404.892903283861  -2.322e-06
     10     -404.892903289769  -5.908e-09
     11     -404.892903289769  -5.684e-14
  ----------------------------------------
  The Davidson-Liu algorithm converged in 12 iterations.
  Davidson-Liu procedure took  0.069666 s
  Total time spent diagonalizing H:   0.281850 s

    PQ-space CI Energy Root   0        = -305.397732367669 Eh =   0.0000 eV
    PQ-space CI Energy + EPT2 Root   0 = -305.398722829651 Eh =   0.0000 eV


  Most important contributions to root   0:
    0  -0.913170 0.833879670         195 |22220000>
    1   0.181027 0.032770895         194 |20220020>
    2   0.181014 0.032766174         193 |22020200>
    3   0.168938 0.028540123         192 |22202000>
    4   0.168911 0.028531094         191 |02220002>
    5  -0.038160 0.001456181         189 |+-2200-+>
    6  -0.038160 0.001456181         190 |-+2200+->
    7  -0.038154 0.001455738         188 |22+--+00>
    8  -0.038154 0.001455738         187 |22-++-00>
    9  -0.037930 0.001438704         186 |+22--00+>

  Spin state for root 0: S^2 = 0.000000, S = 0.000, singlet
  Cycle 4 took: 2.640198 s

  ==> Cycle 5 <==

  Initial P space dimension: 197
  Spin-complete dimension of the P space: 259 determinants

  Davidson-Liu solver algorithm with dynamic sigma builds

 SigmaVectorDynamic:
 Maximum memory   : 10000000 double
 Number of threads: 1

  Initial guess space is incomplete!
  Trying to add 17 determinant(s).  17 determinant(s) added.
  Initial guess found 46 solutions with 2S+1 = 1 *
  Initial guess found 56 solutions with 2S+1 = 3  
  Initial guess found 15 solutions with 2S+1 = 5  
  Adding guess 0 (multiplicity = 1.000000)
  Adding guess 1 (multiplicity = 1.000000)

  ==> Diagonalizing Hamiltonian <==

  ----------------------------------------
    Iter.      Avg. Energy       Delta_E
  ----------------------------------------
      1     -404.879027006216  -4.049e+02
      2     -404.890890352403  -1.186e-02
      3     -404.892047205748  -1.157e-03
      4     -404.892283775068  -2.366e-04
      5     -404.892402502309  -1.187e-04
      6     -404.892410889104  -8.387e-06
      7     -404.892412296905  -1.408e-06
      8     -404.892412533252  -2.363e-07
      9     -404.892414612969  -2.080e-06
     10     -404.892414617346  -4.378e-09
     11     -404.892414664755  -4.741e-08
     12     -404.892414664756  -1.137e-13
     13     -404.892414640645  +2.411e-08
     14     -404.892414640645  -1.137e-13
     15     -404.892414629117  +1.153e-08
     16     -404.892414629117  +0.000e+00
     17     -404.892414600819  +2.830e-08
     18     -404.892414600822  -3.354e-12
     19     -404.892414612598  -1.178e-08
     20     -404.892414612598  -2.842e-13
     21     -404.892414615258  -2.659e-09
     22     -404.892414615258  +0.000e+00
     23     -404.892414615258  -6.253e-13
  ----------------------------------------
  The Davidson-Liu algorithm converged in 24 iterations.
  Davidson-Liu procedure took  0.090118 s
  Time spent diagonalizing H:   0.301579 s

    P-space  CI Energy Root   0        = -305.397243693159 Eh =   0.0000 eV

  Using batched Q_space algorithm
  Setting nbin to 1 based on estimated memory ( 1.532 MB)
  Overwriting nbin to 4 based on user input
 -----------------------------------------
                Bin 0
  Build: 0.589645
  Merge: 0.008570
  Inter-thread merge: 0.000000
    Build F                  0.598395 
    Build criteria vector    0.001398
    Screening                0.000185
    Added 73 dets of 1242 from bin 0
                Bin 1
  Build: 0.549484
  Merge: 0.008530
  Inter-thread merge: 0.000000
    Build F                  0.558206 
    Build criteria vector    0.001381
    Screening                0.000170
    Added 117 dets of 1188 from bin 1
                Bin 2
  Build: 0.446032
  Merge: 0.008614
  Inter-thread merge: 0.000000
    Build F                  0.454800 
    Build criteria vector    0.001446
    Screening                0.000179
    Added 143 dets of 1186 from bin 2
                Bin 3
  Build: 0.458201
  Merge: 0.008850
  Inter-thread merge: 0.000000
    Build F                  0.467225 
    Build criteria vector    0.001539
    Screening                0.000184
    Added 152 dets of 1244 from bin 3
 ------------------------------------
  Screened out 0.0004983098 Eh of correlation
  Dimension of the truncated SD space: 152 determinants
  Time spent building the external space (default): 2.085688 s

  Time spent sorting: 0.000020
  Time spent selecting: 0.000015
  Dimension of the P + Q space: 291 determinants
  Time spent screening the model space: 0.000026 s
  Time spent building the model space: 2.085772
  Spin-complete dimension of the PQ space: 291

  Davidson-Liu solver algorithm with dynamic sigma builds

 SigmaVectorDynamic:
 Maximum memory   : 10000000 double
 Number of threads: 1

  Initial guess space is incomplete!
  Trying to add 17 determinant(s).  17 determinant(s) added.
  Initial guess found 46 solutions with 2S+1 = 1 *
  Initial guess found 56 solutions with 2S+1 = 3  
  Initial guess found 15 solutions with 2S+1 = 5  
  Adding guess 0 (multiplicity = 1.000000)
  Adding guess 1 (multiplicity = 1.000000)

  ==> Diagonalizing Hamiltonian <==

  ----------------------------------------
    Iter.      Avg. Energy       Delta_E
  ----------------------------------------
      1     -404.879027006216  -4.049e+02
      2     -404.891202399381  -1.218e-02
      3     -404.892494250649  -1.292e-03
      4     -404.892754889431  -2.606e-04
      5     -404.892889577750  -1.347e-04
      6     -404.892899311870  -9.734e-06
      7     -404.892900679115  -1.367e-06
      8     -404.892900961993  -2.829e-07
      9     -404.892903283861  -2.322e-06
     10     -404.892903289769  -5.908e-09
     11     -404.892903289769  -5.684e-14
  ----------------------------------------
  The Davidson-Liu algorithm converged in 12 iterations.
  Davidson-Liu procedure took  0.069872 s
  Total time spent diagonalizing H:   0.279801 s

    PQ-space CI Energy Root   0        = -305.397732367669 Eh =   0.0000 eV
    PQ-space CI Energy + EPT2 Root   0 = -305.398731738959 Eh =   0.0000 eV

  ***** Calculation Converged *****
  Saving root 0, ref_root is 0
  Number of old roots: 1

  ==> ACI Summary <==

  Iterations required:                         5
  Dimension of optimized determinant space:    291

  * Adaptive-CI Energy Root   0        = -305.397732367669 Eh =   0.0000 eV
  * Adaptive-CI Energy Root   0 + EPT2 = -305.398731738959 Eh =   0.0000 eV

  ==> Wavefunction Information <==

  Most important contributions to root   0:
    0  -0.913170 0.833879670         196 |22220000>
    1   0.181027 0.032770895         195 |20220020>
    2   0.181014 0.032766174         194 |22020200>
    3   0.168938 0.028540123         193 |22202000>
    4   0.168911 0.028531094         192 |02220002>
    5  -0.038160 0.001456181         191 |+-2200-+>
    6  -0.038160 0.001456181         190 |-+2200+->
    7  -0.038154 0.001455738         189 |22+--+00>
    8  -0.038154 0.001455738         188 |22-++-00>
    9  -0.037930 0.001438704         187 |+22--00+>

  Spin state for root 0: S^2 = 0.000000, S = 0.000, singlet
  Diag takes 0.002011
 all alpha takes 0.003301
 all beta takes 0.002964
  2dif: 0.004504  
  4dif: 0.001647
 all alpha/beta takes 0.006307

  ==> NATURAL ORBITALS <==

        1A      1.952649      2A      1.938962      3A      1.903979  
        4A      1.855520      5A      0.148601      6A      0.094126  
        7A      0.060745      8A      0.045417  


  RDMS took 0.026664

  Adaptive-CI ran in : 13.905025 s

  Saving information for root: 0

  ==> CD/DF DSRG-MRPT2 Energy Summary <==

    CD/DF DSRG-MRPT2 Total Energy (fixed)   =   -305.389273128890636
    CD/DF DSRG-MRPT2 Total Energy (relaxed) =   -305.397732367669164

  ==> Total Timings (s) for Computing Commutators <==

             [H1, T1]    [H1, T2]    [H2, T1]    [H2, T2]
    -----------------------------------------------------
    -> C0       0.001       0.002       0.002       0.075
    -> C1       0.001       0.004       0.003       0.068
    -> C2                   0.006       0.006       0.040
    -----------------------------------------------------

 CD/DF DSRG-MRPT2 took 31.05062 s.	ACI-DSRG-MRPT2 fixed energy.......................................PASSED
	ACI-DSRG-MRPT2 relaxed energy.....................................PASSED

    Psi4 stopped on: Monday, 17 December 2018 12:08PM
    Psi4 wall time for execution: 0:00:39.17

*** Psi4 exiting successfully. Buy a developer a beer!
