
    -----------------------------------------------------------------------
          Psi4: An Open-Source Ab Initio Electronic Structure Package
                               Psi4 undefined 

                         Git: Rev {master} 3c26e8e 


    R. M. Parrish, L. A. Burns, D. G. A. Smith, A. C. Simmonett,
    A. E. DePrince III, E. G. Hohenstein, U. Bozkaya, A. Yu. Sokolov,
    R. Di Remigio, R. M. Richard, J. F. Gonthier, A. M. James,
    H. R. McAlexander, A. Kumar, M. Saitow, X. Wang, B. P. Pritchard,
    P. Verma, H. F. Schaefer III, K. Patkowski, R. A. King, E. F. Valeev,
    F. A. Evangelista, J. M. Turney, T. D. Crawford, and C. D. Sherrill,
    J. Chem. Theory Comput. 13(7) pp 3185--3197 (2017).
    (doi: 10.1021/acs.jctc.7b00174)


                         Additional Contributions by
    P. Kraus, H. Kruse, M. H. Lechner, M. C. Schieber, and R. A. Shaw

    -----------------------------------------------------------------------


    Psi4 started on: Thursday, 25 October 2018 03:47PM

    Process ID: 92273
    Host:       jeffschriber
    PSIDATADIR: /Users/jeffschriber/src/psi4-debug-install/share/psi4
    Memory:     500.0 MiB
    Threads:    1
    
  ==> Input File <==

--------------------------------------------------------------------------
import forte

memory 2 gb

escf = -304.9057795504940600
efix = -305.390029668114494 
eaci = -305.398101397722598 

molecule ene2{
0 1

    C            0.335863347908    -0.638024351991     0.000000000207
    H            1.432938644893    -0.620850793123     0.000000000280
    C           -0.296842800370    -1.839541056853     0.000000000164
    H           -1.393739522764    -1.860704439495     0.000000000280
    C            0.383204758655    -3.118962138239     0.000000000233
    H            1.479554406702    -3.087254985300     0.000000001289
    C           -0.237579194060    -4.313790051647    -0.000000000740
    H            0.325161338012    -5.249189944735    -0.000000000503
    H           -1.329245280272    -4.386987205251    -0.000000001655
    C           -0.335863360640     0.638024352182     0.000000000468
    H           -1.432938656420     0.620850793004     0.000000000922
    C            0.296842792408     1.839541055584     0.000000000041
    H            1.393739512934     1.860704430863    -0.000000000539
    C           -0.383204755743     3.118962141979     0.000000000141
    H           -1.479554404938     3.087254999541     0.000000000472
    C            0.237579209937     4.313790049182    -0.000000000431
    H            1.329245296894     4.386987192215    -0.000000001010
    H           -0.325161312367     5.249189949931    -0.000000000534

units angstrom
symmetry c1
}

set {
  basis sto-3g 
  df_basis_mp2 cc-pvdz-ri 
  df_basis_scf cc-pvdz-jkfit 
  scf_type df
  guess sad
  maxiter 500
  e_convergence 10
  d_convergence 10
  r_convergence 10
  reference rhf
}

set forte {
  multiplicity 1
  int_type df
  job_type three-dsrg-mrpt2
  frozen_docc      [8]
  restricted_docc  [17]
  active           [8]
  cas_type aci
  sigma 0.001
  diag_algorithm dynamic
  aci_direct_rdms true
  aci_batched_screening true
  aci_batch_alg vector
  aci_nbatch 4
  nroot 1
  root_sym 0
  charge 0
  print_no true
  relax_ref once
}

set_num_threads(8)

e, scf_wfn = energy('scf', return_wfn=True)

compare_values(escf,get_variable("CURRENT ENERGY"), 9, "SCF energy") 

energy('forte', ref_wfn=scf_wfn)
compare_values(efix,get_variable("UNRELAXED ENERGY"), 9, "ACI-DSRG-MRPT2 fixed energy")
compare_values(eaci,get_variable("CURRENT ENERGY"), 9, "ACI-DSRG-MRPT2 relaxed energy") 



--------------------------------------------------------------------------

  Memory set to   1.863 GiB by Python driver.
  Threads set to 8 by Python driver.

*** tstart() called on jeffschriber
*** at Thu Oct 25 15:47:26 2018

   => Loading Basis Set <=

    Name: STO-3G
    Role: ORBITAL
    Keyword: BASIS
    atoms 1, 3, 5, 7, 10, 12, 14, 16      entry C          line    61 file /Users/jeffschriber/src/psi4-debug-install/share/psi4/basis/sto-3g.gbs 
    atoms 2, 4, 6, 8-9, 11, 13, 15, 17-18 entry H          line    19 file /Users/jeffschriber/src/psi4-debug-install/share/psi4/basis/sto-3g.gbs 


         ---------------------------------------------------------
                                   SCF
            by Justin Turney, Rob Parrish, Andy Simmonett
                             and Daniel Smith
                              RHF Reference
                        8 Threads,   1907 MiB Core
         ---------------------------------------------------------

  ==> Geometry <==

    Molecular point group: c1
    Full point group: Cs

    Geometry (in Angstrom), charge = 0, multiplicity = 1:

       Center              X                  Y                   Z               Mass       
    ------------   -----------------  -----------------  -----------------  -----------------
         C            0.335863347908    -0.638024351991     0.000000000207    12.000000000000
         H            1.432938644893    -0.620850793123     0.000000000280     1.007825032070
         C           -0.296842800370    -1.839541056853     0.000000000164    12.000000000000
         H           -1.393739522764    -1.860704439495     0.000000000280     1.007825032070
         C            0.383204758655    -3.118962138239     0.000000000233    12.000000000000
         H            1.479554406702    -3.087254985300     0.000000001289     1.007825032070
         C           -0.237579194060    -4.313790051647    -0.000000000740    12.000000000000
         H            0.325161338012    -5.249189944735    -0.000000000503     1.007825032070
         H           -1.329245280272    -4.386987205251    -0.000000001655     1.007825032070
         C           -0.335863360640     0.638024352182     0.000000000468    12.000000000000
         H           -1.432938656420     0.620850793004     0.000000000922     1.007825032070
         C            0.296842792408     1.839541055584     0.000000000041    12.000000000000
         H            1.393739512934     1.860704430863    -0.000000000539     1.007825032070
         C           -0.383204755743     3.118962141979     0.000000000141    12.000000000000
         H           -1.479554404938     3.087254999541     0.000000000472     1.007825032070
         C            0.237579209937     4.313790049182    -0.000000000431    12.000000000000
         H            1.329245296894     4.386987192215    -0.000000001010     1.007825032070
         H           -0.325161312367     5.249189949931    -0.000000000534     1.007825032070

  Running in c1 symmetry.

  Rotational constants: A =      0.65101  B =      0.01889  C =      0.01836 [cm^-1]
  Rotational constants: A =  19516.70371  B =    566.30750  C =    550.33857 [MHz]
  Nuclear repulsion =  296.638713598584616

  Charge       = 0
  Multiplicity = 1
  Electrons    = 58
  Nalpha       = 29
  Nbeta        = 29

  ==> Algorithm <==

  SCF Algorithm Type is DF.
  DIIS enabled.
  MOM disabled.
  Fractional occupation disabled.
  Guess Type is SAD.
  Energy threshold   = 1.00e-10
  Density threshold  = 1.00e-10
  Integral threshold = 0.00e+00

  ==> Primary Basis <==

  Basis Set: STO-3G
    Blend: STO-3G
    Number of shells: 34
    Number of basis function: 50
    Number of Cartesian functions: 50
    Spherical Harmonics?: true
    Max angular momentum: 1

   => Loading Basis Set <=

    Name: CC-PVDZ-JKFIT
    Role: JKFIT
    Keyword: DF_BASIS_SCF
    atoms 1, 3, 5, 7, 10, 12, 14, 16      entry C          line   121 file /Users/jeffschriber/src/psi4-debug-install/share/psi4/basis/cc-pvdz-jkfit.gbs 
    atoms 2, 4, 6, 8-9, 11, 13, 15, 17-18 entry H          line    51 file /Users/jeffschriber/src/psi4-debug-install/share/psi4/basis/cc-pvdz-jkfit.gbs 

  ==> Pre-Iterations <==

   -------------------------------------------------------
    Irrep   Nso     Nmo     Nalpha   Nbeta   Ndocc  Nsocc
   -------------------------------------------------------
     A         50      50       0       0       0       0
   -------------------------------------------------------
    Total      50      50      29      29      29       0
   -------------------------------------------------------

  ==> Integral Setup <==

  DFHelper Memory: AOs need 0.014 GiB; user supplied 1.397 GiB. Using in-core AOs.

  ==> MemDFJK: Density-Fitted J/K Matrices <==

    J tasked:                   Yes
    K tasked:                   Yes
    wK tasked:                   No
    OpenMP threads:               8
    Memory [MiB]:              1430
    Algorithm:                 Core
    Schwarz Cutoff:           1E-12
    Mask sparsity (%):       9.0400
    Fitting Condition:        1E-12

   => Auxiliary Basis Set <=

  Basis Set: CC-PVDZ-JKFIT
    Blend: CC-PVDZ-JKFIT
    Number of shells: 282
    Number of basis function: 790
    Number of Cartesian functions: 898
    Spherical Harmonics?: true
    Max angular momentum: 3

  Minimum eigenvalue in the overlap matrix is 1.8898432078E-01.
  Using Symmetric Orthogonalization.

  SCF Guess: Superposition of Atomic Densities via on-the-fly atomic UHF.

  ==> Iterations <==

                           Total Energy        Delta E     RMS |[F,P]|

   @DF-RHF iter   0:  -306.83632951290417   -3.06836e+02   8.48524e-02 
   @DF-RHF iter   1:  -304.85805473161241    1.97827e+00   4.33264e-03 
   @DF-RHF iter   2:  -304.89993859393320   -4.18839e-02   1.44204e-03 DIIS
   @DF-RHF iter   3:  -304.90464026200635   -4.70167e-03   6.04253e-04 DIIS
   @DF-RHF iter   4:  -304.90568025287570   -1.03999e-03   1.38889e-04 DIIS
   @DF-RHF iter   5:  -304.90577357652808   -9.33237e-05   3.35095e-05 DIIS
   @DF-RHF iter   6:  -304.90577925963191   -5.68310e-06   8.71153e-06 DIIS
   @DF-RHF iter   7:  -304.90577951435750   -2.54726e-07   3.06779e-06 DIIS
   @DF-RHF iter   8:  -304.90577954332292   -2.89654e-08   1.28115e-06 DIIS
   @DF-RHF iter   9:  -304.90577955035661   -7.03369e-09   1.63144e-07 DIIS
   @DF-RHF iter  10:  -304.90577955049025   -1.33639e-10   2.75656e-08 DIIS
   @DF-RHF iter  11:  -304.90577955049406   -3.80851e-12   5.90119e-09 DIIS
   @DF-RHF iter  12:  -304.90577955049434   -2.84217e-13   1.58505e-09 DIIS
   @DF-RHF iter  13:  -304.90577955049389    4.54747e-13   3.28090e-10 DIIS
   @DF-RHF iter  14:  -304.90577955049383    5.68434e-14   4.18494e-11 DIIS
  Energy converged.


  ==> Post-Iterations <==

    Orbital Energies [Eh]
    ---------------------

    Doubly Occupied:                                                      

       1A    -11.031463     2A    -11.031463     3A    -11.030022  
       4A    -11.029944     5A    -11.029029     6A    -11.029029  
       7A    -11.017273     8A    -11.017272     9A     -1.054452  
      10A     -1.022461    11A     -0.972841    12A     -0.910398  
      13A     -0.799624    14A     -0.726577    15A     -0.712392  
      16A     -0.696778    17A     -0.608018    18A     -0.592151  
      19A     -0.566877    20A     -0.529785    21A     -0.507590  
      22A     -0.482012    23A     -0.466177    24A     -0.448857  
      25A     -0.431943    26A     -0.427940    27A     -0.379530  
      28A     -0.302489    29A     -0.205538  

    Virtual:                                                              

      30A      0.178749    31A      0.294211    32A      0.396674  
      33A      0.465433    34A      0.552373    35A      0.608844  
      36A      0.656945    37A      0.676380    38A      0.678211  
      39A      0.689426    40A      0.689961    41A      0.695974  
      42A      0.697874    43A      0.824020    44A      0.831403  
      45A      0.912966    46A      0.929715    47A      1.002591  
      48A      1.014854    49A      1.076008    50A      1.109031  

    Final Occupation by Irrep:
              A 
    DOCC [    29 ]

  @DF-RHF Final Energy:  -304.90577955049383

   => Energetics <=

    Nuclear Repulsion Energy =            296.6387135985846157
    One-Electron Energy =               -1000.9691385375912205
    Two-Electron Energy =                 399.4246453885128290
    Total Energy =                       -304.9057795504938326

Computation Completed


Properties will be evaluated at   0.000000,   0.000000,   0.000000 [a0]

Properties computed using the SCF density matrix

  Nuclear Dipole Moment: [e a0]
     X:     0.0000      Y:    -0.0000      Z:    -0.0000

  Electronic Dipole Moment: [e a0]
     X:    -0.0000      Y:     0.0000      Z:     0.0000

  Dipole Moment: [e a0]
     X:     0.0000      Y:     0.0000      Z:     0.0000     Total:     0.0000

  Dipole Moment: [D]
     X:     0.0000      Y:     0.0000      Z:     0.0000     Total:     0.0000


*** tstop() called on jeffschriber at Thu Oct 25 15:47:30 2018
Module time:
	user time   =       5.68 seconds =       0.09 minutes
	system time =       3.00 seconds =       0.05 minutes
	total time  =          4 seconds =       0.07 minutes
Total time:
	user time   =       5.68 seconds =       0.09 minutes
	system time =       3.00 seconds =       0.05 minutes
	total time  =          4 seconds =       0.07 minutes
	SCF energy........................................................PASSED
   => Loading Basis Set <=

    Name: CC-PVDZ-RI
    Role: RIFIT
    Keyword: DF_BASIS_MP2
    atoms 1, 3, 5, 7, 10, 12, 14, 16      entry C          line   159 file /Users/jeffschriber/src/psi4-debug-install/share/psi4/basis/cc-pvdz-ri.gbs 
    atoms 2, 4, 6, 8-9, 11, 13, 15, 17-18 entry H          line    19 file /Users/jeffschriber/src/psi4-debug-install/share/psi4/basis/cc-pvdz-ri.gbs 

   => Loading Basis Set <=

    Name: STO-3G
    Role: ORBITAL
    Keyword: MINAO_BASIS
    atoms 1, 3, 5, 7, 10, 12, 14, 16      entry C          line    61 file /Users/jeffschriber/src/psi4-debug-install/share/psi4/basis/sto-3g.gbs 
    atoms 2, 4, 6, 8-9, 11, 13, 15, 17-18 entry H          line    19 file /Users/jeffschriber/src/psi4-debug-install/share/psi4/basis/sto-3g.gbs 


Reading options from the FORTE block
Calling plugin forte.so.



  Forte
  ----------------------------------------------------------------------------
  A suite of quantum chemistry methods for strongly correlated electrons

    git branch: master - git commit: 9480afcf

  Developed by:
    Francesco A. Evangelista, Chenyang Li, Kevin P. Hannon,
    Jeffrey B. Schriber, Tianyuan Zhang, Chenxi Cai
  ----------------------------------------------------------------------------

  Size of Determinant class: 16

  ==> MO Space Information <==

  Read options for space FROZEN_DOCC
  Read options for space RESTRICTED_DOCC
  Read options for space ACTIVE
  -------------------------------
                        A   Sum
  -------------------------------
    FROZEN_DOCC         8     8
    RESTRICTED_DOCC    17    17
    ACTIVE              8     8
    RESTRICTED_UOCC    17    17
    FROZEN_UOCC         0     0
    Total              50    50
  -------------------------------

  ==> Integral Transformation <==

  Number of molecular orbitals:                    50
  Number of correlated molecular orbitals:         42
  Number of frozen occupied orbitals:               8
  Number of frozen unoccupied orbitals:             0
  Two-electron integral type:              Density fitting


  Computing Density fitted integrals 

  Number of auxiliary basis functions:  588
  Need 11.76 MB to store DF integrals
  DFHelper Memory: AOs need 0.010 GiB; user supplied 1.907 GiB. Using in-core AOs.


  Transforming DF Integrals            ......Done.
  Timing for density-fitting transformation:                  0.063 s.
  DFHelper Memory: AOs need 0.011 GiB; user supplied 11.921 GiB. Using in-core AOs.


  Frozen-core energy           -397.044912338556 a.u.
  Timing for frozen one-body operator:                        0.843 s.
  Resorting integrals after freezing core.
  Timing for resorting DF integrals:                          0.061 s.
  Timing for freezing core and virtual orbitals:              0.906 s.
  Timing for computing density-fitted integrals:              2.000 s.
  Number of active alpha electrons: 4
  Number of active beta electrons: 4
  Maximum reference space size: 1000
  Number of reference determinants: 225
  Reference generated from 7 MOs

        ---------------------------------------------------------------
                      Adaptive Configuration Interaction
          written by Jeffrey B. Schriber and Francesco A. Evangelista
        ---------------------------------------------------------------

  ==> Reference Information <==

  There are 25 frozen orbitals.
  There are 8 active orbitals.

  ==> Calculation Information <==

  -----------------------------------------------------------------
    Multiplicity                             1    
    Symmetry                                 0    
    Number of roots                          1    
    Root used for properties                 0    
    Sigma (Eh)                               1.00e-03
    Gamma (Eh^(-1))                          1.00e+00
    Convergence threshold                    1.00e-09
    Ms                                       0
    Diagonalization algorithm                DYNAMIC
    Determinant selection criterion          Second-order Energy
    Selection criterion                      Aimed selection
    Excited Algorithm                        ROOT_ORTHOGONALIZE
    Project out spin contaminants            True
    Enforce spin completeness of basis       True
    Enforce complete aimed selection         True
  -----------------------------------------------------------------
  Using 8 threads
  Computing wavefunction for root 0
  Using streamlined Q-space builder.

  ==> Cycle 0 <==

  Initial P space dimension: 225
  Spin-complete dimension of the P space: 225 determinants

  Davidson-Liu solver algorithm with dynamic sigma builds

 SigmaVectorDynamic:
 Maximum memory   : 10000000 double
 Number of threads: 8

  Initial guess space is incomplete!
  Trying to add 3 determinant(s).  3 determinant(s) added.
  Initial guess found 48 solutions with 2S+1 = 1 *
  Initial guess found 48 solutions with 2S+1 = 3  
  Initial guess found 7 solutions with 2S+1 = 5  
  Adding guess 0 (multiplicity = 1.000000)
  Adding guess 1 (multiplicity = 1.000000)

  ==> Diagonalizing Hamiltonian <==

  ----------------------------------------
    Iter.      Avg. Energy       Delta_E
  ----------------------------------------
      1     -405.500712739364  -4.055e+02
      2     -405.504333228431  -3.620e-03
      3     -405.504512514239  -1.793e-04
      4     -405.504533523485  -2.101e-05
      5     -405.504538590759  -5.067e-06
      6     -405.504538914385  -3.236e-07
      7     -405.504538953078  -3.869e-08
      8     -405.504538960441  -7.362e-09
      9     -405.504538962257  -1.817e-09
     10     -405.504538962486  -2.285e-10
     11     -405.504538962516  -3.041e-11
  ----------------------------------------
  The Davidson-Liu algorithm converged in 12 iterations.
  Davidson-Liu procedure took  0.032957 s
  Time spent diagonalizing H:   0.317365 s

    P-space  CI Energy Root   0        = -304.961117486802 Eh =   0.0000 eV

  Using batched Q_space algorithm
  Setting nbin to 1 based on estimated memory ( 1.331 MB)
  Overwriting nbin to 4 based on user input
 -----------------------------------------
                Bin 0
  Build: 0.000911
  Merge: 0.000059
  Inter-thread merge: 0.001085
    Build F                  0.006115 
    Build criteria vector    0.000125
    Screening                0.000275
    Added 122 dets of 3163 from bin 0
                Bin 1
  Build: 0.001293
  Merge: 0.000077
  Inter-thread merge: 0.000884
    Build F                  0.004625 
    Build criteria vector    0.000121
    Screening                0.000271
    Added 205 dets of 2756 from bin 1
                Bin 2
  Build: 0.001233
  Merge: 0.000075
  Inter-thread merge: 0.000767
    Build F                  0.003873 
    Build criteria vector    0.000118
    Screening                0.000232
    Added 232 dets of 2661 from bin 2
                Bin 3
  Build: 0.001213
  Merge: 0.000071
  Inter-thread merge: 0.000560
    Build F                  0.003281 
    Build criteria vector    0.000153
    Screening                0.000253
    Added 347 dets of 2528 from bin 3
 ------------------------------------
  Screened out 0.0004929198 Eh of correlation
  Dimension of the truncated SD space: 347 determinants
  Time spent building the external space (default): 0.020104 s

  Time spent sorting: 0.000069
  Added 1 missing determinants in aimed selection.
  Time spent selecting: 0.000085
  Dimension of the P + Q space: 464 determinants
  Time spent screening the model space: 0.000106 s
  Time spent building the model space: 0.020371
  Spin-complete dimension of the PQ space: 620

  Davidson-Liu solver algorithm with dynamic sigma builds

 SigmaVectorDynamic:
 Maximum memory   : 10000000 double
 Number of threads: 8

  Initial guess space is incomplete!
  Trying to add 14 determinant(s).  14 determinant(s) added.
  Initial guess found 50 solutions with 2S+1 = 1 *
  Initial guess found 54 solutions with 2S+1 = 3  
  Initial guess found 10 solutions with 2S+1 = 5  
  Adding guess 0 (multiplicity = 1.000000)
  Adding guess 1 (multiplicity = 1.000000)

  ==> Diagonalizing Hamiltonian <==

  ----------------------------------------
    Iter.      Avg. Energy       Delta_E
  ----------------------------------------
      1     -405.530961001277  -4.055e+02
      2     -405.605069421735  -7.411e-02
      3     -405.610720485443  -5.651e-03
      4     -405.611593813470  -8.733e-04
      5     -405.611850395995  -2.566e-04
      6     -405.611877849067  -2.745e-05
      7     -405.611886342814  -8.494e-06
      8     -405.611888125508  -1.783e-06
      9     -405.611888604730  -4.792e-07
     10     -405.611888703204  -9.847e-08
     11     -405.611888729831  -2.663e-08
     12     -405.611888736613  -6.782e-09
     13     -405.611888738773  -2.160e-09
     14     -405.611888739363  -5.896e-10
     15     -405.611888739529  -1.665e-10
     16     -405.611888739578  -4.934e-11
  ----------------------------------------
  The Davidson-Liu algorithm converged in 17 iterations.
  Davidson-Liu procedure took  0.067576 s
  Total time spent diagonalizing H:   0.353850 s

    PQ-space CI Energy Root   0        = -305.068467263864 Eh =   0.0000 eV
    PQ-space CI Energy + EPT2 Root   0 = -305.069462403895 Eh =   0.0000 eV


  Most important contributions to root   0:
    0   0.880772 0.775760115         224 |22220000>
    1  -0.199099 0.039640603         208 |22202000>
    2   0.105304 0.011088828         189 |22+--+00>
    3   0.105304 0.011088828         147 |22-++-00>
    4  -0.095393 0.009099914         128 |22020200>
    5  -0.077741 0.006043605         460 |2+2--0+0>
    6  -0.077741 0.006043605         459 |2-2++0-0>
    7   0.076980 0.005925963         461 |-22++00->
    8   0.076980 0.005925963         462 |+22--00+>
    9   0.073502 0.005402473         203 |22+-+-00>

  Spin state for root 0: S^2 = 0.000000, S = 0.000, singlet
  Cycle 0 took: 0.697610 s

  ==> Cycle 1 <==

  Initial P space dimension: 282
  Spin-complete dimension of the P space: 384 determinants

  Davidson-Liu solver algorithm with dynamic sigma builds

 SigmaVectorDynamic:
 Maximum memory   : 10000000 double
 Number of threads: 8

  Initial guess space is incomplete!
  Trying to add 23 determinant(s).  23 determinant(s) added.
  Initial guess found 51 solutions with 2S+1 = 1 *
  Initial guess found 57 solutions with 2S+1 = 3  
  Initial guess found 15 solutions with 2S+1 = 5  
  Adding guess 0 (multiplicity = 1.000000)
  Adding guess 1 (multiplicity = 1.000000)

  ==> Diagonalizing Hamiltonian <==

  ----------------------------------------
    Iter.      Avg. Energy       Delta_E
  ----------------------------------------
      1     -405.567694482452  -4.056e+02
      2     -405.606340410471  -3.865e-02
      3     -405.610520630562  -4.180e-03
      4     -405.611092264599  -5.716e-04
      5     -405.611295216501  -2.030e-04
      6     -405.611315565675  -2.035e-05
      7     -405.611319299833  -3.734e-06
      8     -405.611319983074  -6.832e-07
      9     -405.611320170528  -1.875e-07
     10     -405.611320204277  -3.375e-08
     11     -405.611320211987  -7.710e-09
     12     -405.611320213931  -1.945e-09
     13     -405.611320214535  -6.039e-10
     14     -405.611320214669  -1.332e-10
     15     -405.611320214700  -3.121e-11
  ----------------------------------------
  The Davidson-Liu algorithm converged in 16 iterations.
  Davidson-Liu procedure took  0.046306 s
  Time spent diagonalizing H:   0.329844 s

    P-space  CI Energy Root   0        = -305.067898738986 Eh =   0.0000 eV

  Using batched Q_space algorithm
  Setting nbin to 1 based on estimated memory ( 2.271 MB)
  Overwriting nbin to 4 based on user input
 -----------------------------------------
                Bin 0
  Build: 0.001855
  Merge: 0.000096
  Inter-thread merge: 0.002000
    Build F                  0.010775 
    Build criteria vector    0.000262
    Screening                0.000412
    Added 153 dets of 5851 from bin 0
                Bin 1
  Build: 0.002518
  Merge: 0.000137
  Inter-thread merge: 0.001947
    Build F                  0.008261 
    Build criteria vector    0.000266
    Screening                0.000389
    Added 307 dets of 5708 from bin 1
                Bin 2
  Build: 0.002561
  Merge: 0.000137
  Inter-thread merge: 0.002447
    Build F                  0.009051 
    Build criteria vector    0.000265
    Screening                0.000427
    Added 469 dets of 5874 from bin 2
                Bin 3
  Build: 0.002566
  Merge: 0.000136
  Inter-thread merge: 0.002016
    Build F                  0.008295 
    Build criteria vector    0.000259
    Screening                0.000402
    Added 625 dets of 5821 from bin 3
 ------------------------------------
  Screened out 0.0004954037 Eh of correlation
  Dimension of the truncated SD space: 625 determinants
  Time spent building the external space (default): 0.040222 s

  Time spent sorting: 0.000118
  Added 2 missing determinants in aimed selection.
  Time spent selecting: 0.000141
  Dimension of the P + Q space: 853 determinants
  Time spent screening the model space: 0.000161 s
  Time spent building the model space: 0.040572
  Spin-complete dimension of the PQ space: 1207

  Davidson-Liu solver algorithm with dynamic sigma builds

 SigmaVectorDynamic:
 Maximum memory   : 10000000 double
 Number of threads: 8

  Initial guess space is incomplete!
  Trying to add 18 determinant(s).  18 determinant(s) added.
  Initial guess found 49 solutions with 2S+1 = 1 *
  Initial guess found 55 solutions with 2S+1 = 3  
  Initial guess found 14 solutions with 2S+1 = 5  
  Adding guess 0 (multiplicity = 1.000000)
  Adding guess 1 (multiplicity = 1.000000)

  ==> Diagonalizing Hamiltonian <==

  ----------------------------------------
    Iter.      Avg. Energy       Delta_E
  ----------------------------------------
      1     -405.564290373981  -4.056e+02
      2     -405.611513385156  -4.722e-02
      3     -405.619321611125  -7.808e-03
      4     -405.620468850342  -1.147e-03
      5     -405.620809256787  -3.404e-04
      6     -405.620851203054  -4.195e-05
      7     -405.620864074055  -1.287e-05
      8     -405.620867670567  -3.597e-06
      9     -405.620868928220  -1.258e-06
     10     -405.620869250816  -3.226e-07
     11     -405.620869348164  -9.735e-08
     12     -405.620869377553  -2.939e-08
     13     -405.620869389161  -1.161e-08
     14     -405.620869392902  -3.741e-09
     15     -405.620869394220  -1.318e-09
     16     -405.620869394693  -4.732e-10
     17     -405.620869394885  -1.918e-10
     18     -405.620869394949  -6.338e-11
  ----------------------------------------
  The Davidson-Liu algorithm converged in 19 iterations.
  Davidson-Liu procedure took  0.106862 s
  Total time spent diagonalizing H:   0.391573 s

    PQ-space CI Energy Root   0        = -305.077447919234 Eh =   0.0000 eV
    PQ-space CI Energy + EPT2 Root   0 = -305.078444695681 Eh =   0.0000 eV


  Most important contributions to root   0:
    0   0.868754 0.754733293         281 |22220000>
    1  -0.194942 0.038002234         280 |22202000>
    2   0.103959 0.010807434         278 |22-++-00>
    3   0.103959 0.010807434         279 |22+--+00>
    4  -0.093449 0.008732773         277 |22020200>
    5   0.079629 0.006340719         273 |+22--00+>
    6   0.079629 0.006340719         274 |-22++00->
    7  -0.079087 0.006254694         276 |2-2++0-0>
    8  -0.079087 0.006254694         275 |2+2--0+0>
    9   0.075467 0.005695193         272 |22+-+-00>

  Spin state for root 0: S^2 = 0.000000, S = 0.000, singlet
  Cycle 1 took: 0.775219 s

  ==> Cycle 2 <==

  Initial P space dimension: 686
  Spin-complete dimension of the P space: 1038 determinants

  Davidson-Liu solver algorithm with dynamic sigma builds

 SigmaVectorDynamic:
 Maximum memory   : 10000000 double
 Number of threads: 8

  Initial guess space is incomplete!
  Trying to add 18 determinant(s).  18 determinant(s) added.
  Initial guess found 49 solutions with 2S+1 = 1 *
  Initial guess found 55 solutions with 2S+1 = 3  
  Initial guess found 14 solutions with 2S+1 = 5  
  Adding guess 0 (multiplicity = 1.000000)
  Adding guess 1 (multiplicity = 1.000000)

  ==> Diagonalizing Hamiltonian <==

  ----------------------------------------
    Iter.      Avg. Energy       Delta_E
  ----------------------------------------
      1     -405.564290373981  -4.056e+02
      2     -405.611044885835  -4.675e-02
      3     -405.618607502019  -7.563e-03
      4     -405.619664129232  -1.057e-03
      5     -405.619984705079  -3.206e-04
      6     -405.620026210407  -4.151e-05
      7     -405.620038558773  -1.235e-05
      8     -405.620041704543  -3.146e-06
      9     -405.620042649133  -9.446e-07
     10     -405.620042866060  -2.169e-07
     11     -405.620042927266  -6.121e-08
     12     -405.620042943718  -1.645e-08
     13     -405.620042949384  -5.666e-09
     14     -405.620042951095  -1.711e-09
     15     -405.620042951674  -5.792e-10
     16     -405.620042951863  -1.889e-10
     17     -405.620042951931  -6.793e-11
  ----------------------------------------
  The Davidson-Liu algorithm converged in 18 iterations.
  Davidson-Liu procedure took  0.084566 s
  Time spent diagonalizing H:   0.369518 s

    P-space  CI Energy Root   0        = -305.076621476217 Eh =   0.0000 eV

  Using batched Q_space algorithm
  Setting nbin to 1 based on estimated memory ( 6.138 MB)
  Overwriting nbin to 4 based on user input
 -----------------------------------------
                Bin 0
  Build: 0.020904
  Merge: 0.000342
  Inter-thread merge: 0.005824
    Build F                  0.028539 
    Build criteria vector    0.000241
    Screening                0.000513
    Added 79 dets of 6471 from bin 0
                Bin 1
  Build: 0.006844
  Merge: 0.000379
  Inter-thread merge: 0.005638
    Build F                  0.024597 
    Build criteria vector    0.000234
    Screening                0.000396
    Added 163 dets of 6265 from bin 1
                Bin 2
  Build: 0.008554
  Merge: 0.000365
  Inter-thread merge: 0.005771
    Build F                  0.022534 
    Build criteria vector    0.000207
    Screening                0.000386
    Added 212 dets of 6432 from bin 2
                Bin 3
  Build: 0.008289
  Merge: 0.000370
  Inter-thread merge: 0.005108
    Build F                  0.021981 
    Build criteria vector    0.000224
    Screening                0.000511
    Added 281 dets of 6455 from bin 3
 ------------------------------------
  Screened out 0.0004954566 Eh of correlation
  Dimension of the truncated SD space: 281 determinants
  Time spent building the external space (default): 0.103364 s

  Time spent sorting: 0.000050
  Added 1 missing determinants in aimed selection.
  Time spent selecting: 0.000046
  Dimension of the P + Q space: 1174 determinants
  Time spent screening the model space: 0.000065 s
  Time spent building the model space: 0.103538
  Spin-complete dimension of the PQ space: 1286

  Davidson-Liu solver algorithm with dynamic sigma builds

 SigmaVectorDynamic:
 Maximum memory   : 10000000 double
 Number of threads: 8

  Initial guess space is incomplete!
  Trying to add 18 determinant(s).  18 determinant(s) added.
  Initial guess found 49 solutions with 2S+1 = 1 *
  Initial guess found 55 solutions with 2S+1 = 3  
  Initial guess found 14 solutions with 2S+1 = 5  
  Adding guess 0 (multiplicity = 1.000000)
  Adding guess 1 (multiplicity = 1.000000)

  ==> Diagonalizing Hamiltonian <==

  ----------------------------------------
    Iter.      Avg. Energy       Delta_E
  ----------------------------------------
      1     -405.564290373981  -4.056e+02
      2     -405.611572528435  -4.728e-02
      3     -405.619614620960  -8.042e-03
      4     -405.620868159192  -1.254e-03
      5     -405.621268513646  -4.004e-04
      6     -405.621314482081  -4.597e-05
      7     -405.621327575787  -1.309e-05
      8     -405.621331442262  -3.866e-06
      9     -405.621332959831  -1.518e-06
     10     -405.621333352857  -3.930e-07
     11     -405.621333465647  -1.128e-07
     12     -405.621333501240  -3.559e-08
     13     -405.621333516228  -1.499e-08
     14     -405.621333520905  -4.677e-09
     15     -405.621333522490  -1.586e-09
     16     -405.621333523088  -5.979e-10
     17     -405.621333523352  -2.634e-10
     18     -405.621333523439  -8.703e-11
  ----------------------------------------
  The Davidson-Liu algorithm converged in 19 iterations.
  Davidson-Liu procedure took  0.112872 s
  Total time spent diagonalizing H:   0.396600 s

    PQ-space CI Energy Root   0        = -305.077912047724 Eh =   0.0000 eV
    PQ-space CI Energy + EPT2 Root   0 = -305.078907559389 Eh =   0.0000 eV


  Most important contributions to root   0:
    0   0.868036 0.753487342         685 |22220000>
    1  -0.194213 0.037718521         684 |22202000>
    2   0.103957 0.010807155         683 |22-++-00>
    3   0.103957 0.010807155         682 |22+--+00>
    4  -0.093189 0.008684220         681 |22020200>
    5   0.079809 0.006369459         680 |+22--00+>
    6   0.079809 0.006369459         679 |-22++00->
    7  -0.079011 0.006242783         678 |2-2++0-0>
    8  -0.079011 0.006242783         677 |2+2--0+0>
    9   0.075551 0.005707883         676 |22+-+-00>

  Spin state for root 0: S^2 = 0.000000, S = 0.000, singlet
  Cycle 2 took: 0.885035 s

  ==> Cycle 3 <==

  Initial P space dimension: 733
  Spin-complete dimension of the P space: 1125 determinants

  Davidson-Liu solver algorithm with dynamic sigma builds

 SigmaVectorDynamic:
 Maximum memory   : 10000000 double
 Number of threads: 8

  Initial guess space is incomplete!
  Trying to add 18 determinant(s).  18 determinant(s) added.
  Initial guess found 49 solutions with 2S+1 = 1 *
  Initial guess found 55 solutions with 2S+1 = 3  
  Initial guess found 14 solutions with 2S+1 = 5  
  Adding guess 0 (multiplicity = 1.000000)
  Adding guess 1 (multiplicity = 1.000000)

  ==> Diagonalizing Hamiltonian <==

  ----------------------------------------
    Iter.      Avg. Energy       Delta_E
  ----------------------------------------
      1     -405.564290373981  -4.056e+02
      2     -405.611256842252  -4.697e-02
      3     -405.618940324464  -7.683e-03
      4     -405.620097557415  -1.157e-03
      5     -405.620461051797  -3.635e-04
      6     -405.620506739158  -4.569e-05
      7     -405.620519738267  -1.300e-05
      8     -405.620523309023  -3.571e-06
      9     -405.620524516508  -1.207e-06
     10     -405.620524800271  -2.838e-07
     11     -405.620524878511  -7.824e-08
     12     -405.620524901139  -2.263e-08
     13     -405.620524909724  -8.585e-09
     14     -405.620524912310  -2.586e-09
     15     -405.620524913163  -8.529e-10
     16     -405.620524913457  -2.943e-10
     17     -405.620524913573  -1.156e-10
     18     -405.620524913609  -3.644e-11
  ----------------------------------------
  The Davidson-Liu algorithm converged in 19 iterations.
  Davidson-Liu procedure took  0.102013 s
  Time spent diagonalizing H:   0.385431 s

    P-space  CI Energy Root   0        = -305.077103437895 Eh =   0.0000 eV

  Using batched Q_space algorithm
  Setting nbin to 1 based on estimated memory ( 6.653 MB)
  Overwriting nbin to 4 based on user input
 -----------------------------------------
                Bin 0
  Build: 0.020621
  Merge: 0.000363
  Inter-thread merge: 0.006086
    Build F                  0.028360 
    Build criteria vector    0.000216
    Screening                0.000405
    Added 63 dets of 6485 from bin 0
                Bin 1
  Build: 0.012510
  Merge: 0.002049
  Inter-thread merge: 0.006152
    Build F                  0.028873 
    Build criteria vector    0.000220
    Screening                0.000395
    Added 119 dets of 6314 from bin 1
                Bin 2
  Build: 0.009534
  Merge: 0.000391
  Inter-thread merge: 0.006148
    Build F                  0.024878 
    Build criteria vector    0.000193
    Screening                0.000490
    Added 160 dets of 6427 from bin 2
                Bin 3
  Build: 0.011698
  Merge: 0.000394
  Inter-thread merge: 0.006382
    Build F                  0.027866 
    Build criteria vector    0.000220
    Screening                0.000399
    Added 222 dets of 6438 from bin 3
 ------------------------------------
  Screened out 0.0004952869 Eh of correlation
  Dimension of the truncated SD space: 222 determinants
  Time spent building the external space (default): 0.115339 s

  Time spent sorting: 0.000038
  Added 1 missing determinants in aimed selection.
  Time spent selecting: 0.000035
  Dimension of the P + Q space: 1212 determinants
  Time spent screening the model space: 0.000055 s
  Time spent building the model space: 0.115494
  Spin-complete dimension of the PQ space: 1280

  Davidson-Liu solver algorithm with dynamic sigma builds

 SigmaVectorDynamic:
 Maximum memory   : 10000000 double
 Number of threads: 8

  Initial guess space is incomplete!
  Trying to add 18 determinant(s).  18 determinant(s) added.
  Initial guess found 49 solutions with 2S+1 = 1 *
  Initial guess found 55 solutions with 2S+1 = 3  
  Initial guess found 14 solutions with 2S+1 = 5  
  Adding guess 0 (multiplicity = 1.000000)
  Adding guess 1 (multiplicity = 1.000000)

  ==> Diagonalizing Hamiltonian <==

  ----------------------------------------
    Iter.      Avg. Energy       Delta_E
  ----------------------------------------
      1     -405.564290373981  -4.056e+02
      2     -405.611496811845  -4.721e-02
      3     -405.619562301481  -8.065e-03
      4     -405.620837825207  -1.276e-03
      5     -405.621254821296  -4.170e-04
      6     -405.621303434902  -4.861e-05
      7     -405.621316992194  -1.356e-05
      8     -405.621320999877  -4.008e-06
      9     -405.621322582383  -1.583e-06
     10     -405.621322990602  -4.082e-07
     11     -405.621323106222  -1.156e-07
     12     -405.621323142826  -3.660e-08
     13     -405.621323158279  -1.545e-08
     14     -405.621323163045  -4.766e-09
     15     -405.621323164635  -1.590e-09
     16     -405.621323165234  -5.988e-10
     17     -405.621323165498  -2.634e-10
     18     -405.621323165583  -8.595e-11
  ----------------------------------------
  The Davidson-Liu algorithm converged in 19 iterations.
  Davidson-Liu procedure took  0.111806 s
  Total time spent diagonalizing H:   0.394636 s

    PQ-space CI Energy Root   0        = -305.077901689869 Eh =   0.0000 eV
    PQ-space CI Energy + EPT2 Root   0 = -305.078896689603 Eh =   0.0000 eV


  Most important contributions to root   0:
    0   0.867977 0.753384330         732 |22220000>
    1  -0.194298 0.037751748         731 |22202000>
    2   0.103938 0.010803116         730 |22-++-00>
    3   0.103938 0.010803116         729 |22+--+00>
    4  -0.093059 0.008660044         728 |22020200>
    5   0.079812 0.006369958         727 |+22--00+>
    6   0.079812 0.006369958         726 |-22++00->
    7  -0.078982 0.006238190         725 |2-2++0-0>
    8  -0.078982 0.006238190         724 |2+2--0+0>
    9   0.075611 0.005717071         723 |22+-+-00>

  Spin state for root 0: S^2 = 0.000000, S = 0.000, singlet
  Cycle 3 took: 0.911583 s

  ==> Cycle 4 <==

  Initial P space dimension: 733
  Spin-complete dimension of the P space: 1125 determinants

  Davidson-Liu solver algorithm with dynamic sigma builds

 SigmaVectorDynamic:
 Maximum memory   : 10000000 double
 Number of threads: 8

  Initial guess space is incomplete!
  Trying to add 18 determinant(s).  18 determinant(s) added.
  Initial guess found 49 solutions with 2S+1 = 1 *
  Initial guess found 55 solutions with 2S+1 = 3  
  Initial guess found 14 solutions with 2S+1 = 5  
  Adding guess 0 (multiplicity = 1.000000)
  Adding guess 1 (multiplicity = 1.000000)

  ==> Diagonalizing Hamiltonian <==

  ----------------------------------------
    Iter.      Avg. Energy       Delta_E
  ----------------------------------------
      1     -405.564290373981  -4.056e+02
      2     -405.611256842252  -4.697e-02
      3     -405.618940324463  -7.683e-03
      4     -405.620097557415  -1.157e-03
      5     -405.620461051797  -3.635e-04
      6     -405.620506739158  -4.569e-05
      7     -405.620519738267  -1.300e-05
      8     -405.620523309022  -3.571e-06
      9     -405.620524516508  -1.207e-06
     10     -405.620524800271  -2.838e-07
     11     -405.620524878511  -7.824e-08
     12     -405.620524901139  -2.263e-08
     13     -405.620524909724  -8.585e-09
     14     -405.620524912310  -2.586e-09
     15     -405.620524913163  -8.530e-10
     16     -405.620524913458  -2.943e-10
     17     -405.620524913573  -1.155e-10
     18     -405.620524913609  -3.638e-11
  ----------------------------------------
  The Davidson-Liu algorithm converged in 19 iterations.
  Davidson-Liu procedure took  0.098926 s
  Time spent diagonalizing H:   0.382026 s

    P-space  CI Energy Root   0        = -305.077103437895 Eh =   0.0000 eV

  Using batched Q_space algorithm
  Setting nbin to 1 based on estimated memory ( 6.653 MB)
  Overwriting nbin to 4 based on user input
 -----------------------------------------
                Bin 0
  Build: 0.017662
  Merge: 0.000416
  Inter-thread merge: 0.005487
    Build F                  0.027057 
    Build criteria vector    0.000219
    Screening                0.000401
    Added 63 dets of 6481 from bin 0
                Bin 1
  Build: 0.007489
  Merge: 0.000423
  Inter-thread merge: 0.006001
    Build F                  0.028151 
    Build criteria vector    0.000217
    Screening                0.000392
    Added 119 dets of 6316 from bin 1
                Bin 2
  Build: 0.010345
  Merge: 0.000399
  Inter-thread merge: 0.006075
    Build F                  0.025965 
    Build criteria vector    0.000205
    Screening                0.000387
    Added 160 dets of 6422 from bin 2
                Bin 3
  Build: 0.011002
  Merge: 0.000402
  Inter-thread merge: 0.006141
    Build F                  0.026393 
    Build criteria vector    0.000214
    Screening                0.000389
    Added 222 dets of 6434 from bin 3
 ------------------------------------
  Screened out 0.0004952869 Eh of correlation
  Dimension of the truncated SD space: 222 determinants
  Time spent building the external space (default): 0.112680 s

  Time spent sorting: 0.000037
  Added 1 missing determinants in aimed selection.
  Time spent selecting: 0.000034
  Dimension of the P + Q space: 1212 determinants
  Time spent screening the model space: 0.000054 s
  Time spent building the model space: 0.112830
  Spin-complete dimension of the PQ space: 1280

  Davidson-Liu solver algorithm with dynamic sigma builds

 SigmaVectorDynamic:
 Maximum memory   : 10000000 double
 Number of threads: 8

  Initial guess space is incomplete!
  Trying to add 18 determinant(s).  18 determinant(s) added.
  Initial guess found 49 solutions with 2S+1 = 1 *
  Initial guess found 55 solutions with 2S+1 = 3  
  Initial guess found 14 solutions with 2S+1 = 5  
  Adding guess 0 (multiplicity = 1.000000)
  Adding guess 1 (multiplicity = 1.000000)

  ==> Diagonalizing Hamiltonian <==

  ----------------------------------------
    Iter.      Avg. Energy       Delta_E
  ----------------------------------------
      1     -405.564290373981  -4.056e+02
      2     -405.611496811844  -4.721e-02
      3     -405.619562301481  -8.065e-03
      4     -405.620837825207  -1.276e-03
      5     -405.621254821296  -4.170e-04
      6     -405.621303434902  -4.861e-05
      7     -405.621316992194  -1.356e-05
      8     -405.621320999877  -4.008e-06
      9     -405.621322582383  -1.583e-06
     10     -405.621322990602  -4.082e-07
     11     -405.621323106222  -1.156e-07
     12     -405.621323142826  -3.660e-08
     13     -405.621323158279  -1.545e-08
     14     -405.621323163045  -4.766e-09
     15     -405.621323164635  -1.590e-09
     16     -405.621323165234  -5.988e-10
     17     -405.621323165498  -2.638e-10
     18     -405.621323165584  -8.595e-11
  ----------------------------------------
  The Davidson-Liu algorithm converged in 19 iterations.
  Davidson-Liu procedure took  0.111213 s
  Total time spent diagonalizing H:   0.396413 s

    PQ-space CI Energy Root   0        = -305.077901689869 Eh =   0.0000 eV
    PQ-space CI Energy + EPT2 Root   0 = -305.078896689604 Eh =   0.0000 eV

  ***** Calculation Converged *****
  Saving root 0, ref_root is 0
  Number of old roots: 1

  ==> ACI Summary <==

  Iterations required:                         4
  Dimension of optimized determinant space:    1280

  * Adaptive-CI Energy Root   0        = -305.077901689869 Eh =   0.0000 eV
  * Adaptive-CI Energy Root   0 + EPT2 = -305.078896689604 Eh =   0.0000 eV

  ==> Wavefunction Information <==

  Most important contributions to root   0:
    0   0.867977 0.753384330         732 |22220000>
    1  -0.194298 0.037751748         731 |22202000>
    2   0.103938 0.010803116         730 |22-++-00>
    3   0.103938 0.010803116         729 |22+--+00>
    4  -0.093059 0.008660044         728 |22020200>
    5   0.079812 0.006369958         727 |+22--00+>
    6   0.079812 0.006369958         726 |-22++00->
    7  -0.078982 0.006238190         725 |2-2++0-0>
    8  -0.078982 0.006238190         724 |2+2--0+0>
    9   0.075611 0.005717071         723 |22+-+-00>

  Spin state for root 0: S^2 = 0.000000, S = 0.000, singlet
  Diag takes 0.008672
 all alpha takes 0.019836
 all beta takes 0.019126
  2dif: 0.041960  
  4dif: 0.022670
 all alpha/beta takes 0.065048

  ==> NATURAL ORBITALS <==

        1A      1.922094      2A      1.902605      3A      1.860987  
        4A      1.779353      5A      0.224866      6A      0.139353  
        7A      0.095540      8A      0.075201  


  RDMS took 0.124480

  Adaptive-CI ran in : 4.301356 s

  Saving information for root: 0
  energy: -305.077901690

       -----------------------------------------------------------------
                            Semi-Canonical Orbitals
         Chenyang Li, Jeffrey B. Schriber and Francesco A. Evangelista
       -----------------------------------------------------------------

  Took 0.152377 s to build Fock matrix

  ==> Checking Fock Matrix Diagonal Blocks <==

    Off-Diag. Elements       Max           2-Norm
    ------------------------------------------------
    Fa actv              0.0042942368   0.0114917482
    Fb actv              0.0042942368   0.0114917482
    ------------------------------------------------
    Fa core              0.0007210754   0.0031844351
    Fb core              0.0007210754   0.0031844351
    ------------------------------------------------
    Fa virt              0.0011085142   0.0048237228
    Fb virt              0.0011085142   0.0048237228
    ------------------------------------------------

  ==> Integral Transformation to Semicanonical Basis <==

 Integrals are about to be computed.
  Computing Density fitted integrals 

  Number of auxiliary basis functions:  588
  Need 11.76 MB to store DF integrals
  DFHelper Memory: AOs need 0.010 GiB; user supplied 1.907 GiB. Using in-core AOs.


  Transforming DF Integrals            ......Done.
  Timing for density-fitting transformation:                  0.071 s.

 Integrals are about to be updated.  DFHelper Memory: AOs need 0.011 GiB; user supplied 11.921 GiB. Using in-core AOs.


  Frozen-core energy           -397.044912338556 a.u.
  Timing for frozen one-body operator:                        0.841 s.
  Resorting integrals after freezing core.
  Timing for resorting DF integrals:                          0.064 s.
  Timing for freezing core and virtual orbitals:              0.907 s.

  ==> Reference Transformation to Semicanonical Basis <==

    Transformed 1 cumulants.
    Transformed 2 cumulants and RDMs.
    Transformed 3 cumulants.
  SemiCanonicalize takes 2.777766 s.

  ==> Multireference Driven Similarity Renormalization Group <==

    Reading DSRG options ............................ Done
    Setting ambit MO space .......................... Done
    Preparing tensors for density cumulants ......... Done
    Building Fock matrix ............................ Done
    Checking reference energy ....................... Done

                  --------------------------------------------
                      Density Fitted / Cholesky Decomposed
                    MR-DSRG Second-Order Perturbation Theory
                      Kevin Hannon and Chenyang (York) Li
                                8 threads (OMP)
                  --------------------------------------------

    References:
      u-DSRG-MRPT2:      J. Chem. Theory Comput. 2015, 11, 2097.
      DF/CD-DSRG-MRPT2:  J. Chem. Phys. 2016, 144, 204111.
      (pr-)DSRG-MRPT2:   J. Chem. Phys. 2017, 146, 124132.


  ==> Calculation Information <==

    Flow parameter                                 1.000e+10
    Taylor expansion threshold                     1.000e-03
    Cholesky tolerance                             1.000e-06
    Psi4 ref_type                                        RHF
    Integral type                                         DF
    Source operator                                 STANDARD
    CCVV algorithm                                 FLY_AMBIT
    CCVV source                                       NORMAL
    Reference relaxation                                ONCE
    State type                                STATE-SPECIFIC

  ==> Checking Semicanonical Orbitals <==

    Abs. max of Fock core, active, virtual blocks (Fij, i != j)
                  core          active         virtual
    --------------------------------------------------
    F    0.0000000000    0.0000000000    0.0000000000
    F    0.0000000000    0.0000000000    0.0000000000
    --------------------------------------------------

    1-Norm of Fock core, active, virtual blocks (Fij, i != j)
                  core          active         virtual
    --------------------------------------------------
    F    0.0000000000    0.0000000000    0.0000000000
    F    0.0000000000    0.0000000000    0.0000000000
    --------------------------------------------------

    Orbitals are semi-canonicalized.

  ==> Computing DSRG-MRPT2 Energy <==

  Reference Energy = -305.077901689869179
    Computing T2                             ...... Done. Timing        0.102659 s
    Renormalizing V                          ...... Done. Timing        0.091821 s
    Computing T1                             ...... Done. Timing        0.003137 s
    Renormalizing F                          ...... Done. Timing        0.003969 s
    Computing <[F, T1]>                      ...... Done. Timing        0.001331 s
    Computing <[F, T2]>                      ...... Done. Timing        0.003907 s
    Computing <[V, T1]>                      ...... Done. Timing        0.003087 s
    Computing <[V, T2]> 4HH                  ...... Done. Timing        0.004957 s
    Computing <V, T2]> 4PP                   ...... Done. Timing        0.004798 s
    Computing [V, T2] 4PH                    ...... Done. Timing        0.023106 s
    Computing [V, T2] 3                     ...... Done. Timing        0.061625 s
    Computing <[V, T2]> (C_2)^4 (no ccvv)    ...... Done. Timing        0.020720 s
    Computing <[V, T2]> (C_2)^4 ccvv         ...... Done. Timing        0.022685 s
  Eccvv: -0.2177086582

  ==> DSRG-MRPT2 (DF/CD) Energy Summary <==

    E0 (reference)                 =   -305.077901689869179
    <[F, T1]>                      =     -0.000016917488865
    <[F, T2]>                      =      0.000000000000000
    <[V, T1]>                      =     -0.000000000000000
    <[V, T2]> C_4 (C_2)^2 HH       =      0.005491706806724
    <[V, T2]> C_4 (C_2)^2 PP       =      0.004395539876606
    <[V, T2]> C_4 (C_2)^2 PH       =      0.100267706726377
    <[V, T2]> C_6 C_2              =     -0.000000000000000
    <[V, T2]> (C_2)^4              =     -0.422266014166561
    <[V, T2]>                      =     -0.312111060756854
    DSRG-MRPT2 correlation energy  =     -0.312127978245719
    DSRG-MRPT2 total energy        =   -305.390029668114892
    max(T1)                        =      0.000645008769320
    ||T1||                         =      0.003322586154621

  ==> Form DSRG-PT2 Transformed Hamiltonian <==

    Initalizing Hbar                         ... Done. Timing:      0.010 s.
    Computing all-active Hbar                ... Done. Timing:      0.215 s.
 Computing ints for Heff

  ==> De-Normal-Order DSRG Transformed Hamiltonian <==

    Computing the scalar term                ... Done. Timing    0.001 s
    Computing the 1-body term                ... Done. Timing    0.001 s

  ==> Rotate DSRG Transformed Hamiltonian back to Original Basis <==

    Rotating 1-body term to original basis   ... Done. Timing    0.000 s
    Rotating 2-body term to original basis   ... Done. Timing    0.007 s
 done
  Number of active alpha electrons: 4
  Number of active beta electrons: 4
  Maximum reference space size: 1000
  Number of reference determinants: 225
  Reference generated from 7 MOs

        ---------------------------------------------------------------
                      Adaptive Configuration Interaction
          written by Jeffrey B. Schriber and Francesco A. Evangelista
        ---------------------------------------------------------------

  ==> Reference Information <==

  There are 25 frozen orbitals.
  There are 8 active orbitals.

  ==> Calculation Information <==

  -----------------------------------------------------------------
    Multiplicity                             1    
    Symmetry                                 0    
    Number of roots                          1    
    Root used for properties                 0    
    Sigma (Eh)                               1.00e-03
    Gamma (Eh^(-1))                          1.00e+00
    Convergence threshold                    1.00e-09
    Ms                                       0
    Diagonalization algorithm                DYNAMIC
    Determinant selection criterion          Second-order Energy
    Selection criterion                      Aimed selection
    Excited Algorithm                        ROOT_ORTHOGONALIZE
    Project out spin contaminants            True
    Enforce spin completeness of basis       True
    Enforce complete aimed selection         True
  -----------------------------------------------------------------
  Using 8 threads
  Computing wavefunction for root 0
  Using streamlined Q-space builder.

  ==> Cycle 0 <==

  Initial P space dimension: 225
  Spin-complete dimension of the P space: 225 determinants

  Davidson-Liu solver algorithm with dynamic sigma builds

 SigmaVectorDynamic:
 Maximum memory   : 10000000 double
 Number of threads: 8

  Initial guess space is incomplete!
  Trying to add 3 determinant(s).  3 determinant(s) added.
  Initial guess found 48 solutions with 2S+1 = 1 *
  Initial guess found 48 solutions with 2S+1 = 3  
  Initial guess found 7 solutions with 2S+1 = 5  
  Adding guess 0 (multiplicity = 1.000000)
  Adding guess 1 (multiplicity = 1.000000)

  ==> Diagonalizing Hamiltonian <==

  ----------------------------------------
    Iter.      Avg. Energy       Delta_E
  ----------------------------------------
      1     -404.830826090162  -4.048e+02
      2     -404.832774746346  -1.949e-03
      3     -404.832788581997  -1.384e-05
      4     -404.832796484177  -7.902e-06
      5     -404.832799654520  -3.170e-06
      6     -404.832799743834  -8.931e-08
      7     -404.832799428621  +3.152e-07
      8     -404.832799430255  -1.634e-09
      9     -404.832799431586  -1.331e-09
     10     -404.832799431644  -5.815e-11
     11     -404.832799431656  -1.182e-11
  ----------------------------------------
  The Davidson-Liu algorithm converged in 12 iterations.
  Davidson-Liu procedure took  0.031622 s
  Time spent diagonalizing H:   0.313746 s

    P-space  CI Energy Root   0        = -305.337662719892 Eh =   0.0000 eV

  Using batched Q_space algorithm
  Setting nbin to 1 based on estimated memory ( 1.331 MB)
  Overwriting nbin to 4 based on user input
 -----------------------------------------
                Bin 0
  Build: 0.000872
  Merge: 0.000054
  Inter-thread merge: 0.001030
    Build F                  0.005468 
    Build criteria vector    0.000121
    Screening                0.000250
    Added 91 dets of 2888 from bin 0
                Bin 1
  Build: 0.001286
  Merge: 0.000072
  Inter-thread merge: 0.000815
    Build F                  0.003775 
    Build criteria vector    0.000115
    Screening                0.000220
    Added 144 dets of 2569 from bin 1
                Bin 2
  Build: 0.001240
  Merge: 0.000076
  Inter-thread merge: 0.000710
    Build F                  0.003739 
    Build criteria vector    0.000148
    Screening                0.000235
    Added 155 dets of 2490 from bin 2
                Bin 3
  Build: 0.001125
  Merge: 0.000054
  Inter-thread merge: 0.000509
    Build F                  0.004043 
    Build criteria vector    0.000146
    Screening                0.000222
    Added 221 dets of 2286 from bin 3
 ------------------------------------
  Screened out 0.0004935470 Eh of correlation
  Dimension of the truncated SD space: 221 determinants
  Time spent building the external space (default): 0.019143 s

  Time spent sorting: 0.000037
  Time spent selecting: 0.000049
  Dimension of the P + Q space: 360 determinants
  Time spent screening the model space: 0.000072 s
  Time spent building the model space: 0.019309
  Spin-complete dimension of the PQ space: 389

  Davidson-Liu solver algorithm with dynamic sigma builds

 SigmaVectorDynamic:
 Maximum memory   : 10000000 double
 Number of threads: 8

  Initial guess space is incomplete!
  Trying to add 10 determinant(s).  10 determinant(s) added.
  Initial guess found 49 solutions with 2S+1 = 1 *
  Initial guess found 52 solutions with 2S+1 = 3  
  Initial guess found 9 solutions with 2S+1 = 5  
  Adding guess 0 (multiplicity = 1.000000)
  Adding guess 1 (multiplicity = 1.000000)

  ==> Diagonalizing Hamiltonian <==

  ----------------------------------------
    Iter.      Avg. Energy       Delta_E
  ----------------------------------------
      1     -404.838548977385  -4.048e+02
      2     -404.884743996571  -4.620e-02
      3     -404.887406582133  -2.663e-03
      4     -404.887768593215  -3.620e-04
      5     -404.887854816101  -8.622e-05
      6     -404.887862218600  -7.402e-06
      7     -404.887861966209  +2.524e-07
      8     -404.887862264081  -2.979e-07
      9     -404.887862358609  -9.453e-08
     10     -404.887862371502  -1.289e-08
     11     -404.887862301503  +7.000e-08
     12     -404.887862302120  -6.173e-10
     13     -404.887862302204  -8.379e-11
  ----------------------------------------
  The Davidson-Liu algorithm converged in 14 iterations.
  Davidson-Liu procedure took  0.045171 s
  Total time spent diagonalizing H:   0.327553 s

    PQ-space CI Energy Root   0        = -305.392725590439 Eh =   0.0000 eV
    PQ-space CI Energy + EPT2 Root   0 = -305.393715675309 Eh =   0.0000 eV


  Most important contributions to root   0:
    0   0.920549 0.847409724         224 |22220000>
    1  -0.179599 0.032255772         208 |22202000>
    2   0.089731 0.008051683         189 |22+--+00>
    3   0.089731 0.008051683         147 |22-++-00>
    4  -0.076702 0.005883206         128 |22020200>
    5  -0.063073 0.003978194         359 |2-2++0-0>
    6  -0.063073 0.003978194         358 |2+2--0+0>
    7   0.061998 0.003843712         203 |22+-+-00>
    8   0.061998 0.003843712         133 |22-+-+00>
    9   0.060786 0.003694970         357 |+22--00+>

  Spin state for root 0: S^2 = 0.000004, S = 0.000, singlet
  Cycle 0 took: 0.664159 s

  ==> Cycle 1 <==

  Initial P space dimension: 169
  Spin-complete dimension of the P space: 203 determinants

  Davidson-Liu solver algorithm with dynamic sigma builds

 SigmaVectorDynamic:
 Maximum memory   : 10000000 double
 Number of threads: 8

  Initial guess space is incomplete!
  Trying to add 17 determinant(s).  17 determinant(s) added.
  Initial guess found 49 solutions with 2S+1 = 1 *
  Initial guess found 54 solutions with 2S+1 = 3  
  Initial guess found 14 solutions with 2S+1 = 5  
  Adding guess 0 (multiplicity = 1.000000)
  Adding guess 1 (multiplicity = 1.000000)

  ==> Diagonalizing Hamiltonian <==

  ----------------------------------------
    Iter.      Avg. Energy       Delta_E
  ----------------------------------------
      1     -404.868261031982  -4.049e+02
      2     -404.886569088442  -1.831e-02
      3     -404.887225362834  -6.563e-04
      4     -404.887328879621  -1.035e-04
      5     -404.887359479411  -3.060e-05
      6     -404.887361540324  -2.061e-06
      7     -404.887360789924  +7.504e-07
      8     -404.887360862404  -7.248e-08
      9     -404.887361098762  -2.364e-07
     10     -404.887361101567  -2.806e-09
     11     -404.887361077208  +2.436e-08
     12     -404.887361077411  -2.026e-10
     13     -404.887361077480  -6.952e-11
  ----------------------------------------
  The Davidson-Liu algorithm converged in 14 iterations.
  Davidson-Liu procedure took  0.033800 s
  Time spent diagonalizing H:   0.315388 s

    P-space  CI Energy Root   0        = -305.392224365716 Eh =   0.0000 eV

  Using batched Q_space algorithm
  Setting nbin to 1 based on estimated memory ( 1.200 MB)
  Overwriting nbin to 4 based on user input
 -----------------------------------------
                Bin 0
  Build: 0.001074
  Merge: 0.000055
  Inter-thread merge: 0.001340
    Build F                  0.005941 
    Build criteria vector    0.000208
    Screening                0.000348
    Added 124 dets of 4546 from bin 0
                Bin 1
  Build: 0.001405
  Merge: 0.000071
  Inter-thread merge: 0.001121
    Build F                  0.004433 
    Build criteria vector    0.000223
    Screening                0.000338
    Added 234 dets of 4292 from bin 1
                Bin 2
  Build: 0.001429
  Merge: 0.000076
  Inter-thread merge: 0.001135
    Build F                  0.004520 
    Build criteria vector    0.000202
    Screening                0.000319
    Added 375 dets of 4413 from bin 2
                Bin 3
  Build: 0.001307
  Merge: 0.000073
  Inter-thread merge: 0.001068
    Build F                  0.004260 
    Build criteria vector    0.000208
    Screening                0.000337
    Added 510 dets of 4464 from bin 3
 ------------------------------------
  Screened out 0.0004954773 Eh of correlation
  Dimension of the truncated SD space: 510 determinants
  Time spent building the external space (default): 0.022157 s

  Time spent sorting: 0.000097
  Added 1 missing determinants in aimed selection.
  Time spent selecting: 0.000138
  Dimension of the P + Q space: 543 determinants
  Time spent screening the model space: 0.000157 s
  Time spent building the model space: 0.022478
  Spin-complete dimension of the PQ space: 821

  Davidson-Liu solver algorithm with dynamic sigma builds

 SigmaVectorDynamic:
 Maximum memory   : 10000000 double
 Number of threads: 8

  Initial guess space is incomplete!
  Trying to add 18 determinant(s).  18 determinant(s) added.
  Initial guess found 50 solutions with 2S+1 = 1 *
  Initial guess found 55 solutions with 2S+1 = 3  
  Initial guess found 13 solutions with 2S+1 = 5  
  Adding guess 0 (multiplicity = 1.000000)
  Adding guess 1 (multiplicity = 1.000000)

  ==> Diagonalizing Hamiltonian <==

  ----------------------------------------
    Iter.      Avg. Energy       Delta_E
  ----------------------------------------
      1     -404.865367700813  -4.049e+02
      2     -404.890839702104  -2.547e-02
      3     -404.892689383200  -1.850e-03
      4     -404.892990730503  -3.013e-04
      5     -404.893049496943  -5.877e-05
      6     -404.893054428070  -4.931e-06
      7     -404.893050092824  +4.335e-06
      8     -404.893050311238  -2.184e-07
      9     -404.893051162302  -8.511e-07
     10     -404.893051172580  -1.028e-08
     11     -404.893051058414  +1.142e-07
     12     -404.893051059044  -6.294e-10
     13     -404.893051085190  -2.615e-08
     14     -404.893051085210  -2.063e-11
     15     -404.893051085216  -6.025e-12
  ----------------------------------------
  The Davidson-Liu algorithm converged in 16 iterations.
  Davidson-Liu procedure took  0.063356 s
  Total time spent diagonalizing H:   0.346622 s

    PQ-space CI Energy Root   0        = -305.397914373452 Eh =   0.0000 eV
    PQ-space CI Energy + EPT2 Root   0 = -305.398912499799 Eh =   0.0000 eV


  Most important contributions to root   0:
    0  -0.910602 0.829195437         168 |22220000>
    1   0.183600 0.033709054         167 |22202000>
    2  -0.091762 0.008420312         166 |22+--+00>
    3  -0.091762 0.008420312         165 |22-++-00>
    4   0.077628 0.006026070         164 |22020200>
    5   0.066315 0.004397662         163 |2-2++0-0>
    6   0.066315 0.004397662         162 |2+2--0+0>
    7  -0.064965 0.004220423         161 |22+-+-00>
    8  -0.064965 0.004220423         160 |22-+-+00>
    9  -0.064439 0.004152446         159 |+22--00+>

  Spin state for root 0: S^2 = 0.000000, S = 0.000, singlet
  Cycle 1 took: 0.691740 s

  ==> Cycle 2 <==

  Initial P space dimension: 422
  Spin-complete dimension of the P space: 670 determinants

  Davidson-Liu solver algorithm with dynamic sigma builds

 SigmaVectorDynamic:
 Maximum memory   : 10000000 double
 Number of threads: 8

  Initial guess space is incomplete!
  Trying to add 18 determinant(s).  18 determinant(s) added.
  Initial guess found 50 solutions with 2S+1 = 1 *
  Initial guess found 55 solutions with 2S+1 = 3  
  Initial guess found 13 solutions with 2S+1 = 5  
  Adding guess 0 (multiplicity = 1.000000)
  Adding guess 1 (multiplicity = 1.000000)

  ==> Diagonalizing Hamiltonian <==

  ----------------------------------------
    Iter.      Avg. Energy       Delta_E
  ----------------------------------------
      1     -404.865367700813  -4.049e+02
      2     -404.890361916610  -2.499e-02
      3     -404.892061979027  -1.700e-03
      4     -404.892350230848  -2.883e-04
      5     -404.892412812969  -6.258e-05
      6     -404.892418163294  -5.350e-06
      7     -404.892413988833  +4.174e-06
      8     -404.892414198490  -2.097e-07
      9     -404.892414914249  -7.158e-07
     10     -404.892414922163  -7.915e-09
     11     -404.892414813503  +1.087e-07
     12     -404.892414813930  -4.272e-10
     13     -404.892414832506  -1.858e-08
     14     -404.892414832513  -7.617e-12
     15     -404.892414832523  -1.023e-11
  ----------------------------------------
  The Davidson-Liu algorithm converged in 16 iterations.
  Davidson-Liu procedure took  0.055276 s
  Time spent diagonalizing H:   0.337677 s

    P-space  CI Energy Root   0        = -305.397278120759 Eh =   0.0000 eV

  Using batched Q_space algorithm
  Setting nbin to 1 based on estimated memory ( 3.962 MB)
  Overwriting nbin to 4 based on user input
 -----------------------------------------
                Bin 0
  Build: 0.003175
  Merge: 0.000165
  Inter-thread merge: 0.003120
    Build F                  0.016916 
    Build criteria vector    0.000245
    Screening                0.000473
    Added 73 dets of 5566 from bin 0
                Bin 1
  Build: 0.004505
  Merge: 0.000235
  Inter-thread merge: 0.002901
    Build F                  0.013230 
    Build criteria vector    0.000243
    Screening                0.000452
    Added 136 dets of 5392 from bin 1
                Bin 2
  Build: 0.004590
  Merge: 0.000245
  Inter-thread merge: 0.003066
    Build F                  0.015135 
    Build criteria vector    0.000232
    Screening                0.000387
    Added 194 dets of 5487 from bin 2
                Bin 3
  Build: 0.006528
  Merge: 0.000233
  Inter-thread merge: 0.003065
    Build F                  0.014919 
    Build criteria vector    0.000259
    Screening                0.000372
    Added 250 dets of 5497 from bin 3
 ------------------------------------
  Screened out 0.0004952127 Eh of correlation
  Dimension of the truncated SD space: 250 determinants
  Time spent building the external space (default): 0.064402 s

  Time spent sorting: 0.000044
  Time spent selecting: 0.000025
  Dimension of the P + Q space: 761 determinants
  Time spent screening the model space: 0.000074 s
  Time spent building the model space: 0.064581
  Spin-complete dimension of the PQ space: 858

  Davidson-Liu solver algorithm with dynamic sigma builds

 SigmaVectorDynamic:
 Maximum memory   : 10000000 double
 Number of threads: 8

  Initial guess space is incomplete!
  Trying to add 18 determinant(s).  18 determinant(s) added.
  Initial guess found 50 solutions with 2S+1 = 1 *
  Initial guess found 55 solutions with 2S+1 = 3  
  Initial guess found 13 solutions with 2S+1 = 5  
  Adding guess 0 (multiplicity = 1.000000)
  Adding guess 1 (multiplicity = 1.000000)

  ==> Diagonalizing Hamiltonian <==

  ----------------------------------------
    Iter.      Avg. Energy       Delta_E
  ----------------------------------------
      1     -404.865367700813  -4.049e+02
      2     -404.890902070532  -2.553e-02
      3     -404.892826156231  -1.924e-03
      4     -404.893162683040  -3.365e-04
      5     -404.893235484488  -7.280e-05
      6     -404.893241746799  -6.262e-06
      7     -404.893236979028  +4.768e-06
      8     -404.893237262642  -2.836e-07
      9     -404.893238204597  -9.420e-07
     10     -404.893238218714  -1.412e-08
     11     -404.893238075703  +1.430e-07
     12     -404.893238076582  -8.790e-10
     13     -404.893238109445  -3.286e-08
     14     -404.893238109479  -3.376e-11
     15     -404.893238109488  -8.299e-12
  ----------------------------------------
  The Davidson-Liu algorithm converged in 16 iterations.
  Davidson-Liu procedure took  0.066236 s
  Total time spent diagonalizing H:   0.350689 s

    PQ-space CI Energy Root   0        = -305.398101397723 Eh =   0.0000 eV
    PQ-space CI Energy + EPT2 Root   0 = -305.399101356026 Eh =   0.0000 eV


  Most important contributions to root   0:
    0  -0.910047 0.828185721         421 |22220000>
    1   0.184376 0.033994370         420 |22202000>
    2  -0.091977 0.008459700         419 |22+--+00>
    3  -0.091977 0.008459700         418 |22-++-00>
    4   0.077570 0.006017127         417 |22020200>
    5   0.066418 0.004411406         416 |2-2++0-0>
    6   0.066418 0.004411406         415 |2+2--0+0>
    7  -0.065139 0.004243028         414 |22+-+-00>
    8  -0.065139 0.004243028         413 |22-+-+00>
    9  -0.064382 0.004145032         412 |+22--00+>

  Spin state for root 0: S^2 = 0.000001, S = 0.000, singlet
  Cycle 2 took: 0.762539 s

  ==> Cycle 3 <==

  Initial P space dimension: 441
  Spin-complete dimension of the P space: 707 determinants

  Davidson-Liu solver algorithm with dynamic sigma builds

 SigmaVectorDynamic:
 Maximum memory   : 10000000 double
 Number of threads: 8

  Initial guess space is incomplete!
  Trying to add 18 determinant(s).  18 determinant(s) added.
  Initial guess found 50 solutions with 2S+1 = 1 *
  Initial guess found 55 solutions with 2S+1 = 3  
  Initial guess found 13 solutions with 2S+1 = 5  
  Adding guess 0 (multiplicity = 1.000000)
  Adding guess 1 (multiplicity = 1.000000)

  ==> Diagonalizing Hamiltonian <==

  ----------------------------------------
    Iter.      Avg. Energy       Delta_E
  ----------------------------------------
      1     -404.865367700813  -4.049e+02
      2     -404.890462973939  -2.510e-02
      3     -404.892205710744  -1.743e-03
      4     -404.892511125942  -3.054e-04
      5     -404.892580496355  -6.937e-05
      6     -404.892586526988  -6.031e-06
      7     -404.892582134607  +4.392e-06
      8     -404.892582375200  -2.406e-07
      9     -404.892583152761  -7.776e-07
     10     -404.892583162001  -9.240e-09
     11     -404.892583036946  +1.251e-07
     12     -404.892583037444  -4.982e-10
     13     -404.892583058717  -2.127e-08
     14     -404.892583058726  -9.663e-12
     15     -404.892583058738  -1.211e-11
  ----------------------------------------
  The Davidson-Liu algorithm converged in 16 iterations.
  Davidson-Liu procedure took  0.057620 s
  Time spent diagonalizing H:   0.340982 s

    P-space  CI Energy Root   0        = -305.397446346974 Eh =   0.0000 eV

  Using batched Q_space algorithm
  Setting nbin to 1 based on estimated memory ( 4.181 MB)
  Overwriting nbin to 4 based on user input
 -----------------------------------------
                Bin 0
  Build: 0.011790
  Merge: 0.000226
  Inter-thread merge: 0.002948
    Build F                  0.015812 
    Build criteria vector    0.000256
    Screening                0.000420
    Added 70 dets of 5530 from bin 0
                Bin 1
  Build: 0.004757
  Merge: 0.000260
  Inter-thread merge: 0.003091
    Build F                  0.014114 
    Build criteria vector    0.000248
    Screening                0.000372
    Added 127 dets of 5355 from bin 1
                Bin 2
  Build: 0.004782
  Merge: 0.000251
  Inter-thread merge: 0.003186
    Build F                  0.016164 
    Build criteria vector    0.000233
    Screening                0.000366
    Added 178 dets of 5420 from bin 2
                Bin 3
  Build: 0.007414
  Merge: 0.000247
  Inter-thread merge: 0.003092
    Build F                  0.016125 
    Build criteria vector    0.000240
    Screening                0.000367
    Added 232 dets of 5518 from bin 3
 ------------------------------------
  Screened out 0.0004965562 Eh of correlation
  Dimension of the truncated SD space: 232 determinants
  Time spent building the external space (default): 0.066287 s

  Time spent sorting: 0.000041
  Time spent selecting: 0.000022
  Dimension of the P + Q space: 784 determinants
  Time spent screening the model space: 0.000041 s
  Time spent building the model space: 0.066429
  Spin-complete dimension of the PQ space: 858

  Davidson-Liu solver algorithm with dynamic sigma builds

 SigmaVectorDynamic:
 Maximum memory   : 10000000 double
 Number of threads: 8

  Initial guess space is incomplete!
  Trying to add 18 determinant(s).  18 determinant(s) added.
  Initial guess found 50 solutions with 2S+1 = 1 *
  Initial guess found 55 solutions with 2S+1 = 3  
  Initial guess found 13 solutions with 2S+1 = 5  
  Adding guess 0 (multiplicity = 1.000000)
  Adding guess 1 (multiplicity = 1.000000)

  ==> Diagonalizing Hamiltonian <==

  ----------------------------------------
    Iter.      Avg. Energy       Delta_E
  ----------------------------------------
      1     -404.865367700813  -4.049e+02
      2     -404.890902070532  -2.553e-02
      3     -404.892826156232  -1.924e-03
      4     -404.893162683040  -3.365e-04
      5     -404.893235484488  -7.280e-05
      6     -404.893241746799  -6.262e-06
      7     -404.893236979028  +4.768e-06
      8     -404.893237262643  -2.836e-07
      9     -404.893238204596  -9.420e-07
     10     -404.893238218713  -1.412e-08
     11     -404.893238075703  +1.430e-07
     12     -404.893238076582  -8.791e-10
     13     -404.893238109446  -3.286e-08
     14     -404.893238109479  -3.371e-11
     15     -404.893238109488  -8.356e-12
  ----------------------------------------
  The Davidson-Liu algorithm converged in 16 iterations.
  Davidson-Liu procedure took  0.065203 s
  Total time spent diagonalizing H:   0.350602 s

    PQ-space CI Energy Root   0        = -305.398101397723 Eh =   0.0000 eV
    PQ-space CI Energy + EPT2 Root   0 = -305.399096744782 Eh =   0.0000 eV

  ***** Calculation Converged *****
  Saving root 0, ref_root is 0
  Number of old roots: 1

  ==> ACI Summary <==

  Iterations required:                         3
  Dimension of optimized determinant space:    858

  * Adaptive-CI Energy Root   0        = -305.398101397723 Eh =   0.0000 eV
  * Adaptive-CI Energy Root   0 + EPT2 = -305.399096744782 Eh =   0.0000 eV

  ==> Wavefunction Information <==

  Most important contributions to root   0:
    0  -0.910047 0.828185721         440 |22220000>
    1   0.184376 0.033994370         439 |22202000>
    2  -0.091977 0.008459700         438 |22+--+00>
    3  -0.091977 0.008459700         437 |22-++-00>
    4   0.077570 0.006017127         436 |22020200>
    5   0.066418 0.004411406         435 |2-2++0-0>
    6   0.066418 0.004411406         434 |2+2--0+0>
    7  -0.065139 0.004243028         433 |22+-+-00>
    8  -0.065139 0.004243028         432 |22-+-+00>
    9  -0.064382 0.004145032         431 |+22--00+>

  Spin state for root 0: S^2 = 0.000001, S = 0.000, singlet
  Diag takes 0.005735
 all alpha takes 0.010648
 all beta takes 0.010180
  2dif: 0.021404  
  4dif: 0.011225
 all alpha/beta takes 0.033025

  ==> NATURAL ORBITALS <==

        1A      1.955975      2A      1.940543      3A      1.907799  
        4A      1.836160      5A      0.166591      6A      0.092235  
        7A      0.058190      8A      0.042507  


  RDMS took 0.071345

  Adaptive-CI ran in : 2.957845 s

  Saving information for root: 0

  ==> CD/DF DSRG-MRPT2 Energy Summary <==

    CD/DF DSRG-MRPT2 Total Energy (fixed)   =   -305.390029668114892
    CD/DF DSRG-MRPT2 Total Energy (relaxed) =   -305.398101397722996

  ==> Total Timings (s) for Computing Commutators <==

             [H1, T1]    [H1, T2]    [H2, T1]    [H2, T2]
    -----------------------------------------------------
    -> C0       0.001       0.004       0.003       0.077
    -> C1       0.001       0.007       0.005       0.114
    -> C2                   0.009       0.010       0.068
    -----------------------------------------------------

 CD/DF DSRG-MRPT2 took 11.30225 s.	ACI-DSRG-MRPT2 fixed energy.......................................PASSED
	ACI-DSRG-MRPT2 relaxed energy.....................................PASSED

    Psi4 stopped on: Thursday, 25 October 2018 03:47PM
    Psi4 wall time for execution: 0:00:17.38

*** Psi4 exiting successfully. Buy a developer a beer!
