    -----------------------------------------------------------------------
          Psi4: An Open-Source Ab Initio Electronic Structure Package
                              Psi4 (no tag) Driver

                          Git: Rev {detached?} 7a17eb9 dirty

    J. M. Turney, A. C. Simmonett, R. M. Parrish, E. G. Hohenstein,
    F. A. Evangelista, J. T. Fermann, B. J. Mintz, L. A. Burns, J. J. Wilke,
    M. L. Abrams, N. J. Russ, M. L. Leininger, C. L. Janssen, E. T. Seidl,
    W. D. Allen, H. F. Schaefer, R. A. King, E. F. Valeev, C. D. Sherrill,
    and T. D. Crawford, WIREs Comput. Mol. Sci. 2, 556-565 (2012)
    (doi: 10.1002/wcms.93)

                         Additional Contributions by
    A. E. DePrince, M. Saitow, U. Bozkaya, A. Yu. Sokolov
    -----------------------------------------------------------------------


    Psi4 started on: Fri Jan 22 16:49:36 2016

    Process ID:  20732
    PSI4DATADIR: /Users/jeffschriber/src/psi4/lib
    Memory level set to 256.000 MB

  ==> Input File <==

--------------------------------------------------------------------------
#! This tests the Adaptive-CI procedure using energy selection
#! Generated using commit GITCOMMIT
#


import forte 

refscf = -2.03108138291133 #TEST
refaci = -2.115402996781 #TEST
refacipt2 = -2.116267626339 #TEST

molecule li2{
0 1
H -0.4  0.0 0.0
H  0.4  0.0 0.0
H  0.1 -0.3 1.0
H -0.1  0.5 1.0
}

set {
  basis cc-pVDZ
  e_convergence 10
  d_convergence 10
  r_convergence 10
  scf_type pk
}

set forte {
  job_type aci
  SELECT_TYPE amp
  aci_add_aimed_degenerate false
  project_out_spin_contaminants false
  enforce_spin_complete false
  TAUP 0.0040000
  TAUQ 0.000500
  nroot 1
  charge 0
  diag_algorithm davidson
  quiet_mode true
}

energy('scf')

compare_values(refscf, get_variable("CURRENT ENERGY"),9, "SCF energy") #TEST

energy('forte')
compare_values(refaci, get_variable("ACI ENERGY"),9, "ACI energy") #TEST
compare_values(refacipt2, get_variable("ACI+PT2 ENERGY"),8, "ACI+PT2 energy") #TEST
--------------------------------------------------------------------------
/Users/jeffschriber/src/forte/forte.so loaded.

*** tstart() called on Jeffs-MBP.attlocal.net
*** at Fri Jan 22 16:49:36 2016


         ---------------------------------------------------------
                                   SCF
            by Justin Turney, Rob Parrish, and Andy Simmonett
                              RHF Reference
                        1 Threads,    256 MiB Core
         ---------------------------------------------------------

  ==> Geometry <==

    Molecular point group: c1
    Full point group: C1

    Geometry (in Angstrom), charge = 0, multiplicity = 1:

       Center              X                  Y                   Z               Mass       
    ------------   -----------------  -----------------  -----------------  -----------------
           H         -0.400000000000    -0.050000000000    -0.500000000000     1.007825032070
           H          0.400000000000    -0.050000000000    -0.500000000000     1.007825032070
           H          0.100000000000    -0.350000000000     0.500000000000     1.007825032070
           H         -0.100000000000     0.450000000000     0.500000000000     1.007825032070

  Running in c1 symmetry.

  Rotational constants: A =     25.52952  B =     13.25079  C =     11.75880 [cm^-1]
  Rotational constants: A = 765355.63070  B = 397248.78268  C = 352519.82412 [MHz]
  Nuclear repulsion =    3.136690588132506

  Charge       = 0
  Multiplicity = 1
  Electrons    = 4
  Nalpha       = 2
  Nbeta        = 2

  ==> Algorithm <==

  SCF Algorithm Type is PK.
  DIIS enabled.
  MOM disabled.
  Fractional occupation disabled.
  Guess Type is CORE.
  Energy threshold   = 1.00e-10
  Density threshold  = 1.00e-10
  Integral threshold = 0.00e+00

  ==> Primary Basis <==

  Basis Set: CC-PVDZ
    Number of shells: 12
    Number of basis function: 20
    Number of Cartesian functions: 20
    Spherical Harmonics?: true
    Max angular momentum: 1

  ==> Pre-Iterations <==

   -------------------------------------------------------
    Irrep   Nso     Nmo     Nalpha   Nbeta   Ndocc  Nsocc
   -------------------------------------------------------
     A         20      20       0       0       0       0
   -------------------------------------------------------
    Total      20      20       2       2       2       0
   -------------------------------------------------------

  Starting with a DF guess...

 OEINTS: Overlap, kinetic, potential, dipole, and quadrupole integrals
         stored in file 35.

  ==> Integral Setup <==

  ==> DFJK: Density-Fitted J/K Matrices <==

    J tasked:                  Yes
    K tasked:                  Yes
    wK tasked:                  No
    OpenMP threads:              1
    Integrals threads:           1
    Memory (MB):               183
    Algorithm:                Core
    Integral Cache:           NONE
    Schwarz Cutoff:          1E-12
    Fitting Condition:       1E-12

   => Auxiliary Basis Set <=

  Basis Set: 
    Number of shells: 36
    Number of basis function: 92
    Number of Cartesian functions: 100
    Spherical Harmonics?: true
    Max angular momentum: 2

  Minimum eigenvalue in the overlap matrix is 5.7536001511E-02.
  Using Symmetric Orthogonalization.
  SCF Guess: Core (One-Electron) Hamiltonian.

  ==> Iterations <==

                           Total Energy        Delta E     RMS |[F,P]|

   @DF-RHF iter   1:    -1.71408476830325   -1.71408e+00   3.03473e-02 
   @DF-RHF iter   2:    -2.02926966423014   -3.15185e-01   1.95988e-03 DIIS
   @DF-RHF iter   3:    -2.03106837095232   -1.79871e-03   3.77097e-04 DIIS
   @DF-RHF iter   4:    -2.03112213391050   -5.37630e-05   4.80901e-05 DIIS
   @DF-RHF iter   5:    -2.03112349709050   -1.36318e-06   8.80613e-06 DIIS
   @DF-RHF iter   6:    -2.03112358532795   -8.82375e-08   3.40899e-06 DIIS
   @DF-RHF iter   7:    -2.03112360398698   -1.86590e-08   4.17411e-07 DIIS
   @DF-RHF iter   8:    -2.03112360421584   -2.28858e-10   7.27320e-08 DIIS
   @DF-RHF iter   9:    -2.03112360422287   -7.02904e-12   1.82299e-08 DIIS
   @DF-RHF iter  10:    -2.03112360422334   -4.75175e-13   1.47943e-09 DIIS
   @DF-RHF iter  11:    -2.03112360422334    1.77636e-15   2.63770e-10 DIIS
   @DF-RHF iter  12:    -2.03112360422334   -3.55271e-15   2.44138e-11 DIIS

  DF guess converged.

  ==> Integral Setup <==

 MINTS: Wrapper to libmints.
   by Justin Turney

   Calculation information:
      Number of atoms:                   4
      Number of AO shells:              12
      Number of SO shells:              12
      Number of primitives:             20
      Number of atomic orbitals:        20
      Number of basis functions:        20

      Number of irreps:                  1
      Integral cutoff                 0.00e+00
      Number of functions per irrep: [  20 ]

 OEINTS: Overlap, kinetic, potential, dipole, and quadrupole integrals
         stored in file 35.

      Computing two-electron integrals...done
      Computed 21706 non-zero two-electron integrals.
        Stored in file 33.

	Batch   1 pq = [       0,     210] index = [             0,22155]
  ==> DiskJK: Disk-Based J/K Matrices <==

    J tasked:                  Yes
    K tasked:                  Yes
    wK tasked:                  No
    Memory (MB):               183
    Schwarz Cutoff:          1E-12

   @RHF iter  13:    -2.03108132528611    4.22789e-05   1.10081e-05 DIIS
   @RHF iter  14:    -2.03108137987115   -5.45850e-08   2.41595e-06 DIIS
   @RHF iter  15:    -2.03108138279127   -2.92012e-09   4.92232e-07 DIIS
   @RHF iter  16:    -2.03108138290984   -1.18574e-10   4.57573e-08 DIIS
   @RHF iter  17:    -2.03108138291113   -1.29319e-12   1.11533e-08 DIIS
   @RHF iter  18:    -2.03108138291133   -1.95399e-13   1.63955e-09 DIIS
   @RHF iter  19:    -2.03108138291133   -5.32907e-15   2.55281e-10 DIIS
   @RHF iter  20:    -2.03108138291133    0.00000e+00   1.14169e-10 DIIS
   @RHF iter  21:    -2.03108138291133    8.88178e-16   8.74832e-12 DIIS

  ==> Post-Iterations <==

    Orbital Energies (a.u.)
    -----------------------

    Doubly Occupied:                                                      

       1A     -0.831246     2A     -0.342592  

    Virtual:                                                              

       3A      0.129478     4A      0.165148     5A      0.393168  
       6A      0.538096     7A      0.774720     8A      0.856941  
       9A      1.266282    10A      1.334161    11A      1.395911  
      12A      1.711764    13A      1.730215    14A      1.976391  
      15A      2.251536    16A      2.286274    17A      2.404790  
      18A      2.533391    19A      3.214030    20A      3.326443  

    Final Occupation by Irrep:
              A 
    DOCC [     2 ]

  Energy converged.

  @RHF Final Energy:    -2.03108138291133

   => Energetics <=

    Nuclear Repulsion Energy =              3.1366905881325060
    One-Electron Energy =                  -7.9878690267226160
    Two-Electron Energy =                   2.8200970556787772
    DFT Exchange-Correlation Energy =       0.0000000000000000
    Empirical Dispersion Energy =           0.0000000000000000
    PCM Polarization Energy =               0.0000000000000000
    EFP Energy =                            0.0000000000000000
    Total Energy =                         -2.0310813829113328

    Alert: EFP and PCM quantities not currently incorporated into SCF psivars.

Properties will be evaluated at   0.000000,   0.000000,   0.000000 Bohr
  ==> Properties <==


Properties computed using the SCF density matrix

  Nuclear Dipole Moment: (a.u.)
     X:     0.0000      Y:     0.0000      Z:     0.0000

  Electronic Dipole Moment: (a.u.)
     X:     0.0029      Y:    -0.0417      Z:    -0.0248

  Dipole Moment: (a.u.)
     X:     0.0029      Y:    -0.0417      Z:    -0.0248     Total:     0.0486

  Dipole Moment: (Debye)
     X:     0.0074      Y:    -0.1060      Z:    -0.0631     Total:     0.1235


  Saving occupied orbitals to File 180.

*** tstop() called on Jeffs-MBP.attlocal.net at Fri Jan 22 16:49:37 2016
Module time:
	user time   =       0.33 seconds =       0.01 minutes
	system time =       0.02 seconds =       0.00 minutes
	total time  =          1 seconds =       0.02 minutes
Total time:
	user time   =       0.33 seconds =       0.01 minutes
	system time =       0.02 seconds =       0.00 minutes
	total time  =          1 seconds =       0.02 minutes
Reading options from the FORTE block
Calling plugin /Users/jeffschriber/src/forte/forte.so.


  ==> MO Space Information <==

  -------------------------------
                        A   Sum
  -------------------------------
    FROZEN_DOCC         0     0
    RESTRICTED_DOCC     0     0
    ACTIVE             20    20
    RESTRICTED_UOCC     0     0
    FROZEN_UOCC         0     0
    Total              20    20
  -------------------------------

  ==> Integral Transformation <==

  Number of molecular orbitals:               20
  Number of correlated molecular orbitals:    20
  Number of frozen occupied orbitals:          0
  Number of frozen unoccupied orbitals:        0


  Overall Conventional Integrals timings

	Presorting SO-basis two-electron integrals.
	Sorting File: SO Ints (nn|nn) nbuckets = 1
	Transforming the one-electron integrals and constructing Fock matrices
	Starting first half-transformation.
	Sorting half-transformed integrals.
	First half integral transformation complete.
	Starting second half-transformation.
	Two-electron integral transformation complete.

  Integral transformation done. 0.02234300 s
  Reading the two-electron integrals from disk
  Size of two-electron integrals:   0.003576 GB
  Conventional integrals take 0.03946100 s

  Davidson-liu sparse algorithm
  Building H using OpenMP-take2
  The sparse Hamiltonian matrix contains 159643 nonzero elements out of 594441 (0.268560)
  Time spent building H (openmp): 0.677276 s

  Davidson-liu sparse algorithm
  Building H using OpenMP-take2
  The sparse Hamiltonian matrix contains 209865 nonzero elements out of 1177225 (0.178271)
  Time spent building H (openmp): 0.999224 s

  Davidson-liu sparse algorithm
  Building H using OpenMP-take2
  The sparse Hamiltonian matrix contains 211660 nonzero elements out of 1196836 (0.176850)
  Time spent building H (openmp): 1.063430 s

  Davidson-liu sparse algorithm
  Building H using OpenMP-take2
  The sparse Hamiltonian matrix contains 215456 nonzero elements out of 1214404 (0.177417)
  Time spent building H (openmp): 1.016211 s

  Davidson-liu sparse algorithm
  Building H using OpenMP-take2
  The sparse Hamiltonian matrix contains 215456 nonzero elements out of 1214404 (0.177417)
  Time spent building H (openmp): 1.031325 s

  Your calculation took 16.95521800 seconds

*** PSI4 exiting successfully. Buy a developer a beer!
