
    -----------------------------------------------------------------------
          Psi4: An Open-Source Ab Initio Electronic Structure Package
                               Psi4 1.2a1.dev704 

                         Git: Rev {master} a7fc050 


    R. M. Parrish, L. A. Burns, D. G. A. Smith, A. C. Simmonett,
    A. E. DePrince III, E. G. Hohenstein, U. Bozkaya, A. Yu. Sokolov,
    R. Di Remigio, R. M. Richard, J. F. Gonthier, A. M. James,
    H. R. McAlexander, A. Kumar, M. Saitow, X. Wang, B. P. Pritchard,
    P. Verma, H. F. Schaefer III, K. Patkowski, R. A. King, E. F. Valeev,
    F. A. Evangelista, J. M. Turney, T. D. Crawford, and C. D. Sherrill,
    J. Chem. Theory Comput. 13(7) pp 3185--3197 (2017).
    (doi: 10.1021/acs.jctc.7b00174)

    -----------------------------------------------------------------------


    Psi4 started on: Monday, 04 December 2017 02:21PM

    Process ID:  36064
    PSIDATADIR: /Users/york/src/psi4new/psi4/share/psi4
    Memory:     500.0 MiB
    Threads:    1
    
  ==> Input File <==

--------------------------------------------------------------------------
#! This tests the DF-DSRG-MRPT2 on BeH2
#! Generated using commit GITCOMMIT
import forte

refmcscf    = -15.569761360884
refdsrgpt2 =  -15.613389000040760

molecule {
  0 1
  BE        0.000000000000     0.000000000000     0.000000000000
  H         0.000000000000     1.390000000000     2.500000000000
  H         0.000000000000    -1.390000000000     2.500000000000
  units bohr
  no_reorient
}

set globals{
   reference      rhf
   scf_type       pk
   d_convergence  12
   e_convergence  15
   df_basis_mp2   cc-pvdz-ri
}

set forte{
   job_type              three-dsrg-mrpt2
   int_type              df
   cas_type              cas
   restricted_docc       [2,0,0,0]
   active                [1,0,0,1]
   dsrg_s                0.5
   root_sym              0
   nroot                 1
   print                 0
}

basis {
spherical
****
Be     0
S   6   1.00
   1267.070000     0.001940
    190.356000     0.014786
     43.295900     0.071795
     12.144200     0.236348
      3.809230     0.471763
      1.268470     0.355183
S   3   1.00
      5.693880    -0.028876
      1.555630    -0.177565
      0.171855     1.071630
S   1   1.00
      0.057181     1.000000
P   2   1.00
      1.555630     0.144045
      0.171855     0.949692
P   1   1.00
      5.693880     1.000000
****
H      0
S   3   1.00
     19.240600     0.032828
      2.899200     0.231208
      0.653400     0.817238
S   1   1.00
      0.177600     1.000000
****
}

forte_energy = energy('forte')
compare_values(refdsrgpt2,get_variable("CURRENT ENERGY"),10,"DSRG-MRPT2 energy")
--------------------------------------------------------------------------

*** tstart() called on yorks-mac.wireless.emory.edu
*** at Mon Dec  4 14:21:26 2017

   => Loading Basis Set <=

    Name: ANONYMOUS2700A5CA
    Role: ORBITAL
    Keyword: BASIS
    atoms 1   entry BE         line     5 inputblock anonymous2700a5ca 
    atoms 2-3 entry H          line    25 inputblock anonymous2700a5ca 


         ---------------------------------------------------------
                                   SCF
            by Justin Turney, Rob Parrish, Andy Simmonett
                             and Daniel Smith
                              RHF Reference
                        1 Threads,    500 MiB Core
         ---------------------------------------------------------

  ==> Geometry <==

    Molecular point group: c2v
    Full point group: C2v

    Geometry (in Bohr), charge = 0, multiplicity = 1:

       Center              X                  Y                   Z               Mass       
    ------------   -----------------  -----------------  -----------------  -----------------
          BE          0.000000000000     0.000000000000    -0.456946119527     9.012182201000
           H         -0.000000000000     1.390000000000     2.043053880473     1.007825032070
           H          0.000000000000    -1.390000000000     2.043053880473     1.007825032070

  Running in c2v symmetry.

  Rotational constants: A =     15.45786  B =      5.84735  C =      4.24251 [cm^-1]
  Rotational constants: A = 463415.11694  B = 175299.21379  C = 127187.22870 [MHz]
  Nuclear repulsion =    3.156487659063052

  Charge       = 0
  Multiplicity = 1
  Electrons    = 6
  Nalpha       = 3
  Nbeta        = 3

  ==> Algorithm <==

  SCF Algorithm Type is PK.
  DIIS enabled.
  MOM disabled.
  Fractional occupation disabled.
  Guess Type is SAD.
  Energy threshold   = 1.00e-15
  Density threshold  = 1.00e-12
  Integral threshold = 0.00e+00

  ==> Primary Basis <==

  Basis Set: ANONYMOUS2700A5CA
    Blend: ANONYMOUS2700A5CA
    Number of shells: 9
    Number of basis function: 13
    Number of Cartesian functions: 13
    Spherical Harmonics?: true
    Max angular momentum: 1

  ==> Pre-Iterations <==

   -------------------------------------------------------
    Irrep   Nso     Nmo     Nalpha   Nbeta   Ndocc  Nsocc
   -------------------------------------------------------
     A1         7       7       0       0       0       0
     A2         0       0       0       0       0       0
     B1         2       2       0       0       0       0
     B2         4       4       0       0       0       0
   -------------------------------------------------------
    Total      13      13       3       3       3       0
   -------------------------------------------------------

  ==> Integral Setup <==

  Using in-core PK algorithm.
   Calculation information:
      Number of atoms:                   3
      Number of AO shells:               9
      Number of primitives:             21
      Number of atomic orbitals:        13
      Number of basis functions:        13

      Integral cutoff                 1.00e-12
      Number of threads:                 1

  Performing in-core PK
  Using 8372 doubles for integral storage.
  We computed 1035 shell quartets total.
  Whereas there are 1035 unique shell quartets.
  ==> DiskJK: Disk-Based J/K Matrices <==

    J tasked:                  Yes
    K tasked:                  Yes
    wK tasked:                  No
    Memory (MB):               375
    Schwarz Cutoff:          1E-12

    OpenMP threads:              1
  Minimum eigenvalue in the overlap matrix is 1.2053632228E-01.
  Using Symmetric Orthogonalization.

  SCF Guess: Superposition of Atomic Densities via on-the-fly atomic UHF.

  ==> Iterations <==

                        Total Energy        Delta E     RMS |[F,P]|

   @RHF iter   0:   -15.56301095030744   -1.55630e+01   5.44147e-02 
   @RHF iter   1:   -15.52996866392277    3.30423e-02   1.48767e-02 
   @RHF iter   2:   -15.55738473050347   -2.74161e-02   4.69546e-03 DIIS
   @RHF iter   3:   -15.56151938814144   -4.13466e-03   2.28944e-03 DIIS
   @RHF iter   4:   -15.56286464827655   -1.34526e-03   2.24552e-04 DIIS
   @RHF iter   5:   -15.56287226322974   -7.61495e-06   3.86260e-05 DIIS
   @RHF iter   6:   -15.56287237470625   -1.11477e-07   3.70255e-06 DIIS
   @RHF iter   7:   -15.56287237681811   -2.11187e-09   3.38095e-07 DIIS
   @RHF iter   8:   -15.56287237683213   -1.40172e-11   3.56187e-08 DIIS
   @RHF iter   9:   -15.56287237683228   -1.52767e-13   2.52796e-09 DIIS
   @RHF iter  10:   -15.56287237683226    2.13163e-14   1.54895e-10 DIIS
   @RHF iter  11:   -15.56287237683228   -1.77636e-14   2.26137e-11 DIIS
   @RHF iter  12:   -15.56287237683227    1.06581e-14   2.41329e-13 DIIS
   @RHF iter  13:   -15.56287237683227   -3.55271e-15   2.38295e-14 DIIS
   @RHF iter  14:   -15.56287237683229   -1.77636e-14   8.66907e-15 DIIS
   @RHF iter  15:   -15.56287237683228    7.10543e-15   4.87976e-15 DIIS
   @RHF iter  16:   -15.56287237683228    1.77636e-15   3.20496e-15 DIIS
   @RHF iter  17:   -15.56287237683229   -5.32907e-15   2.23058e-15 DIIS
   @RHF iter  18:   -15.56287237683228    7.10543e-15   1.73012e-15 DIIS
   @RHF iter  19:   -15.56287237683228   -1.77636e-15   1.43968e-15 DIIS
   @RHF iter  20:   -15.56287237683227    8.88178e-15   1.34724e-15 DIIS
   @RHF iter  21:   -15.56287237683228   -1.77636e-15   1.10699e-15 DIIS
   @RHF iter  22:   -15.56287237683228   -5.32907e-15   1.22323e-15 DIIS
   @RHF iter  23:   -15.56287237683228    3.55271e-15   9.07495e-16 DIIS
   @RHF iter  24:   -15.56287237683228   -3.55271e-15   1.02775e-15 DIIS
   @RHF iter  25:   -15.56287237683228    3.55271e-15   8.83148e-16 DIIS
   @RHF iter  26:   -15.56287237683229   -1.24345e-14   9.60552e-16 DIIS
   @RHF iter  27:   -15.56287237683228    5.32907e-15   7.33596e-16 DIIS
   @RHF iter  28:   -15.56287237683228    5.32907e-15   8.61984e-16 DIIS
   @RHF iter  29:   -15.56287237683230   -1.59872e-14   8.61391e-16 DIIS
   @RHF iter  30:   -15.56287237683228    1.24345e-14   7.01102e-16 DIIS
   @RHF iter  31:   -15.56287237683229   -7.10543e-15   7.38742e-16 DIIS
   @RHF iter  32:   -15.56287237683229   -1.77636e-15   6.73836e-16 DIIS
   @RHF iter  33:   -15.56287237683228    1.42109e-14   6.89587e-16 DIIS
   @RHF iter  34:   -15.56287237683230   -2.30926e-14   7.52573e-16 DIIS
   @RHF iter  35:   -15.56287237683229    1.42109e-14   6.52276e-16 DIIS
   @RHF iter  36:   -15.56287237683229   -1.77636e-15   8.63050e-16 DIIS
   @RHF iter  37:   -15.56287237683228    5.32907e-15   9.63608e-16 DIIS
   @RHF iter  38:   -15.56287237683228    3.55271e-15   8.31891e-16 DIIS
   @RHF iter  39:   -15.56287237683228   -5.32907e-15   5.60269e-16 DIIS
   @RHF iter  40:   -15.56287237683228    3.55271e-15   7.68537e-16 DIIS
   @RHF iter  41:   -15.56287237683228    0.00000e+00   7.82416e-16 DIIS

  ==> Post-Iterations <==

    Orbital Energies (a.u.)
    -----------------------

    Doubly Occupied:                                                      

       1A1    -4.745154     2A1    -0.496862     1B2    -0.252144  

    Virtual:                                                              

       3A1    -0.004524     1B1     0.147520     4A1     0.268817  
       2B2     0.280798     5A1     0.399681     3B2     1.190648  
       6A1     1.301378     2B1     8.956704     4B2     9.007371  
       7A1     9.098579  

    Final Occupation by Irrep:
             A1    A2    B1    B2 
    DOCC [     2,    0,    0,    1 ]

  Energy converged.

  @RHF Final Energy:   -15.56287237683228

   => Energetics <=

    Nuclear Repulsion Energy =              3.1564876590630520
    One-Electron Energy =                 -26.4504019931892707
    Two-Electron Energy =                   7.7310419572939368
    Total Energy =                        -15.5628723768322814



Properties will be evaluated at   0.000000,   0.000000,   0.000000 Bohr

Properties computed using the SCF density matrix

  Nuclear Dipole Moment: (a.u.)
     X:     0.0000      Y:     0.0000      Z:     2.2583

  Electronic Dipole Moment: (a.u.)
     X:     0.0000      Y:     0.0000      Z:    -3.9654

  Dipole Moment: (a.u.)
     X:     0.0000      Y:     0.0000      Z:    -1.7071     Total:     1.7071

  Dipole Moment: (Debye)
     X:     0.0000      Y:     0.0000      Z:    -4.3391     Total:     4.3391


*** tstop() called on yorks-mac.wireless.emory.edu at Mon Dec  4 14:21:27 2017
Module time:
	user time   =       0.35 seconds =       0.01 minutes
	system time =       0.02 seconds =       0.00 minutes
	total time  =          1 seconds =       0.02 minutes
Total time:
	user time   =       0.35 seconds =       0.01 minutes
	system time =       0.02 seconds =       0.00 minutes
	total time  =          1 seconds =       0.02 minutes
   => Loading Basis Set <=

    Name: CC-PVDZ-RI
    Role: RIFIT
    Keyword: DF_BASIS_MP2
    atoms 1   entry BE         line    83 file /Users/york/src/psi4new/psi4/share/psi4/basis/cc-pvdz-ri.gbs 
    atoms 2-3 entry H          line    19 file /Users/york/src/psi4new/psi4/share/psi4/basis/cc-pvdz-ri.gbs 

   => Loading Basis Set <=

    Name: STO-3G
    Role: ORBITAL
    Keyword: MINAO_BASIS
    atoms 1   entry BE         line    41 file /Users/york/src/psi4new/psi4/share/psi4/basis/sto-3g.gbs 
    atoms 2-3 entry H          line    19 file /Users/york/src/psi4new/psi4/share/psi4/basis/sto-3g.gbs 


Reading options from the FORTE block
Calling plugin forte.so.



  Forte
  ----------------------------------------------------------------------------
  A suite of quantum chemistry methods for strongly correlated electrons

    git branch: master - git commit: 1c92254a

  Developed by:
    Francesco A. Evangelista, Chenyang Li, Kevin P. Hannon,
    Jeffrey B. Schriber, Tianyuan Zhang, Chenxi Cai
  ----------------------------------------------------------------------------

  Size of Determinant class: 32

  ==> MO Space Information <==

  Read options for space RESTRICTED_DOCC
  Read options for space ACTIVE
  -------------------------------------------------
                       A1    A2    B1    B2   Sum
  -------------------------------------------------
    FROZEN_DOCC         0     0     0     0     0
    RESTRICTED_DOCC     2     0     0     0     2
    ACTIVE              1     0     0     1     2
    RESTRICTED_UOCC     4     0     2     3     9
    FROZEN_UOCC         0     0     0     0     0
    Total               7     0     2     4    13
  -------------------------------------------------

  ==> Integral Transformation <==

  Number of molecular orbitals:               13
  Number of correlated molecular orbitals:    13
  Number of frozen occupied orbitals:          0
  Number of frozen unoccupied orbitals:        0

    Molecular point group: c2v
    Full point group: C2v

    Geometry (in Bohr), charge = 0, multiplicity = 1:

       Center              X                  Y                   Z               Mass       
    ------------   -----------------  -----------------  -----------------  -----------------
          BE          0.000000000000     0.000000000000    -0.456946119527     9.012182201000
           H         -0.000000000000     1.390000000000     2.043053880473     1.007825032070
           H          0.000000000000    -1.390000000000     2.043053880473     1.007825032070

  -AO BASIS SET INFORMATION:
    Name                   = ANONYMOUS2700A5CA
    Blend                  = ANONYMOUS2700A5CA
    Total number of shells = 9
    Number of primitives   = 21
    Number of AO           = 13
    Number of SO           = 13
    Maximum AM             = 1
    Spherical Harmonics    = TRUE

  -Contraction Scheme:
    Atom   Type   All Primitives // Shells:
   ------ ------ --------------------------
       1    BE     10s 3p // 3s 2p 
       2     H     4s // 2s 
       3     H     4s // 2s 

  ==> AO Basis Functions <==

    [ ANONYMOUS2700A5CA ]
    spherical
    ****
   BE   1
    S   6 1.00
                      1267.07000000           0.00194000
                       190.35600000           0.01478600
                        43.29590000           0.07179500
                        12.14420000           0.23634800
                         3.80923000           0.47176300
                         1.26847000           0.35518300
    S   3 1.00
                         5.69388000          -0.02887600
                         1.55563000          -0.17756500
                         0.17185500           1.07163000
    S   1 1.00
                         0.05718100           1.00000000
    P   2 1.00
                         1.55563000           0.14404500
                         0.17185500           0.94969200
    P   1 1.00
                         5.69388000           1.00000000
    ****
    H   2
    S   3 1.00
                        19.24060000           0.03282800
                         2.89920000           0.23120800
                         0.65340000           0.81723800
    S   1 1.00
                         0.17760000           1.00000000
    ****


  DFIntegrals overall time
  DFIntegrals take      0.07849200 s

              ---------------------------------------------------
                Complete Active Space Configuration Interaction
                                  Chenyang Li
              ---------------------------------------------------

  Forming alpha and beta strings      ...  Done. Timing        0.000054 s
  Forming determinants                ...  Done. Timing        0.000018 s

  ==> Determinants Summary <==

    number of alpha active electrons    =     1
    number of beta active electrons     =     1
    root symmetry (zero based)          =     0
    number of determinants              =     2

  Diagonalizing Hamiltonian           ...
  Found 2 roots with 2S+1 = 1 *  Done. Timing        0.000229 s

  * * * * * * * * * * * * * * * * *
  *  CI Vectors & Configurations  *
  * * * * * * * * * * * * * * * * *

  ==> Root No. 0 <==

    0 2          0.9922917063
    2 0         -0.1239240478

    Total Energy:   -15.565633469491148



  ==> Permanent Dipole Moments (A1) <==

  Only print nonzero (> 1.0e-5) elements.
  Permanent dipole moments (a.u.) 0 -> 0:  X:  0.0000  Y:  0.0000  Z: -1.6313  Total:  1.6313

  Computing 1-, 2- and 3-cumulants ... Done. Timing        0.011695 s


       -----------------------------------------------------------------
                            Semi-Canonical Orbitals
         Chenyang Li, Jeffrey B. Schriber and Francesco A. Evangelista
       -----------------------------------------------------------------

  Took 0.006006 s to build Fock matrix

  ==> Checking Fock Matrix Diagonal Blocks <==

    Off-Diag. Elements       Max           2-Norm
    ------------------------------------------------
    Fa actv              0.0000000000   0.0000000000
    Fb actv              0.0000000000   0.0000000000
    ------------------------------------------------
    Fa core              0.0000881196   0.0001246199
    Fb core              0.0000881196   0.0001246199
    ------------------------------------------------
    Fa virt              0.0006575447   0.0016376928
    Fb virt              0.0006575447   0.0016376928
    ------------------------------------------------

  ==> Integral Transformation to Semicanonical Basis <==
    Molecular point group: c2v
    Full point group: C2v

    Geometry (in Bohr), charge = 0, multiplicity = 1:

       Center              X                  Y                   Z               Mass       
    ------------   -----------------  -----------------  -----------------  -----------------
          BE          0.000000000000     0.000000000000    -0.456946119527     9.012182201000
           H         -0.000000000000     1.390000000000     2.043053880473     1.007825032070
           H          0.000000000000    -1.390000000000     2.043053880473     1.007825032070

  -AO BASIS SET INFORMATION:
    Name                   = ANONYMOUS2700A5CA
    Blend                  = ANONYMOUS2700A5CA
    Total number of shells = 9
    Number of primitives   = 21
    Number of AO           = 13
    Number of SO           = 13
    Maximum AM             = 1
    Spherical Harmonics    = TRUE

  -Contraction Scheme:
    Atom   Type   All Primitives // Shells:
   ------ ------ --------------------------
       1    BE     10s 3p // 3s 2p 
       2     H     4s // 2s 
       3     H     4s // 2s 

  ==> AO Basis Functions <==

    [ ANONYMOUS2700A5CA ]
    spherical
    ****
   BE   1
    S   6 1.00
                      1267.07000000           0.00194000
                       190.35600000           0.01478600
                        43.29590000           0.07179500
                        12.14420000           0.23634800
                         3.80923000           0.47176300
                         1.26847000           0.35518300
    S   3 1.00
                         5.69388000          -0.02887600
                         1.55563000          -0.17756500
                         0.17185500           1.07163000
    S   1 1.00
                         0.05718100           1.00000000
    P   2 1.00
                         1.55563000           0.14404500
                         0.17185500           0.94969200
    P   1 1.00
                         5.69388000           1.00000000
    ****
    H   2
    S   3 1.00
                        19.24060000           0.03282800
                         2.89920000           0.23120800
                         0.65340000           0.81723800
    S   1 1.00
                         0.17760000           1.00000000
    ****


 Integrals are about to be computed.
 Integrals are about to be updated.

  ==> Reference Transformation to Semicanonical Basis <==

    Transformed 1 cumulants.
    Transformed 2 cumulants and RDMs.
    Transformed 3 cumulants.
  SemiCanonicalize takes 1.976948 s.

  ==> Multireference Driven Similarity Renormalization Group <==

    Reading DSRG options ............................ Done
    Setting ambit MO space .......................... Done
    Preparing tensors for density cumulants ......... Done
    Building Fock matrix ............................ Done

                  --------------------------------------------
                      Density Fitted / Cholesky Decomposed
                    MR-DSRG Second-Order Perturbation Theory
                      Kevin Hannon and Chenyang (York) Li
                                    1 thread
                  --------------------------------------------

    References:
      u-DSRG-MRPT2:      J. Chem. Theory Comput. 2015, 11, 2097.
      DF/CD-DSRG-MRPT2:  J. Chem. Phys. 2016, 144, 204111.
      (pr-)DSRG-MRPT2:   J. Chem. Phys. 2017, 146, 124132.


  ==> Calculation Information <==

    Flow parameter                                 5.000e-01
    Taylor expansion threshold                     1.000e-03
    Cholesky tolerance                             1.000e-06
    Psi4 ref_type                                        RHF
    Integral type                                         DF
    Source operator                                 STANDARD
    CCVV algorithm                                 FLY_AMBIT
    CCVV source                                       NORMAL
    Reference relaxation                                NONE
    State type                                STATE-SPECIFIC

  ==> Checking Semicanonical Orbitals <==

    Abs. max of Fock core, active, virtual blocks (Fij, i != j)
                  core          active         virtual
    --------------------------------------------------
    Fα    0.0000000000    0.0000000000    0.0000000000
    Fβ    0.0000000000    0.0000000000    0.0000000000
    --------------------------------------------------

    1-Norm of Fock core, active, virtual blocks (Fij, i != j)
                  core          active         virtual
    --------------------------------------------------
    Fα    0.0000000000    0.0000000000    0.0000000000
    Fβ    0.0000000000    0.0000000000    0.0000000000
    --------------------------------------------------

    Orbitals are semi-canonicalized.

  ==> Computing DSRG-MRPT2 Energy <==

  Reference Energy = -15.565633469491148
    Computing T2                             ...... Done. Timing        0.002745 s
    Renormalizing V                          ...... Done. Timing        0.001268 s
    Computing T1                             ...... Done. Timing        0.004471 s
    Renormalizing F                          ...... Done. Timing        0.005858 s
    Computing <[F, T1]>                      ...... Done. Timing        0.001883 s
    Computing <[F, T2]>                      ...... Done. Timing        0.003698 s
    Computing <[V, T1]>                      ...... Done. Timing        0.003541 s
    Computing <[V, T2]> 4HH                  ...... Done. Timing        0.005535 s
    Computing <V, T2]> 4PP                   ...... Done. Timing        0.005528 s
    Computing [V, T2] 4PH                    ...... Done. Timing        0.024012 s
    Computing [V, T2] λ3                     ...... Done. Timing        0.013394 s
    Computing <[V, T2]> (C_2)^4 (no ccvv)    ...... Done. Timing        0.022097 s
    Computing <[V, T2]> (C_2)^4 ccvv         ...... Done. Timing        0.002290 s
  Eccvv: -0.0241169583

  ==> DSRG-MRPT2 (DF/CD) Energy Summary <==

    E0 (reference)                 =    -15.565633469491148
    <[F, T1]>                      =     -0.000005436576713
    <[F, T2]>                      =     -0.000001289387103
    <[V, T1]>                      =      0.000004009844042
    <[V, T2]> C_4 (C_2)^2 HH       =      0.000392414883318
    <[V, T2]> C_4 (C_2)^2 PP       =      0.000766528385711
    <[V, T2]> C_4 (C_2)^2 PH       =     -0.001593703870148
    <[V, T2]> C_6 C_2              =      0.000140161111320
    <[V, T2]> (C_2)^4              =     -0.047458214939957
    <[V, T2]>                      =     -0.047752814429756
    DSRG-MRPT2 correlation energy  =     -0.047755530549530
    DSRG-MRPT2 total energy        =    -15.613389000040678
    max(T1)                        =      0.000425821045767
    ||T1||                         =      0.001158511286537

  ==> Total Timings (s) for Computing Commutators <==

             [H1, T1]    [H1, T2]    [H2, T1]    [H2, T2]
    -----------------------------------------------------
    -> C0       0.002       0.004       0.004       0.060
    -> C1       0.000       0.000       0.000       0.000
    -> C2                   0.000       0.000       0.000
    -----------------------------------------------------

 CD/DF DSRG-MRPT2 took  2.11315 s.	DSRG-MRPT2 energy.................................................PASSED

*** Psi4 exiting successfully. Buy a developer a beer!
