
    -----------------------------------------------------------------------
          Psi4: An Open-Source Ab Initio Electronic Structure Package
                               Psi4 1.10a1.dev48 

                         Git: Rev {master} 1813c0c dirty


    D. G. A. Smith, L. A. Burns, A. C. Simmonett, R. M. Parrish,
    M. C. Schieber, R. Galvelis, P. Kraus, H. Kruse, R. Di Remigio,
    A. Alenaizan, A. M. James, S. Lehtola, J. P. Misiewicz, M. Scheurer,
    R. A. Shaw, J. B. Schriber, Y. Xie, Z. L. Glick, D. A. Sirianni,
    J. S. O'Brien, J. M. Waldrop, A. Kumar, E. G. Hohenstein,
    B. P. Pritchard, B. R. Brooks, H. F. Schaefer III, A. Yu. Sokolov,
    K. Patkowski, A. E. DePrince III, U. Bozkaya, R. A. King,
    F. A. Evangelista, J. M. Turney, T. D. Crawford, C. D. Sherrill,
    J. Chem. Phys. 152(18) 184108 (2020). https://doi.org/10.1063/5.0006002

                            Additional Code Authors
    E. T. Seidl, C. L. Janssen, E. F. Valeev, M. L. Leininger,
    J. F. Gonthier, R. M. Richard, H. R. McAlexander, M. Saitow, X. Wang,
    P. Verma, M. H. Lechner, A. Jiang, S. Behnle, A. G. Heide,
    M. F. Herbst, and D. L. Poole

             Previous Authors, Complete List of Code Contributors,
                       and Citations for Specific Modules
    https://github.com/psi4/psi4/blob/master/codemeta.json
    https://github.com/psi4/psi4/graphs/contributors
    http://psicode.org/psi4manual/master/introduction.html#citing-psifour

    -----------------------------------------------------------------------


    Psi4 started on: Friday, 09 August 2024 10:04AM

    Process ID: 45424
    Host:       Brian-Zs-MBA.local
    PSIDATADIR: /Users/brianz98/local/psi4/objdir-Release/stage/share/psi4
    Memory:     500.0 MiB
    Threads:    1
    
  ==> Input File <==

--------------------------------------------------------------------------
#! This tests the DF-DSRG-MRPT2 on BeH2
#! Generated using commit GITCOMMIT
import forte

refdsrgpt2 =  -15.613389000026

molecule {
  0 1
  BE        0.000000000000     0.000000000000     0.000000000000
  H         0.000000000000     1.390000000000     2.500000000000
  H         0.000000000000    -1.390000000000     2.500000000000
  units bohr
  no_reorient
}

set globals{
   reference      rhf
   scf_type       pk
   guess      core
   d_convergence  8
   e_convergence  12
   df_basis_mp2   cc-pvdz-ri
}

set forte{
   active_space_solver   detci
   correlation_solver    three-dsrg-mrpt2
   int_type              df
   restricted_docc       [2,0,0,0]
   active                [1,0,0,1]
   dsrg_s                0.5
   root_sym              0
   nroot                 1
   print                 0
   mcscf_reference      false
}

basis {
spherical
****
Be     0
S   6   1.00
   1267.070000     0.001940
    190.356000     0.014786
     43.295900     0.071795
     12.144200     0.236348
      3.809230     0.471763
      1.268470     0.355183
S   3   1.00
      5.693880    -0.028876
      1.555630    -0.177565
      0.171855     1.071630
S   1   1.00
      0.057181     1.000000
P   2   1.00
      1.555630     0.144045
      0.171855     0.949692
P   1   1.00
      5.693880     1.000000
****
H      0
S   3   1.00
     19.240600     0.032828
      2.899200     0.231208
      0.653400     0.817238
S   1   1.00
      0.177600     1.000000
****
}

forte_energy = energy('forte')
compare_values(refdsrgpt2,variable("CURRENT ENERGY"),10,"DSRG-MRPT2 energy")
--------------------------------------------------------------------------

Scratch directory: /tmp/

  Forte
  ----------------------------------------------------------------------------
  A suite of quantum chemistry methods for strongly correlated electrons

    git branch: main - git commit: 757934d4

  Developed by:
    Francesco A. Evangelista, Chenyang Li, Kevin P. Hannon,
    Jeffrey B. Schriber, Tianyuan Zhang, Chenxi Cai,
    Nan He, Nicholas Stair, Shuhe Wang, Renke Huang
  ----------------------------------------------------------------------------


  Preparing forte objects from a Psi4 Wavefunction object
  No reference wave function provided for Forte. Computing SCF orbitals using Psi4 ...
   => Libint2 <=

    Primary   basis highest AM E, G, H:  6, 6, 3
    Auxiliary basis highest AM E, G, H:  7, 7, 4
    Onebody   basis highest AM E, G, H:  -, -, -
    Solid Harmonics ordering:            Gaussian

*** tstart() called on Brian-Zs-MBA.local
*** at Fri Aug  9 10:04:38 2024

   => Loading Basis Set <=

    Name: ANONYMOUS8AC0F682
    Role: ORBITAL
    Keyword: BASIS
    atoms 1   entry BE         line     5 inputblock anonymous8ac0f682 
    atoms 2-3 entry H          line    25 inputblock anonymous8ac0f682 


         ---------------------------------------------------------
                                   SCF
               by Justin Turney, Rob Parrish, Andy Simmonett
                          and Daniel G. A. Smith
                              RHF Reference
                        1 Threads,    500 MiB Core
         ---------------------------------------------------------

  ==> Geometry <==

    Molecular point group: c2v
    Full point group: C2v

    Geometry (in Bohr), charge = 0, multiplicity = 1:

       Center              X                  Y                   Z               Mass       
    ------------   -----------------  -----------------  -----------------  -----------------
         BE           0.000000000000     0.000000000000    -0.456946083786     9.012183065000
         H           -0.000000000000     1.390000000000     2.043053916214     1.007825032230
         H            0.000000000000    -1.390000000000     2.043053916214     1.007825032230

  Running in c2v symmetry.

  Rotational constants: A =     15.45786  B =      5.84735  C =      4.24251 [cm^-1]
  Rotational constants: A = 463415.11676  B = 175299.21065  C = 127187.22704 [MHz]
  Nuclear repulsion =    3.156487659063052

  Charge       = 0
  Multiplicity = 1
  Electrons    = 6
  Nalpha       = 3
  Nbeta        = 3

  ==> Algorithm <==

  SCF Algorithm Type is PK.
  DIIS enabled.
  MOM disabled.
  Fractional occupation disabled.
  Guess Type is CORE.
  Energy threshold   = 1.00e-12
  Density threshold  = 1.00e-08
  Integral threshold = 1.00e-12

  ==> Primary Basis <==

  Basis Set: ANONYMOUS8AC0F682
    Blend: ANONYMOUS8AC0F682
    Number of shells: 9
    Number of basis functions: 13
    Number of Cartesian functions: 13
    Spherical Harmonics?: true
    Max angular momentum: 1

  ==> Integral Setup <==

  Using in-core PK algorithm.
   Calculation information:
      Number of atoms:                   3
      Number of AO shells:               9
      Number of primitives:             21
      Number of atomic orbitals:        13
      Number of basis functions:        13

      Integral cutoff                 1.00e-12
      Number of threads:                 1

  Performing in-core PK
  Using 8372 doubles for integral storage.
  We computed 1035 shell quartets total.
  Whereas there are 1035 unique shell quartets.

  ==> DiskJK: Disk-Based J/K Matrices <==

    J tasked:                  Yes
    K tasked:                  Yes
    wK tasked:                  No
    Memory [MiB]:              375
    Schwarz Cutoff:          1E-12

    OpenMP threads:              1

  Minimum eigenvalue in the overlap matrix is 9.9525368827E-02.
  Reciprocal condition number of the overlap matrix is 3.4316955989E-02.
    Using symmetric orthogonalization.

  ==> Pre-Iterations <==

  SCF Guess: Core (One-Electron) Hamiltonian.

   -------------------------------------------------------
    Irrep   Nso     Nmo     Nalpha   Nbeta   Ndocc  Nsocc
   -------------------------------------------------------
     A1         7       7       2       2       2       0
     A2         0       0       0       0       0       0
     B1         2       2       0       0       0       0
     B2         4       4       1       1       1       0
   -------------------------------------------------------
    Total      13      13       3       3       3       0
   -------------------------------------------------------

  ==> Iterations <==

                        Total Energy        Delta E     RMS |[F,P]|

   @RHF iter   1:   -15.09054613979691   -1.50905e+01   1.14795e-01 ADIIS
   @RHF iter   2:   -15.55154719060558   -4.61001e-01   1.21938e-02 ADIIS/DIIS
   @RHF iter   3:   -15.56243661694003   -1.08894e-02   2.22249e-03 ADIIS/DIIS
   @RHF iter   4:   -15.56284809578405   -4.11479e-04   4.83333e-04 ADIIS/DIIS
   @RHF iter   5:   -15.56287190317558   -2.38074e-05   6.83377e-05 DIIS
   @RHF iter   6:   -15.56287237043227   -4.67257e-07   5.41653e-06 DIIS
   @RHF iter   7:   -15.56287237598424   -5.55197e-09   1.81236e-06 DIIS
   @RHF iter   8:   -15.56287237681094   -8.26706e-10   3.14662e-07 DIIS
   @RHF iter   9:   -15.56287237683226   -2.13163e-11   2.35562e-08 DIIS
   @RHF iter  10:   -15.56287237683233   -6.75016e-14   6.37443e-10 DIIS
  Energy and wave function converged.


  ==> Post-Iterations <==

    Orbital Energies [Eh]
    ---------------------

    Doubly Occupied:                                                      

       1A1    -4.745154     2A1    -0.496862     1B2    -0.252144  

    Virtual:                                                              

       3A1    -0.004524     1B1     0.147520     4A1     0.268817  
       2B2     0.280798     5A1     0.399681     3B2     1.190648  
       6A1     1.301378     2B1     8.956704     4B2     9.007371  
       7A1     9.098579  

    Final Occupation by Irrep:
             A1    A2    B1    B2 
    DOCC [     2,    0,    0,    1 ]
    NA   [     2,    0,    0,    1 ]
    NB   [     2,    0,    0,    1 ]

  @RHF Final Energy:   -15.56287237683233

   => Energetics <=

    Nuclear Repulsion Energy =              3.1564876590630520
    One-Electron Energy =                 -26.4504019927852383
    Two-Electron Energy =                   7.7310419568898583
    Total Energy =                        -15.5628723768323276

Computation Completed


Properties will be evaluated at   0.000000,   0.000000,   0.000000 [a0]

Properties computed using the SCF density matrix


 Multipole Moments:

 ------------------------------------------------------------------------------------
     Multipole            Electronic (a.u.)      Nuclear  (a.u.)        Total (a.u.)
 ------------------------------------------------------------------------------------

 L = 1.  Multiply by 2.5417464519 to convert [e a0] to [Debye]
 Dipole X            :          0.0000000            0.0000000            0.0000000
 Dipole Y            :          0.0000000            0.0000000            0.0000000
 Dipole Z            :         -3.9654410            2.2583235           -1.7071175
 Magnitude           :                                                    1.7071175

 ------------------------------------------------------------------------------------

*** tstop() called on Brian-Zs-MBA.local at Fri Aug  9 10:04:38 2024
Module time:
	user time   =       0.06 seconds =       0.00 minutes
	system time =       0.01 seconds =       0.00 minutes
	total time  =          0 seconds =       0.00 minutes
Total time:
	user time   =       0.06 seconds =       0.00 minutes
	system time =       0.01 seconds =       0.00 minutes
	total time  =          0 seconds =       0.00 minutes

  Read options for space RESTRICTED_DOCC
  Read options for space ACTIVE
  Read options for space RESTRICTED_DOCC

  ==> MO Space Information <==

  -------------------------------------------------
                       A1    A2    B1    B2   Sum
  -------------------------------------------------
    FROZEN_DOCC         0     0     0     0     0
    RESTRICTED_DOCC     2     0     0     0     2
    GAS1                1     0     0     1     2
    GAS2                0     0     0     0     0
    GAS3                0     0     0     0     0
    GAS4                0     0     0     0     0
    GAS5                0     0     0     0     0
    GAS6                0     0     0     0     0
    RESTRICTED_UOCC     4     0     2     3     9
    FROZEN_UOCC         0     0     0     0     0
    Total               7     0     2     4    13
  -------------------------------------------------   => Loading Basis Set <=

    Name: CC-PVDZ-RI
    Role: RIFIT
    Keyword: DF_BASIS_MP2
    atoms 1   entry BE         line    83 file /Users/brianz98/local/psi4/objdir-Release/stage/share/psi4/basis/cc-pvdz-ri.gbs 
    atoms 2-3 entry H          line    19 file /Users/brianz98/local/psi4/objdir-Release/stage/share/psi4/basis/cc-pvdz-ri.gbs 

   => Loading Basis Set <=

    Name: STO-3G
    Role: ORBITAL
    Keyword: MINAO_BASIS
    atoms 1   entry BE         line    41 file /Users/brianz98/local/psi4/objdir-Release/stage/share/psi4/basis/sto-3g.gbs 
    atoms 2-3 entry H          line    19 file /Users/brianz98/local/psi4/objdir-Release/stage/share/psi4/basis/sto-3g.gbs 


  Forte will use psi4 integrals

  ==> Primary Basis Set Summary <==

  Basis Set: ANONYMOUS8AC0F682
    Blend: ANONYMOUS8AC0F682
    Number of shells: 9
    Number of basis functions: 13
    Number of Cartesian functions: 13
    Spherical Harmonics?: true
    Max angular momentum: 1




  ------------------ Vital Warning from Forte JK Builder (DF) ------------------
  Inconsistent integrals used in Psi4 and Forte!
  This can be fixed by setting SCF_TYPE to DF or DISK_DF.
  JK created using MemDF integrals
  DFHelper Memory: AOs need 0.000 GiB; user supplied 0.391 GiB. 
  SCF_SUBTYPE=INCORE selected. In-core MEM_DF algorithm will be used.
  Using in-core AOs.

  ==> MemDFJK: Density-Fitted J/K Matrices <==

    J tasked:                   Yes
    K tasked:                   Yes
    wK tasked:                   No
    OpenMP threads:               1
    Memory [MiB]:               400
    Algorithm:                 Core
    Schwarz Cutoff:           1E-12
    Mask sparsity (%):       0.0000
    Fitting Condition:        1E-10

   => Auxiliary Basis Set <=

  Basis Set: CC-PVDZ-RI
    Blend: CC-PVDZ-RI
    Number of shells: 30
    Number of basis functions: 84
    Number of Cartesian functions: 96
    Spherical Harmonics?: true
    Max angular momentum: 3



  ==> Integral Transformation <==

  Number of molecular orbitals:                         13
  Number of correlated molecular orbitals:              13
  Number of frozen occupied orbitals:                    0
  Number of frozen unoccupied orbitals:                  0
  Two-electron integral type:              Density fitting

  DFHelper Memory: AOs need 0.000 GiB; user supplied 0.439 GiB. 
  SCF_SUBTYPE=INCORE selected. In-core MEM_DF algorithm will be used.
  Using in-core AOs.

  ==> DFHelper <==
    NBF:                              13
    NAux:                             84
    Schwarz Cutoff:                1E-12
    Mask sparsity (%):                 0
    DFH Avail. Memory [GiB]:       0.439
    OpenMP threads:                    1
    Algorithm:                     STORE
    AO Core:                        True
    MO Core:                       False
    Hold Metric:                   False
    Metric Power:                 -0.500
    Fitting Condition:             1E-10
    Q Shell Max:                       7



  Timing for computing density-fitted integrals:              0.007 s.

  Skipping MCSCF computation. Using HF or orbitals passed via ref_wfn


  ==> General Determinant-Based CI Solver <==

  Number of active orbitals: 2
  Number of active alpha electrons: 1
  Number of active beta electrons: 1

  ==> Diagonalizing Hamiltonian Singlet (Ms = 0) A1 <==


  Performing full diagonalization of the H matrix

  Done diagonalizing Hamiltonian, 5.450e-05 seconds.

  ==> Computing 1 Coupling Lists <==

  (N-1) a lists size counts
      Size      Count
         1          2
        α          1.042e-05 seconds
        β          8.209e-06 seconds
  Time spent building 1-rdm: 8.750e-07 seconds

  ==> Computing 1 Coupling Lists <==

  (N-1) a lists size counts
      Size      Count
         1          2
        α          9.708e-06 seconds
        β          2.000e-06 seconds
  Time spent building 1-rdm: 2.166e-06 seconds

  ==> Computing 1 Coupling Lists <==

  (N-1) a lists size counts
      Size      Count
         1          2
        α          7.541e-06 seconds
        β          2.125e-06 seconds
  Time spent building 1-rdm: 1.167e-06 seconds

  ==> Computing 2 Coupling Lists <==

  (N-2) aa lists size counts
      Size      Count
        αα         5.250e-06 seconds
  (N-2) ab lists size counts
      Size      Count
         2          1
        αβ         1.025e-05 seconds
        ββ         1.208e-06 seconds
  Time spent building 2-rdm: 1.708e-06 seconds

  ==> Computing 3 Coupling Lists <==

  (N-3) aaa lists size counts
      Size      Count
        ααα        6.334e-06 seconds
  (N-3) aab lists size counts
      Size      Count
        ααβ        6.666e-06 seconds
        αββ        1.958e-06 seconds
        βββ        1.958e-06 seconds
  Time spent building 3-rdm: 2.500e-06 seconds

  ==> Semicanonicalize Orbitals <==

    MIX INACTIVE ORBITALS         FALSE
    MIX GAS ACTIVE ORBITALS       FALSE
    FROZEN_DOCC                   CANONICAL
    FROZEN_UOCC                   CANONICAL
    GAS1                          CANONICAL
    RESTRICTED_DOCC               CANONICAL
    RESTRICTED_UOCC               CANONICAL

    Off-Diag. Elements       Max           2-Norm
    ------------------------------------------------
    GAS1                 0.0000000000   0.0000000000
    RESTRICTED_DOCC      0.0000881196   0.0001246199
    RESTRICTED_UOCC      0.0006575446   0.0016376928
    ------------------------------------------------

    Canonicalization test failed

  Integrals are about to be updated.  DFHelper Memory: AOs need 0.000 GiB; user supplied 0.439 GiB. 
  SCF_SUBTYPE=INCORE selected. In-core MEM_DF algorithm will be used.
  Using in-core AOs.

  ==> DFHelper <==
    NBF:                              13
    NAux:                             84
    Schwarz Cutoff:                1E-12
    Mask sparsity (%):                 0
    DFH Avail. Memory [GiB]:       0.439
    OpenMP threads:                    1
    Algorithm:                     STORE
    AO Core:                        True
    MO Core:                       False
    Hold Metric:                   False
    Metric Power:                 -0.500
    Fitting Condition:             1E-10
    Q Shell Max:                       7



  Integrals update took     0.007 s.
  Timing for orbital canonicalization:                        0.008 s.

  ==> Multireference Driven Similarity Renormalization Group <==

    Computing Fock matrix and cleaning JK ........... Done
    Reading DSRG options ............................ Done
    Setting ambit MO space .......................... Done
    Preparing tensors for density cumulants ......... Done
    Filling Fock matrix from ForteIntegrals ......... Done

                  --------------------------------------------
                      Density Fitted / Cholesky Decomposed
                    MR-DSRG Second-Order Perturbation Theory
                      Kevin Hannon and Chenyang (York) Li
                                 1 thread (OMP)
                  --------------------------------------------

    References:
      u-DSRG-MRPT2:      J. Chem. Theory Comput. 2015, 11, 2097.
      DF/CD-DSRG-MRPT2:  J. Chem. Phys. 2016, 144, 204111.
      (pr-)DSRG-MRPT2:   J. Chem. Phys. 2017, 146, 124132.


  ==> Calculation Information <==

    --------------------------------------------------------
    Psi4 ref_type                                        RHF
    Integral type                                         DF
    Source operator                                 STANDARD
    CCVV algorithm                                 FLY_AMBIT
    CCVV source                                       NORMAL
    Reference relaxation                                NONE
    State type                                STATE-SPECIFIC
    form Hbar3                                         FALSE
    Flow parameter                                 5.000e-01
    Taylor expansion threshold                     1.000e-03
    Cholesky tolerance                             1.000e-06
    --------------------------------------------------------
  =>** Before self.dsrg_solver.compute_energy() **<=


  ==> Checking Semicanonical Orbitals <==

    Block             Fa Max         Fa Mean           Fb Max         Fb Mean
    -------------------------------------------------------------------------
    CORE        0.0000000000    0.0000000000     0.0000000000    0.0000000000
    VIRTUAL     0.0000000000    0.0000000000     0.0000000000    0.0000000000
    GAS1        0.0000000000    0.0000000000     0.0000000000    0.0000000000
    -------------------------------------------------------------------------
    Orbitals are semi-canonicalized.

  ==> Computing DSRG-MRPT2 Energy <==

  Reference Energy = -15.565633469487963
    Computing T2                             ...... Done. Timing        0.000455 s
    Renormalizing V                          ...... Done. Timing        0.000178 s
    Computing T1                             ...... Done. Timing        0.000779 s
    Renormalizing F                          ...... Done. Timing        0.001021 s
    Computing <[F, T1]>                      ...... Done. Timing        0.000324 s
    Computing <[F, T2]>                      ...... Done. Timing        0.000885 s
    Computing <[V, T1]>                      ...... Done. Timing        0.000961 s
    Computing <[V, T2]> 4HH                  ...... Done. Timing        0.001404 s
    Computing <V, T2]> 4PP                   ...... Done. Timing        0.001382 s
    Computing [V, T2] 4PH                    ...... Done. Timing        0.005872 s
    Computing [V, T2] λ3                     ...... Done. Timing        0.003092 s
    Computing <[V, T2]> (C_2)^4 (no ccvv)    ...... Done. Timing        0.005203 s
    Computing <[V, T2]> (C_2)^4 ccvv         ...... Done. Timing        0.000383 s
  Eccvv: -0.0241169583

  ==> DSRG-MRPT2 (DF/CD) Energy Summary <==

    E0 (reference)                 =    -15.565633469487963
    <[F, T1]>                      =     -0.000005436576879
    <[F, T2]>                      =     -0.000001289387341
    <[V, T1]>                      =      0.000004009843788
    <[V, T2]> C_4 (C_2)^2 HH       =      0.000392414881917
    <[V, T2]> C_4 (C_2)^2 PP       =      0.000766528384786
    <[V, T2]> C_4 (C_2)^2 PH       =     -0.001593703866287
    <[V, T2]> C_6 C_2              =      0.000140161111150
    <[V, T2]> (C_2)^4              =     -0.047458214929643
    <[V, T2]>                      =     -0.047752814418077
    DSRG-MRPT2 correlation energy  =     -0.047755530538511
    DSRG-MRPT2 total energy        =    -15.613389000026475
    max(T1)                        =      0.000425821051504
    ||T1||                         =      0.001158511335630
  =>** After self.dsrg_solver.compute_energy() **<=

  Semicanonical orbitals must be used!


  ==> Total Timings (s) for Computing Commutators <==

           [H1, T1]    [H1, T2]    [H2, T1]    [H2, T2]  
    -----------------------------------------------------
    -> C0       0.000       0.001       0.001       0.014
    -> C1       0.000       0.000       0.000       0.000
    -> C2                   0.000       0.000       0.000
    -----------------------------------------------------


  Time to prepare integrals:        0.106 seconds
  Time to run job          :        0.037 seconds
  Total                    :        0.143 seconds
    DSRG-MRPT2 energy.....................................................................PASSED

    Psi4 stopped on: Friday, 09 August 2024 10:04AM
    Psi4 wall time for execution: 0:00:00.59

*** Psi4 exiting successfully. Buy a developer a beer!
