
    -----------------------------------------------------------------------
          Psi4: An Open-Source Ab Initio Electronic Structure Package
                               Psi4 1.1a2.dev308 

                         Git: Rev {master} a2cd4f8 


    R. M. Parrish, L. A. Burns, D. G. A. Smith, A. C. Simmonett,
    A. E. DePrince III, E. G. Hohenstein, U. Bozkaya, A. Yu. Sokolov,
    R. Di Remigio, R. M. Richard, J. F. Gonthier, A. M. James,
    H. R. McAlexander, A. Kumar, M. Saitow, X. Wang, B. P. Pritchard,
    P. Verma, H. F. Schaefer III, K. Patkowski, R. A. King, E. F. Valeev,
    F. A. Evangelista, J. M. Turney, T. D. Crawford, and C. D. Sherrill,
    submitted.

    -----------------------------------------------------------------------


    Psi4 started on: Monday, 17 April 2017 06:21PM

    Process ID:  92017
    PSIDATADIR: /Users/york/src/psi4new/psi4/share/psi4
    Memory:     500.0 MiB
    Threads:    1
    
  ==> Input File <==

--------------------------------------------------------------------------
#! Generated using commit GITCOMMIT

import forte

r_c2h4_pt2  =  -78.0814423716
r_super_pt2 = -192.3820367174

molecule C2H4{
0 1
C
H 1 rCH
H 1 rCH 2 aHCH
C 1 rCC 2 aHCC 3 180.0
H 4 rCH 1 aHCC 2   0.0
H 4 rCH 1 aHCC 3   0.0

symmetry c1
}

molecule H2CO{
0 1
O
C 1 rCO
H 2 rCH1 1 aHCO
H 2 rCH1 1 aHCO 3 180.0

symmetry c1
}

molecule supermol{
0 1
C
H 1 rCH
H 1 rCH 2 aHCH
C 1 rCC 2 aHCC 3 180.0
H 4 rCH 1 aHCC 2   0.0
H 4 rCH 1 aHCC 3   0.0

O 6 rinf 4 180.0 3 0.0
C 7 rCO 6 55.0 2 35.0
H 8 rCH1 7 aHCO 5 75.0
H 8 rCH1 7 aHCO 9 180.0

symmetry c1
}

from math import sqrt, pi, atan

# geometry parameters for C2H4
zC = 0.668188
zH = 1.238289
yH = 0.923274
rCH = sqrt(yH**2 + (zH - zC)**2)
rCC = 2.0 * zC
aHCC = 90.0 + atan((zH - zC) / yH) * 180 / pi
aHCH = 360.0 - 2.0 * aHCC

C2H4.rCH = rCH
C2H4.rCC = rCC
C2H4.aHCC = aHCC
C2H4.aHCH = aHCH

supermol.rCH = rCH
supermol.rCC = rCC
supermol.aHCC = aHCC
supermol.aHCH = aHCH

# geometry parameters for H2CO
y = 0.934473
z = 0.588078
rCO = 1.221104
rCH1 = sqrt(z**2 + y**2)
aHCO = 90.0 + atan(z / y) * 180.0 / pi

H2CO.rCO = rCO
H2CO.rCH1 = rCH1
H2CO.aHCO = aHCO

supermol.rCO = rCO
supermol.rCH1 = rCH1
supermol.aHCO = aHCO

# separation between C2H4 and H2CO
supermol.rinf = 5000.0

# general setting for scf
set global{
  reference        rhf
  scf_type         df
  basis            def2-tzvp
  df_basis_scf     def2-tzvp-jkfit
  df_basis_mp2     def2-tzvp-jkfit
  e_convergence    10
  d_convergence    13
  maxiter          100
}

# general setting of forte
set forte{
  job_type           active-dsrgpt2
  int_type           df
  dsrg_s             0.5
  dl_maxiter         500
  e_convergence      13
  cas_type           cas
  fcimo_actv_type    cisd
  internal_amp       singles_doubles
}

# H2CO ground state
activate(H2CO)
set forte {
  frozen_docc        [2]
  restricted_docc    [4]
  active             [3]
  nrootpi            [1]
}
Eh2co_0 = energy('forte')

set forte {
  frozen_docc        [2]
  restricted_docc    [3]
  active             [9]
  nrootpi            [1]
}
Eh2co_1 = energy('forte')
compare_values(Eh2co_0, Eh2co_1, 8, "active independence for H2CO S0")

# C2H4 pi to pi*
clean()
activate(C2H4)
set forte {
  frozen_docc        [2]
  restricted_docc    [4]
  active             [3]
  nrootpi            [2]
}
Ec2h4 = energy('forte')

# supermolecule for C2H4 pi to pi*
clean()
activate(supermol)
set forte {
  frozen_docc        [4]
  restricted_docc    [8]
  active             [6]
  nrootpi            [3]
}
Esuper = energy('forte')

Eerror = Esuper - Eh2co_1 - Ec2h4
compare_values(Eerror, 0.0, 8, "size-intensive error for C2H4 pi->pi*")

# compare absolute energies of C2H4 pi->pi* excited state
compare_values(Ec2h4, r_c2h4_pt2, 8, "abs. energy of excited C2H4")
compare_values(Esuper, r_super_pt2, 8, "abs. energy of excited C2H4...H2CO")
--------------------------------------------------------------------------
/Users/york/src/forte/forte.so loaded.
Setting geometry variable rCH to 1.085104
Setting geometry variable rCC to 1.336376
Setting geometry variable aHCC to 121.694400
Setting geometry variable aHCH to 116.611199
Setting geometry variable rCH to 1.085104
Setting geometry variable rCC to 1.336376
Setting geometry variable aHCC to 121.694400
Setting geometry variable aHCH to 116.611199
Setting geometry variable rCO to 1.221104
Setting geometry variable rCH1 to 1.104118
Setting geometry variable aHCO to 122.182828
Setting geometry variable rCO to 1.221104
Setting geometry variable rCH1 to 1.104118
Setting geometry variable aHCO to 122.182828
Setting geometry variable rinf to 5000.000000

*** tstart() called on Yorks-Mac.local
*** at Mon Apr 17 18:21:34 2017


         ---------------------------------------------------------
                                   SCF
            by Justin Turney, Rob Parrish, and Andy Simmonett
                              RHF Reference
                        1 Threads,    524 MiB Core
         ---------------------------------------------------------

  ==> Geometry <==

    Molecular point group: c1
    Full point group: C2v

    Geometry (in Angstrom), charge = 0, multiplicity = 1:

       Center              X                  Y                   Z               Mass       
    ------------   -----------------  -----------------  -----------------  -----------------
           O          0.000000000000     0.000000000000    -0.609782788402    15.994914619560
           C          0.000000000000     0.000000000000     0.611321211598    12.000000000000
           H          0.000000000000    -0.934473000000     1.199399211598     1.007825032070
           H          0.000000000000     0.934473000000     1.199399211598     1.007825032070

  Running in c1 symmetry.

  Rotational constants: A =      9.57740  B =      1.26448  C =      1.11701 [cm^-1]
  Rotational constants: A = 287123.37080  B =  37908.17200  C =  33486.97185 [MHz]
  Nuclear repulsion =   30.993739661169702

  Charge       = 0
  Multiplicity = 1
  Electrons    = 16
  Nalpha       = 8
  Nbeta        = 8

  ==> Algorithm <==

  SCF Algorithm Type is DF.
  DIIS enabled.
  MOM disabled.
  Fractional occupation disabled.
  Guess Type is SAD.
  Energy threshold   = 1.00e-10
  Density threshold  = 1.00e-13
  Integral threshold = 0.00e+00

  ==> Primary Basis <==

  Basis Set: file /Users/york/src/psi4new/psi4/share/psi4/basis/def2-tzvp.gbs
    Number of shells: 30
    Number of basis function: 74
    Number of Cartesian functions: 84
    Spherical Harmonics?: true
    Max angular momentum: 3

  ==> Pre-Iterations <==

   -------------------------------------------------------
    Irrep   Nso     Nmo     Nalpha   Nbeta   Ndocc  Nsocc
   -------------------------------------------------------
     A         74      74       0       0       0       0
   -------------------------------------------------------
    Total      74      74       8       8       8       0
   -------------------------------------------------------

  ==> Integral Setup <==

  ==> DFJK: Density-Fitted J/K Matrices <==

    J tasked:                  Yes
    K tasked:                  Yes
    wK tasked:                  No
    OpenMP threads:              1
    Integrals threads:           1
    Memory (MB):               375
    Algorithm:                Core
    Integral Cache:           NONE
    Schwarz Cutoff:          1E-12
    Fitting Condition:       1E-12

   => Auxiliary Basis Set <=

  Basis Set: file /Users/york/src/psi4new/psi4/share/psi4/basis/def2-tzvp-jkfit.gbs
    Number of shells: 62
    Number of basis function: 188
    Number of Cartesian functions: 222
    Spherical Harmonics?: true
    Max angular momentum: 4

  Minimum eigenvalue in the overlap matrix is 1.5385626145E-03.
  Using Symmetric Orthogonalization.

  SCF Guess: Superposition of Atomic Densities via on-the-fly atomic UHF.

  ==> Iterations <==

                           Total Energy        Delta E     RMS |[F,P]|

   @DF-RHF iter   0:  -114.45671974374821   -1.14457e+02   3.59949e-02 
   @DF-RHF iter   1:  -113.84999003429627    6.06730e-01   4.50094e-03 
   @DF-RHF iter   2:  -113.89877767483614   -4.87876e-02   2.44275e-03 DIIS
   @DF-RHF iter   3:  -113.91187434594561   -1.30967e-02   8.02368e-04 DIIS
   @DF-RHF iter   4:  -113.91378713777968   -1.91279e-03   2.55857e-04 DIIS
   @DF-RHF iter   5:  -113.91421943290169   -4.32295e-04   8.35497e-05 DIIS
   @DF-RHF iter   6:  -113.91428973965034   -7.03067e-05   2.42524e-05 DIIS
   @DF-RHF iter   7:  -113.91429603530896   -6.29566e-06   5.30098e-06 DIIS
   @DF-RHF iter   8:  -113.91429630545113   -2.70142e-07   1.20591e-06 DIIS
   @DF-RHF iter   9:  -113.91429631803412   -1.25830e-08   2.81384e-07 DIIS
   @DF-RHF iter  10:  -113.91429631892481   -8.90694e-10   1.02302e-07 DIIS
   @DF-RHF iter  11:  -113.91429631910728   -1.82467e-10   5.10795e-08 DIIS
   @DF-RHF iter  12:  -113.91429631916668   -5.94014e-11   1.87038e-08 DIIS
   @DF-RHF iter  13:  -113.91429631917438   -7.70228e-12   3.69968e-09 DIIS
   @DF-RHF iter  14:  -113.91429631917451   -1.27898e-13   1.16150e-09 DIIS
   @DF-RHF iter  15:  -113.91429631917453   -1.42109e-14   4.56300e-10 DIIS
   @DF-RHF iter  16:  -113.91429631917437    1.56319e-13   2.32778e-10 DIIS
   @DF-RHF iter  17:  -113.91429631917438   -1.42109e-14   6.20332e-11 DIIS
   @DF-RHF iter  18:  -113.91429631917462   -2.41585e-13   1.79648e-11 DIIS
   @DF-RHF iter  19:  -113.91429631917444    1.84741e-13   5.46646e-12 DIIS
   @DF-RHF iter  20:  -113.91429631917458   -1.42109e-13   1.57457e-12 DIIS
   @DF-RHF iter  21:  -113.91429631917448    9.94760e-14   3.78199e-13 DIIS
   @DF-RHF iter  22:  -113.91429631917441    7.10543e-14   1.19034e-13 DIIS
   @DF-RHF iter  23:  -113.91429631917434    7.10543e-14   4.34568e-14 DIIS

  ==> Post-Iterations <==

    Orbital Energies (a.u.)
    -----------------------

    Doubly Occupied:                                                      

       1A    -20.576660     2A    -11.344369     3A     -1.395405  
       4A     -0.872811     5A     -0.690002     6A     -0.648383  
       7A     -0.530483     8A     -0.444951  

    Virtual:                                                              

       9A      0.105347    10A      0.161412    11A      0.216081  
      12A      0.216471    13A      0.312862    14A      0.349101  
      15A      0.373216    16A      0.543916    17A      0.591321  
      18A      0.625855    19A      0.687504    20A      0.690993  
      21A      0.767628    22A      0.767946    23A      0.887558  
      24A      0.993055    25A      1.007153    26A      1.150614  
      27A      1.320621    28A      1.537129    29A      1.665477  
      30A      1.710029    31A      1.728590    32A      1.770208  
      33A      1.847915    34A      1.919777    35A      2.031653  
      36A      2.184502    37A      2.233230    38A      2.282228  
      39A      2.338120    40A      2.466034    41A      2.580306  
      42A      2.707271    43A      2.828206    44A      2.844983  
      45A      3.008159    46A      3.217013    47A      3.271481  
      48A      3.287032    49A      3.308317    50A      3.354126  
      51A      3.376907    52A      3.479230    53A      3.482277  
      54A      3.574180    55A      3.879782    56A      4.032637  
      57A      4.064921    58A      4.333404    59A      4.449313  
      60A      4.785826    61A      5.607252    62A      5.616824  
      63A      5.921629    64A      6.055035    65A      6.478975  
      66A      6.669509    67A      6.740273    68A      6.819066  
      69A      6.877429    70A      7.258218    71A      7.301052  
      72A      7.522975    73A     23.467602    74A     45.074147  

    Final Occupation by Irrep:
              A 
    DOCC [     8 ]

  Energy converged.

  @DF-RHF Final Energy:  -113.91429631917434

   => Energetics <=

    Nuclear Repulsion Energy =             30.9937396611697018
    One-Electron Energy =                -216.8099442551622076
    Two-Electron Energy =                  71.9019082748181546
    DFT Exchange-Correlation Energy =       0.0000000000000000
    Empirical Dispersion Energy =           0.0000000000000000
    PCM Polarization Energy =               0.0000000000000000
    EFP Energy =                            0.0000000000000000
    Total Energy =                       -113.9142963191743405

    Alert: EFP and PCM quantities not currently incorporated into SCF psivars.

Properties will be evaluated at   0.000000,   0.000000,   0.000000 Bohr

Properties computed using the SCF density matrix

  Nuclear Dipole Moment: (a.u.)
     X:     0.0000      Y:     0.0000      Z:     2.2459

  Electronic Dipole Moment: (a.u.)
     X:     0.0000      Y:     0.0000      Z:    -1.1024

  Dipole Moment: (a.u.)
     X:     0.0000      Y:     0.0000      Z:     1.1435     Total:     1.1435

  Dipole Moment: (Debye)
     X:     0.0000      Y:     0.0000      Z:     2.9065     Total:     2.9065


*** tstop() called on Yorks-Mac.local at Mon Apr 17 18:21:35 2017
Module time:
	user time   =       0.61 seconds =       0.01 minutes
	system time =       0.06 seconds =       0.00 minutes
	total time  =          1 seconds =       0.02 minutes
Total time:
	user time   =       0.61 seconds =       0.01 minutes
	system time =       0.06 seconds =       0.00 minutes
	total time  =          1 seconds =       0.02 minutes

Reading options from the FORTE block
Calling plugin forte.so.




  ==> MO Space Information <==

  Read options for space FROZEN_DOCC
  Read options for space RESTRICTED_DOCC
  Read options for space ACTIVE
 Removing orbital 0
 Removing orbital 1
  -------------------------------
                        A   Sum
  -------------------------------
    FROZEN_DOCC         2     2
    RESTRICTED_DOCC     4     4
    ACTIVE              3     3
    RESTRICTED_UOCC    65    65
    FROZEN_UOCC         0     0
    Total              74    74
  -------------------------------

  ==> Integral Transformation <==

  Number of molecular orbitals:               74
  Number of correlated molecular orbitals:    72
  Number of frozen occupied orbitals:          2
  Number of frozen unoccupied orbitals:        0

    Molecular point group: c1
    Full point group: C2v

    Geometry (in Angstrom), charge = 0, multiplicity = 1:

       Center              X                  Y                   Z               Mass       
    ------------   -----------------  -----------------  -----------------  -----------------
           O          0.000000000000     0.000000000000    -0.609782788402    15.994914619560
           C          0.000000000000     0.000000000000     0.611321211598    12.000000000000
           H          0.000000000000    -0.934473000000     1.199399211598     1.007825032070
           H          0.000000000000     0.934473000000     1.199399211598     1.007825032070

  -AO BASIS SET INFORMATION:
    Name                   = file /Users/york/src/psi4new/psi4/share/psi4/basis/def2-tzvp.gbs
    Total number of shells = 30
    Number of primitives   = 52
    Number of AO           = 84
    Number of SO           = 74
    Maximum AM             = 3
    Spherical Harmonics    = TRUE

  -Contraction Scheme:
    Atom   Type   All Primitives // Shells:
   ------ ------ --------------------------
       1     O     11s 6p 2d 1f // 5s 3p 2d 1f 
       2     C     11s 6p 2d 1f // 5s 3p 2d 1f 
       3     H     5s 1p // 3s 1p 
       4     H     5s 1p // 3s 1p 

  ==> AO Basis Functions <==

    [ file /Users/york/src/psi4new/psi4/share/psi4/basis/def2-tzvp.gbs ]
    spherical
    ****
    O   1
    S   6 1.00
                     27032.38263100           0.00021726
                      4052.38713920           0.00168387
                       922.32722710           0.00873956
                       261.24070989           0.03523997
                        85.35464135           0.11153519
                        31.03503524           0.25588954
    S   2 1.00
                        12.26086073           0.39768731
                         4.99870760           0.24627849
    S   1 1.00
                         1.17031082           1.00000000
    S   1 1.00
                         0.46474741           1.00000000
    S   1 1.00
                         0.18504536           1.00000000
    P   4 1.00
                        63.27495480           0.00606851
                        14.62704938           0.04191258
                         4.45012235           0.16153841
                         1.52757996           0.35706951
    P   1 1.00
                         0.52935118           1.00000000
    P   1 1.00
                         0.17478421           1.00000000
    D   1 1.00
                         2.31400000           1.00000000
    D   1 1.00
                         0.64500000           1.00000000
    F   1 1.00
                         1.42800000           1.00000000
    ****
    C   2
    S   6 1.00
                     13575.34968200           0.00022246
                      2035.23336800           0.00172327
                       463.22562359           0.00892557
                       131.20019598           0.03572798
                        42.85301589           0.11076260
                        15.58418577           0.24295628
    S   2 1.00
                         6.20671385           0.41440263
                         2.57648965           0.23744969
    S   1 1.00
                         0.57696339           1.00000000
    S   1 1.00
                         0.22972831           1.00000000
    S   1 1.00
                         0.09516444           1.00000000
    P   4 1.00
                        34.69723224           0.00533337
                         7.95826228           0.03586411
                         2.37808269           0.14215873
                         0.81433208           0.34270472
    P   1 1.00
                         0.28887547           1.00000000
    P   1 1.00
                         0.10056824           1.00000000
    D   1 1.00
                         1.09700000           1.00000000
    D   1 1.00
                         0.31800000           1.00000000
    F   1 1.00
                         0.76100000           1.00000000
    ****
    H   3
    S   3 1.00
                        34.06134100           0.00602520
                         5.12357460           0.04502109
                         1.16466260           0.20189726
    S   1 1.00
                         0.32723041           1.00000000
    S   1 1.00
                         0.10307241           1.00000000
    P   1 1.00
                         0.80000000           1.00000000
    ****
    H   4
    S   3 1.00
                        34.06134100           0.00602520
                         5.12357460           0.04502109
                         1.16466260           0.20189726
    S   1 1.00
                         0.32723041           1.00000000
    S   1 1.00
                         0.10307241           1.00000000
    P   1 1.00
                         0.80000000           1.00000000
    ****


  DFIntegrals overall time
 Computing Density fitted integrals 

 Number of auxiliary basis functions:  188
 Need 0.007670 GB to store DF integrals

  Computing DF Integrals               ......Done. Timing        0.177684 s
  Seeking DF Integrals                 ......Done. Timing        0.179846 s
  Reading DF Integrals                 . . ....Done. Timing        0.182296 s
  Frozen-core energy           -104.823219528284 a.u.

  FrozenOneBody Operator takes  0.12266600 s
  Resorting integrals after freezing core.
 Done with resorting
 Resorting integrals takes   0.03795000s
  DFIntegrals take      0.35888400 s

              ---------------------------------------------------
                               ACTIVE-DSRG-MRPT2
                Wrapper for Multiple SS-DSRG-MRPT2 Computations
                                  Chenyang Li
              ---------------------------------------------------

  Note: Orbitals are NOT optimized throughout the process.
  Reference selection criteria (CAS/CIS/CISD) will NOT change.
  Each state uses its OWN semicanonical orbitals.
  Ground state is assumed to be a singlet.
  Otherwise, please run separate DSRG-MRPT2 jobs.

  ==> Input Summary <==

    total roots requested (include S0)                     1
    multiplicity                                           1
    reference space type                                CISD
    separate HF in CISD                                 TURE
    DSRG-MRPT2 internal amplitudes           SINGLES_DOUBLES
    DSRG-MRPT2 internal type                            AUTO

  ==> Roots Summary <==

                 A
    ----------------
      NROOTS     1
    ----------------

  ==> Precomputation of ACTIVE-DSRGPT2 <==

  Note: Looping over all roots to 
  1) determine excitation type;
  2) obtain original orbital extent;
  3) obtain unitary matrices that semicanonicalize orbitals of each state;
  4) determine %T1 in CISD.


              ---------------------------------------------------
                Complete Active Space Configuration Interaction
                                  Chenyang Li
              ---------------------------------------------------


  ==> Input Summary <==

    number of atoms                =     4
    number of electrons            =    16
    molecular charge               =     0
    number of alpha electrons      =     8
    number of beta electrons       =     8
    multiplicity                   =     1
    ms (2 * Sz)                    =     0
    number of molecular orbitals   =    74

  ==> Orbital Spaces <==

    TOTAL MO                      [   74 ]
    FROZEN CORE                   [    2 ]
    FROZEN VIRTUAL                [    0 ]
    CORRELATED MO                 [   72 ]
    CORE                          [    4 ]
    ACTIVE                        [    3 ]
    VIRTUAL                       [   65 ]

  ==> Working on Irrep A <==

  Forming determinants                ...  Done. Timing        0.000018 s

  ==> Determinants Summary <==

    number of alpha active electrons         =     2
    number of beta active electrons          =     2
    root symmetry (zero based)               =     0
    number of determinants (include RHF)     =     9

  Isolate RHF determinant to the rest determinants.
  Recompute RHF energy ... Done.

  * * * * * * * * * * * * * * * * *
  *  CI Vectors & Configurations  *
  * * * * * * * * * * * * * * * * *

  ==> Root No. 0 <==

    220          1.0000000000

    Total Energy:   -113.914296319138188


  Forming one-particle density        ...  Done. Timing        0.000103 s
  Forming generalized Fock matrix     ...  Done. Timing        0.291446 s

  ==> Permanent Dipole Moments (A) <==

  Only print nonzero (> 1.0e-5) elements.
  Permanent dipole moments (a.u.) 0 -> 0:  X:  0.0000  Y:  0.0000  Z:  1.1435  Total:  1.1435

  Computing semicanonical orbital rotation matrix for root 0.
  Forming one-particle density        ...  Done. Timing        0.000089 s
  Forming generalized Fock matrix     ...  Done. Timing        0.301033 s
  Diagonalizing Fock                  ...  Done. Timing        0.001829 s


  ===================================
    Current Job:   A state, root  0
  ===================================

  Rotate to semicanonical orbitals.

    Molecular point group: c1
    Full point group: C2v

    Geometry (in Angstrom), charge = 0, multiplicity = 1:

       Center              X                  Y                   Z               Mass       
    ------------   -----------------  -----------------  -----------------  -----------------
           O          0.000000000000     0.000000000000    -0.609782788402    15.994914619560
           C          0.000000000000     0.000000000000     0.611321211598    12.000000000000
           H          0.000000000000    -0.934473000000     1.199399211598     1.007825032070
           H          0.000000000000     0.934473000000     1.199399211598     1.007825032070

  -AO BASIS SET INFORMATION:
    Name                   = file /Users/york/src/psi4new/psi4/share/psi4/basis/def2-tzvp.gbs
    Total number of shells = 30
    Number of primitives   = 52
    Number of AO           = 84
    Number of SO           = 74
    Maximum AM             = 3
    Spherical Harmonics    = TRUE

  -Contraction Scheme:
    Atom   Type   All Primitives // Shells:
   ------ ------ --------------------------
       1     O     11s 6p 2d 1f // 5s 3p 2d 1f 
       2     C     11s 6p 2d 1f // 5s 3p 2d 1f 
       3     H     5s 1p // 3s 1p 
       4     H     5s 1p // 3s 1p 

  ==> AO Basis Functions <==

    [ file /Users/york/src/psi4new/psi4/share/psi4/basis/def2-tzvp.gbs ]
    spherical
    ****
    O   1
    S   6 1.00
                     27032.38263100           0.00021726
                      4052.38713920           0.00168387
                       922.32722710           0.00873956
                       261.24070989           0.03523997
                        85.35464135           0.11153519
                        31.03503524           0.25588954
    S   2 1.00
                        12.26086073           0.39768731
                         4.99870760           0.24627849
    S   1 1.00
                         1.17031082           1.00000000
    S   1 1.00
                         0.46474741           1.00000000
    S   1 1.00
                         0.18504536           1.00000000
    P   4 1.00
                        63.27495480           0.00606851
                        14.62704938           0.04191258
                         4.45012235           0.16153841
                         1.52757996           0.35706951
    P   1 1.00
                         0.52935118           1.00000000
    P   1 1.00
                         0.17478421           1.00000000
    D   1 1.00
                         2.31400000           1.00000000
    D   1 1.00
                         0.64500000           1.00000000
    F   1 1.00
                         1.42800000           1.00000000
    ****
    C   2
    S   6 1.00
                     13575.34968200           0.00022246
                      2035.23336800           0.00172327
                       463.22562359           0.00892557
                       131.20019598           0.03572798
                        42.85301589           0.11076260
                        15.58418577           0.24295628
    S   2 1.00
                         6.20671385           0.41440263
                         2.57648965           0.23744969
    S   1 1.00
                         0.57696339           1.00000000
    S   1 1.00
                         0.22972831           1.00000000
    S   1 1.00
                         0.09516444           1.00000000
    P   4 1.00
                        34.69723224           0.00533337
                         7.95826228           0.03586411
                         2.37808269           0.14215873
                         0.81433208           0.34270472
    P   1 1.00
                         0.28887547           1.00000000
    P   1 1.00
                         0.10056824           1.00000000
    D   1 1.00
                         1.09700000           1.00000000
    D   1 1.00
                         0.31800000           1.00000000
    F   1 1.00
                         0.76100000           1.00000000
    ****
    H   3
    S   3 1.00
                        34.06134100           0.00602520
                         5.12357460           0.04502109
                         1.16466260           0.20189726
    S   1 1.00
                         0.32723041           1.00000000
    S   1 1.00
                         0.10307241           1.00000000
    P   1 1.00
                         0.80000000           1.00000000
    ****
    H   4
    S   3 1.00
                        34.06134100           0.00602520
                         5.12357460           0.04502109
                         1.16466260           0.20189726
    S   1 1.00
                         0.32723041           1.00000000
    S   1 1.00
                         0.10307241           1.00000000
    P   1 1.00
                         0.80000000           1.00000000
    ****


 Integrals are about to be computed.
 Computing Density fitted integrals 

 Number of auxiliary basis functions:  188
 Need 0.007670 GB to store DF integrals

  Computing DF Integrals               ......Done. Timing        0.152792 s
  Seeking DF Integrals                 ......Done. Timing        0.154550 s
  Reading DF Integrals                 . . ....Done. Timing        0.156416 s
 Integrals are about to be updated.
  Frozen-core energy           -104.823219528284 a.u.

  FrozenOneBody Operator takes  0.09453300 s
  Resorting integrals after freezing core.
 Done with resorting
 Resorting integrals takes   0.03426400s
  Frozen Orbitals takes     0.133 s.
  Forming determinants                ...  Done. Timing        0.000012 s

  ==> Determinants Summary <==

    number of alpha active electrons         =     2
    number of beta active electrons          =     2
    root symmetry (zero based)               =     0
    number of determinants (include RHF)     =     9

  Isolate RHF determinant to the rest determinants.
  Recompute RHF energy ... Done.

  * * * * * * * * * * * * * * * * *
  *  CI Vectors & Configurations  *
  * * * * * * * * * * * * * * * * *

  ==> Root No. 0 <==

    220          1.0000000000

    Total Energy:   -113.914296319138558


  Forming one-particle density        ...  Done. Timing        0.000066 s
  Forming generalized Fock matrix     ...  Done. Timing        0.281996 s

  ==> Permanent Dipole Moments (A) <==

  Only print nonzero (> 1.0e-5) elements.
  Permanent dipole moments (a.u.) 0 -> 0:  X:  0.0000  Y:  0.0000  Z:  1.1435  Total:  1.1435

  Checking Fock matrices (Fa, Fb)     ...
  Nonzero criteria: > 1.00E-13
  Fa_CORE    block is diagonal.
  Fb_CORE    block is diagonal.
  Fa_ACT_H   block is diagonal.
  Fb_ACT_H   block is diagonal.
  Fa_ACT_P   block is diagonal.
  Fb_ACT_P   block is diagonal.
  Warning: Fa_VIRTUAL NOT diagonal!
  Nonzero off-diagonal:    29. Largest value:  0.000000000000256
  Warning: Fb_VIRTUAL NOT diagonal!
  Nonzero off-diagonal:    29. Largest value:  0.000000000000256
  Done checking Fock matrices.                   Timing        0.000103 s


           ---------------------------------------------------------
             DF/CD - Driven Similarity Renormalization Group MBPT2
                      Kevin Hannon and Chenyang (York) Li
                                   1 thread
           ---------------------------------------------------------

  Reference = RHF
  Reference Energy = -113.914296319138558

  ==> Checking Orbitals <==

    Checking if orbitals are semi-canonicalized ...     OK.
    Orbitals are semi-canonicalized.

  ==> Calculation Information <==

    Flow parameter                           5.000e-01
    Cholesky Tolerance                       1.000e-06
    Taylor expansion threshold               1.000e-03
    int_type                                        DF
    ccvv_algorithm                           FLY_AMBIT
    ccvv_source                                 NORMAL
    Computing T2                          ......Done. Timing        0.142959 s
    Renormalizing V                       ......Done. Timing        0.141156 s
    Computing T1                          ......Done. Timing        0.007805 s
    Renormalizing F                       ......Done. Timing        0.005946 s
    Computing <[F, T1]>                   ......Done. Timing        0.003027 s
    Computing <[F, T2]>                   ......Done. Timing        0.008754 s
    Computing <[V, T1]>                   ......Done. Timing        0.006660 s
    Computing <[V, T2]> (C_2)^4 (no ccvv) ......Done. Timing        0.027208 s
 Eccvv: -0.1270322086
    Computing <[V, T2]> (C_2)^4 ccvv      ......Done. Timing        0.036533 s
    Computing <[V, T2]> 4HH               ......Done. Timing        0.009788 s
    Computing <V, T2]> 4PP                ......Done. Timing        0.010871 s
    Computing [V, T2] 4PH                 ......Done. Timing        0.038440 s
    Computing [V, T2] λ3                  ......Done. Timing        0.013482 s

  ==> DSRG-MRPT2 Energy Summary <==

    E0 (reference)                 =   -113.914296319138558
    <[F, T1]>                      =     -0.000000000000000
    <[F, T2]>                      =      0.000000000000000
    <[V, T1]>                      =      0.000000000000000
    <[V, T2]> (C_2)^4              =     -0.386298026757201
    <[V, T2]> C_4 (C_2)^2 HH       =      0.000000000000000
    <[V, T2]> C_4 (C_2)^2 PP       =      0.000000000000000
    <[V, T2]> C_4 (C_2)^2 PH       =      0.000000000000000
    <[V, T2]> C_6 C_2              =      0.000000000000000
    <[V, T2]>                      =     -0.386298026757201
    DSRG-MRPT2 correlation energy  =     -0.386298026757201
    DSRG-MRPT2 total energy        =   -114.300594345895760
    max(T1)                        =      0.000000000000529
    ||T1||                         =      0.000000000002870

  ==> Total Timings (s) for Computing Commutators <==

             [H1, T1]    [H1, T2]    [H2, T1]    [H2, T2]
    -----------------------------------------------------
    -> C0       0.003       0.009       0.007       0.140
    -> C1       0.000       0.000       0.000       0.000
    -> C2                   0.000       0.000       0.000
    -----------------------------------------------------


  ==> ACTIVE-DSRG-MRPT2 Summary <==

    2S+1  Sym.  ROOT                CISD          DSRG-MRPT2    % T1
    ----------------------------------------------------------------
       1     A     0     -113.9142963191     -114.3005943459    0.00
    ----------------------------------------------------------------

  Your calculation took 2.45249400 seconds

*** tstart() called on Yorks-Mac.local
*** at Mon Apr 17 18:21:37 2017


         ---------------------------------------------------------
                                   SCF
            by Justin Turney, Rob Parrish, and Andy Simmonett
                              RHF Reference
                        1 Threads,    524 MiB Core
         ---------------------------------------------------------

  ==> Geometry <==

    Molecular point group: c1
    Full point group: C2v

    Geometry (in Angstrom), charge = 0, multiplicity = 1:

       Center              X                  Y                   Z               Mass       
    ------------   -----------------  -----------------  -----------------  -----------------
           O          0.000000000000     0.000000000000    -0.609782788402    15.994914619560
           C          0.000000000000     0.000000000000     0.611321211598    12.000000000000
           H          0.000000000000    -0.934473000000     1.199399211598     1.007825032070
           H          0.000000000000     0.934473000000     1.199399211598     1.007825032070

  Running in c1 symmetry.

  Rotational constants: A =      9.57740  B =      1.26448  C =      1.11701 [cm^-1]
  Rotational constants: A = 287123.37080  B =  37908.17200  C =  33486.97185 [MHz]
  Nuclear repulsion =   30.993739661169702

  Charge       = 0
  Multiplicity = 1
  Electrons    = 16
  Nalpha       = 8
  Nbeta        = 8

  ==> Algorithm <==

  SCF Algorithm Type is DF.
  DIIS enabled.
  MOM disabled.
  Fractional occupation disabled.
  Guess Type is SAD.
  Energy threshold   = 1.00e-10
  Density threshold  = 1.00e-13
  Integral threshold = 0.00e+00

  ==> Primary Basis <==

  Basis Set: file /Users/york/src/psi4new/psi4/share/psi4/basis/def2-tzvp.gbs
    Number of shells: 30
    Number of basis function: 74
    Number of Cartesian functions: 84
    Spherical Harmonics?: true
    Max angular momentum: 3

  ==> Pre-Iterations <==

   -------------------------------------------------------
    Irrep   Nso     Nmo     Nalpha   Nbeta   Ndocc  Nsocc
   -------------------------------------------------------
     A         74      74       0       0       0       0
   -------------------------------------------------------
    Total      74      74       8       8       8       0
   -------------------------------------------------------

  ==> Integral Setup <==

  ==> DFJK: Density-Fitted J/K Matrices <==

    J tasked:                  Yes
    K tasked:                  Yes
    wK tasked:                  No
    OpenMP threads:              1
    Integrals threads:           1
    Memory (MB):               375
    Algorithm:                Core
    Integral Cache:           NONE
    Schwarz Cutoff:          1E-12
    Fitting Condition:       1E-12

   => Auxiliary Basis Set <=

  Basis Set: file /Users/york/src/psi4new/psi4/share/psi4/basis/def2-tzvp-jkfit.gbs
    Number of shells: 62
    Number of basis function: 188
    Number of Cartesian functions: 222
    Spherical Harmonics?: true
    Max angular momentum: 4

  Minimum eigenvalue in the overlap matrix is 1.5385626145E-03.
  Using Symmetric Orthogonalization.

  SCF Guess: Superposition of Atomic Densities via on-the-fly atomic UHF.

  ==> Iterations <==

                           Total Energy        Delta E     RMS |[F,P]|

   @DF-RHF iter   0:  -114.45018954365722   -1.14450e+02   3.59234e-02 
   @DF-RHF iter   1:  -113.85014386786143    6.00046e-01   4.49659e-03 
   @DF-RHF iter   2:  -113.89881629124943   -4.86724e-02   2.44127e-03 DIIS
   @DF-RHF iter   3:  -113.91186297925496   -1.30467e-02   8.00022e-04 DIIS
   @DF-RHF iter   4:  -113.91377259677121   -1.90962e-03   2.57577e-04 DIIS
   @DF-RHF iter   5:  -113.91421232724998   -4.39730e-04   8.53234e-05 DIIS
   @DF-RHF iter   6:  -113.91428843344953   -7.61062e-05   2.53508e-05 DIIS
   @DF-RHF iter   7:  -113.91429577884075   -7.34539e-06   6.05884e-06 DIIS
   @DF-RHF iter   8:  -113.91429620879512   -4.29954e-07   2.22381e-06 DIIS
   @DF-RHF iter   9:  -113.91429628477650   -7.59814e-08   1.16546e-06 DIIS
   @DF-RHF iter  10:  -113.91429631570573   -3.09292e-08   3.89584e-07 DIIS
   @DF-RHF iter  11:  -113.91429631911927   -3.41355e-09   6.62582e-08 DIIS
   @DF-RHF iter  12:  -113.91429631917310   -5.38307e-11   1.15974e-08 DIIS
   @DF-RHF iter  13:  -113.91429631917450   -1.39266e-12   2.36351e-09 DIIS
   @DF-RHF iter  14:  -113.91429631917455   -5.68434e-14   9.39198e-10 DIIS
   @DF-RHF iter  15:  -113.91429631917444    1.13687e-13   3.29024e-10 DIIS
   @DF-RHF iter  16:  -113.91429631917424    1.98952e-13   2.30581e-10 DIIS
   @DF-RHF iter  17:  -113.91429631917445   -2.13163e-13   3.66408e-11 DIIS
   @DF-RHF iter  18:  -113.91429631917435    9.94760e-14   1.11428e-11 DIIS
   @DF-RHF iter  19:  -113.91429631917454   -1.84741e-13   2.98739e-12 DIIS
   @DF-RHF iter  20:  -113.91429631917448    5.68434e-14   7.35663e-13 DIIS
   @DF-RHF iter  21:  -113.91429631917430    1.84741e-13   2.63983e-13 DIIS
   @DF-RHF iter  22:  -113.91429631917437   -7.10543e-14   1.20564e-13 DIIS
   @DF-RHF iter  23:  -113.91429631917453   -1.56319e-13   6.45366e-14 DIIS

  ==> Post-Iterations <==

    Orbital Energies (a.u.)
    -----------------------

    Doubly Occupied:                                                      

       1A    -20.576660     2A    -11.344369     3A     -1.395405  
       4A     -0.872811     5A     -0.690002     6A     -0.648383  
       7A     -0.530483     8A     -0.444951  

    Virtual:                                                              

       9A      0.105347    10A      0.161412    11A      0.216081  
      12A      0.216471    13A      0.312862    14A      0.349101  
      15A      0.373216    16A      0.543916    17A      0.591321  
      18A      0.625855    19A      0.687504    20A      0.690993  
      21A      0.767628    22A      0.767946    23A      0.887558  
      24A      0.993055    25A      1.007153    26A      1.150614  
      27A      1.320621    28A      1.537129    29A      1.665477  
      30A      1.710029    31A      1.728590    32A      1.770208  
      33A      1.847915    34A      1.919777    35A      2.031653  
      36A      2.184502    37A      2.233230    38A      2.282228  
      39A      2.338120    40A      2.466034    41A      2.580306  
      42A      2.707271    43A      2.828206    44A      2.844983  
      45A      3.008159    46A      3.217013    47A      3.271481  
      48A      3.287032    49A      3.308317    50A      3.354126  
      51A      3.376907    52A      3.479230    53A      3.482277  
      54A      3.574180    55A      3.879782    56A      4.032637  
      57A      4.064921    58A      4.333404    59A      4.449313  
      60A      4.785826    61A      5.607252    62A      5.616824  
      63A      5.921629    64A      6.055035    65A      6.478975  
      66A      6.669509    67A      6.740273    68A      6.819066  
      69A      6.877429    70A      7.258218    71A      7.301052  
      72A      7.522975    73A     23.467602    74A     45.074147  

    Final Occupation by Irrep:
              A 
    DOCC [     8 ]

  Energy converged.

  @DF-RHF Final Energy:  -113.91429631917453

   => Energetics <=

    Nuclear Repulsion Energy =             30.9937396611697018
    One-Electron Energy =                -216.8099442551573759
    Two-Electron Energy =                  71.9019082748131382
    DFT Exchange-Correlation Energy =       0.0000000000000000
    Empirical Dispersion Energy =           0.0000000000000000
    PCM Polarization Energy =               0.0000000000000000
    EFP Energy =                            0.0000000000000000
    Total Energy =                       -113.9142963191745253



Properties will be evaluated at   0.000000,   0.000000,   0.000000 Bohr

Properties computed using the SCF density matrix

  Nuclear Dipole Moment: (a.u.)
     X:     0.0000      Y:     0.0000      Z:     2.2459

  Electronic Dipole Moment: (a.u.)
     X:     0.0000      Y:     0.0000      Z:    -1.1024

  Dipole Moment: (a.u.)
     X:     0.0000      Y:     0.0000      Z:     1.1435     Total:     1.1435

  Dipole Moment: (Debye)
     X:     0.0000      Y:     0.0000      Z:     2.9065     Total:     2.9065


*** tstop() called on Yorks-Mac.local at Mon Apr 17 18:21:38 2017
Module time:
	user time   =       0.59 seconds =       0.01 minutes
	system time =       0.06 seconds =       0.00 minutes
	total time  =          1 seconds =       0.02 minutes
Total time:
	user time   =       3.62 seconds =       0.06 minutes
	system time =       0.36 seconds =       0.01 minutes
	total time  =          4 seconds =       0.07 minutes

Reading options from the FORTE block
Calling plugin forte.so.




  ==> MO Space Information <==

  Read options for space FROZEN_DOCC
  Read options for space RESTRICTED_DOCC
  Read options for space ACTIVE
 Removing orbital 0
 Removing orbital 1
  -------------------------------
                        A   Sum
  -------------------------------
    FROZEN_DOCC         2     2
    RESTRICTED_DOCC     3     3
    ACTIVE              9     9
    RESTRICTED_UOCC    60    60
    FROZEN_UOCC         0     0
    Total              74    74
  -------------------------------

  ==> Integral Transformation <==

  Number of molecular orbitals:               74
  Number of correlated molecular orbitals:    72
  Number of frozen occupied orbitals:          2
  Number of frozen unoccupied orbitals:        0

    Molecular point group: c1
    Full point group: C2v

    Geometry (in Angstrom), charge = 0, multiplicity = 1:

       Center              X                  Y                   Z               Mass       
    ------------   -----------------  -----------------  -----------------  -----------------
           O          0.000000000000     0.000000000000    -0.609782788402    15.994914619560
           C          0.000000000000     0.000000000000     0.611321211598    12.000000000000
           H          0.000000000000    -0.934473000000     1.199399211598     1.007825032070
           H          0.000000000000     0.934473000000     1.199399211598     1.007825032070

  -AO BASIS SET INFORMATION:
    Name                   = file /Users/york/src/psi4new/psi4/share/psi4/basis/def2-tzvp.gbs
    Total number of shells = 30
    Number of primitives   = 52
    Number of AO           = 84
    Number of SO           = 74
    Maximum AM             = 3
    Spherical Harmonics    = TRUE

  -Contraction Scheme:
    Atom   Type   All Primitives // Shells:
   ------ ------ --------------------------
       1     O     11s 6p 2d 1f // 5s 3p 2d 1f 
       2     C     11s 6p 2d 1f // 5s 3p 2d 1f 
       3     H     5s 1p // 3s 1p 
       4     H     5s 1p // 3s 1p 

  ==> AO Basis Functions <==

    [ file /Users/york/src/psi4new/psi4/share/psi4/basis/def2-tzvp.gbs ]
    spherical
    ****
    O   1
    S   6 1.00
                     27032.38263100           0.00021726
                      4052.38713920           0.00168387
                       922.32722710           0.00873956
                       261.24070989           0.03523997
                        85.35464135           0.11153519
                        31.03503524           0.25588954
    S   2 1.00
                        12.26086073           0.39768731
                         4.99870760           0.24627849
    S   1 1.00
                         1.17031082           1.00000000
    S   1 1.00
                         0.46474741           1.00000000
    S   1 1.00
                         0.18504536           1.00000000
    P   4 1.00
                        63.27495480           0.00606851
                        14.62704938           0.04191258
                         4.45012235           0.16153841
                         1.52757996           0.35706951
    P   1 1.00
                         0.52935118           1.00000000
    P   1 1.00
                         0.17478421           1.00000000
    D   1 1.00
                         2.31400000           1.00000000
    D   1 1.00
                         0.64500000           1.00000000
    F   1 1.00
                         1.42800000           1.00000000
    ****
    C   2
    S   6 1.00
                     13575.34968200           0.00022246
                      2035.23336800           0.00172327
                       463.22562359           0.00892557
                       131.20019598           0.03572798
                        42.85301589           0.11076260
                        15.58418577           0.24295628
    S   2 1.00
                         6.20671385           0.41440263
                         2.57648965           0.23744969
    S   1 1.00
                         0.57696339           1.00000000
    S   1 1.00
                         0.22972831           1.00000000
    S   1 1.00
                         0.09516444           1.00000000
    P   4 1.00
                        34.69723224           0.00533337
                         7.95826228           0.03586411
                         2.37808269           0.14215873
                         0.81433208           0.34270472
    P   1 1.00
                         0.28887547           1.00000000
    P   1 1.00
                         0.10056824           1.00000000
    D   1 1.00
                         1.09700000           1.00000000
    D   1 1.00
                         0.31800000           1.00000000
    F   1 1.00
                         0.76100000           1.00000000
    ****
    H   3
    S   3 1.00
                        34.06134100           0.00602520
                         5.12357460           0.04502109
                         1.16466260           0.20189726
    S   1 1.00
                         0.32723041           1.00000000
    S   1 1.00
                         0.10307241           1.00000000
    P   1 1.00
                         0.80000000           1.00000000
    ****
    H   4
    S   3 1.00
                        34.06134100           0.00602520
                         5.12357460           0.04502109
                         1.16466260           0.20189726
    S   1 1.00
                         0.32723041           1.00000000
    S   1 1.00
                         0.10307241           1.00000000
    P   1 1.00
                         0.80000000           1.00000000
    ****


  DFIntegrals overall time
 Computing Density fitted integrals 

 Number of auxiliary basis functions:  188
 Need 0.007670 GB to store DF integrals

  Computing DF Integrals               ......Done. Timing        0.154640 s
  Seeking DF Integrals                 ......Done. Timing        0.156103 s
  Reading DF Integrals                 . . ....Done. Timing        0.157952 s
  Frozen-core energy           -104.823219528284 a.u.

  FrozenOneBody Operator takes  0.09163200 s
  Resorting integrals after freezing core.
 Done with resorting
 Resorting integrals takes   0.04240100s
  DFIntegrals take      0.30578400 s

              ---------------------------------------------------
                               ACTIVE-DSRG-MRPT2
                Wrapper for Multiple SS-DSRG-MRPT2 Computations
                                  Chenyang Li
              ---------------------------------------------------

  Note: Orbitals are NOT optimized throughout the process.
  Reference selection criteria (CAS/CIS/CISD) will NOT change.
  Each state uses its OWN semicanonical orbitals.
  Ground state is assumed to be a singlet.
  Otherwise, please run separate DSRG-MRPT2 jobs.

  ==> Input Summary <==

    total roots requested (include S0)                     1
    multiplicity                                           1
    reference space type                                CISD
    separate HF in CISD                                 TURE
    DSRG-MRPT2 internal amplitudes           SINGLES_DOUBLES
    DSRG-MRPT2 internal type                            AUTO

  ==> Roots Summary <==

                 A
    ----------------
      NROOTS     1
    ----------------

  ==> Precomputation of ACTIVE-DSRGPT2 <==

  Note: Looping over all roots to 
  1) determine excitation type;
  2) obtain original orbital extent;
  3) obtain unitary matrices that semicanonicalize orbitals of each state;
  4) determine %T1 in CISD.


              ---------------------------------------------------
                Complete Active Space Configuration Interaction
                                  Chenyang Li
              ---------------------------------------------------


  ==> Input Summary <==

    number of atoms                =     4
    number of electrons            =    16
    molecular charge               =     0
    number of alpha electrons      =     8
    number of beta electrons       =     8
    multiplicity                   =     1
    ms (2 * Sz)                    =     0
    number of molecular orbitals   =    74

  ==> Orbital Spaces <==

    TOTAL MO                      [   74 ]
    FROZEN CORE                   [    2 ]
    FROZEN VIRTUAL                [    0 ]
    CORRELATED MO                 [   72 ]
    CORE                          [    3 ]
    ACTIVE                        [    9 ]
    VIRTUAL                       [   60 ]

  ==> Working on Irrep A <==

  Forming determinants                ...  Done. Timing        0.000332 s

  ==> Determinants Summary <==

    number of alpha active electrons         =     3
    number of beta active electrons          =     3
    root symmetry (zero based)               =     0
    number of determinants (include RHF)     =   451

  Isolate RHF determinant to the rest determinants.
  Recompute RHF energy ... Done.

  * * * * * * * * * * * * * * * * *
  *  CI Vectors & Configurations  *
  * * * * * * * * * * * * * * * * *

  ==> Root No. 0 <==

    222000000          1.0000000000

    Total Energy:   -113.914296319139297


  Forming one-particle density        ...  Done. Timing        0.003502 s
  Forming generalized Fock matrix     ...  Done. Timing        0.272551 s

  ==> Permanent Dipole Moments (A) <==

  Only print nonzero (> 1.0e-5) elements.
  Permanent dipole moments (a.u.) 0 -> 0:  X:  0.0000  Y:  0.0000  Z:  1.1435  Total:  1.1435

  Computing semicanonical orbital rotation matrix for root 0.
  Forming one-particle density        ...  Done. Timing        0.003358 s
  Forming generalized Fock matrix     ...  Done. Timing        0.281544 s
  Diagonalizing Fock                  ...  Done. Timing        0.001404 s


  ===================================
    Current Job:   A state, root  0
  ===================================

  Rotate to semicanonical orbitals.

    Molecular point group: c1
    Full point group: C2v

    Geometry (in Angstrom), charge = 0, multiplicity = 1:

       Center              X                  Y                   Z               Mass       
    ------------   -----------------  -----------------  -----------------  -----------------
           O          0.000000000000     0.000000000000    -0.609782788402    15.994914619560
           C          0.000000000000     0.000000000000     0.611321211598    12.000000000000
           H          0.000000000000    -0.934473000000     1.199399211598     1.007825032070
           H          0.000000000000     0.934473000000     1.199399211598     1.007825032070

  -AO BASIS SET INFORMATION:
    Name                   = file /Users/york/src/psi4new/psi4/share/psi4/basis/def2-tzvp.gbs
    Total number of shells = 30
    Number of primitives   = 52
    Number of AO           = 84
    Number of SO           = 74
    Maximum AM             = 3
    Spherical Harmonics    = TRUE

  -Contraction Scheme:
    Atom   Type   All Primitives // Shells:
   ------ ------ --------------------------
       1     O     11s 6p 2d 1f // 5s 3p 2d 1f 
       2     C     11s 6p 2d 1f // 5s 3p 2d 1f 
       3     H     5s 1p // 3s 1p 
       4     H     5s 1p // 3s 1p 

  ==> AO Basis Functions <==

    [ file /Users/york/src/psi4new/psi4/share/psi4/basis/def2-tzvp.gbs ]
    spherical
    ****
    O   1
    S   6 1.00
                     27032.38263100           0.00021726
                      4052.38713920           0.00168387
                       922.32722710           0.00873956
                       261.24070989           0.03523997
                        85.35464135           0.11153519
                        31.03503524           0.25588954
    S   2 1.00
                        12.26086073           0.39768731
                         4.99870760           0.24627849
    S   1 1.00
                         1.17031082           1.00000000
    S   1 1.00
                         0.46474741           1.00000000
    S   1 1.00
                         0.18504536           1.00000000
    P   4 1.00
                        63.27495480           0.00606851
                        14.62704938           0.04191258
                         4.45012235           0.16153841
                         1.52757996           0.35706951
    P   1 1.00
                         0.52935118           1.00000000
    P   1 1.00
                         0.17478421           1.00000000
    D   1 1.00
                         2.31400000           1.00000000
    D   1 1.00
                         0.64500000           1.00000000
    F   1 1.00
                         1.42800000           1.00000000
    ****
    C   2
    S   6 1.00
                     13575.34968200           0.00022246
                      2035.23336800           0.00172327
                       463.22562359           0.00892557
                       131.20019598           0.03572798
                        42.85301589           0.11076260
                        15.58418577           0.24295628
    S   2 1.00
                         6.20671385           0.41440263
                         2.57648965           0.23744969
    S   1 1.00
                         0.57696339           1.00000000
    S   1 1.00
                         0.22972831           1.00000000
    S   1 1.00
                         0.09516444           1.00000000
    P   4 1.00
                        34.69723224           0.00533337
                         7.95826228           0.03586411
                         2.37808269           0.14215873
                         0.81433208           0.34270472
    P   1 1.00
                         0.28887547           1.00000000
    P   1 1.00
                         0.10056824           1.00000000
    D   1 1.00
                         1.09700000           1.00000000
    D   1 1.00
                         0.31800000           1.00000000
    F   1 1.00
                         0.76100000           1.00000000
    ****
    H   3
    S   3 1.00
                        34.06134100           0.00602520
                         5.12357460           0.04502109
                         1.16466260           0.20189726
    S   1 1.00
                         0.32723041           1.00000000
    S   1 1.00
                         0.10307241           1.00000000
    P   1 1.00
                         0.80000000           1.00000000
    ****
    H   4
    S   3 1.00
                        34.06134100           0.00602520
                         5.12357460           0.04502109
                         1.16466260           0.20189726
    S   1 1.00
                         0.32723041           1.00000000
    S   1 1.00
                         0.10307241           1.00000000
    P   1 1.00
                         0.80000000           1.00000000
    ****


 Integrals are about to be computed.
 Computing Density fitted integrals 

 Number of auxiliary basis functions:  188
 Need 0.007670 GB to store DF integrals

  Computing DF Integrals               ......Done. Timing        0.143125 s
  Seeking DF Integrals                 ......Done. Timing        0.144551 s
  Reading DF Integrals                 . . ....Done. Timing        0.146415 s
 Integrals are about to be updated.
  Frozen-core energy           -104.823219528284 a.u.

  FrozenOneBody Operator takes  0.10030300 s
  Resorting integrals after freezing core.
 Done with resorting
 Resorting integrals takes   0.03672200s
  Frozen Orbitals takes     0.140 s.
  Forming determinants                ...  Done. Timing        0.000202 s

  ==> Determinants Summary <==

    number of alpha active electrons         =     3
    number of beta active electrons          =     3
    root symmetry (zero based)               =     0
    number of determinants (include RHF)     =   451

  Isolate RHF determinant to the rest determinants.
  Recompute RHF energy ... Done.

  * * * * * * * * * * * * * * * * *
  *  CI Vectors & Configurations  *
  * * * * * * * * * * * * * * * * *

  ==> Root No. 0 <==

    222000000          1.0000000000

    Total Energy:   -113.914296319139382


  Forming one-particle density        ...  Done. Timing        0.003320 s
  Forming generalized Fock matrix     ...  Done. Timing        0.295291 s

  ==> Permanent Dipole Moments (A) <==

  Only print nonzero (> 1.0e-5) elements.
  Permanent dipole moments (a.u.) 0 -> 0:  X:  0.0000  Y:  0.0000  Z:  1.1435  Total:  1.1435

  Checking Fock matrices (Fa, Fb)     ...
  Nonzero criteria: > 1.00E-13
  Fa_CORE    block is diagonal.
  Fb_CORE    block is diagonal.
  Fa_ACT_H   block is diagonal.
  Fb_ACT_H   block is diagonal.
  Fa_ACT_P   block is diagonal.
  Fb_ACT_P   block is diagonal.
  Warning: Fa_VIRTUAL NOT diagonal!
  Nonzero off-diagonal:    36. Largest value:  0.000000000000348
  Warning: Fb_VIRTUAL NOT diagonal!
  Nonzero off-diagonal:    36. Largest value:  0.000000000000348
  Done checking Fock matrices.                   Timing        0.000117 s


           ---------------------------------------------------------
             DF/CD - Driven Similarity Renormalization Group MBPT2
                      Kevin Hannon and Chenyang (York) Li
                                   1 thread
           ---------------------------------------------------------

  Reference = RHF
  Reference Energy = -113.914296319139382

  ==> Checking Orbitals <==

    Checking if orbitals are semi-canonicalized ...     OK.
    Orbitals are semi-canonicalized.

  ==> Calculation Information <==

    Flow parameter                           5.000e-01
    Cholesky Tolerance                       1.000e-06
    Taylor expansion threshold               1.000e-03
    int_type                                        DF
    ccvv_algorithm                           FLY_AMBIT
    ccvv_source                                 NORMAL
    Computing T2                          ......Done. Timing        0.646640 s
    Renormalizing V                       ......Done. Timing        0.490645 s
    Computing T1                          ......Done. Timing        0.011713 s
    Renormalizing F                       ......Done. Timing        0.013692 s
    Computing <[F, T1]>                   ......Done. Timing        0.003488 s
    Computing <[F, T2]>                   ......Done. Timing        0.021559 s
    Computing <[V, T1]>                   ......Done. Timing        0.021101 s
    Computing <[V, T2]> (C_2)^4 (no ccvv) ......Done. Timing        0.082631 s
 Eccvv: -0.0504171711
    Computing <[V, T2]> (C_2)^4 ccvv      ......Done. Timing        0.015748 s
    Computing <[V, T2]> 4HH               ......Done. Timing        0.017439 s
    Computing <V, T2]> 4PP                ......Done. Timing        0.030808 s
    Computing [V, T2] 4PH                 ......Done. Timing        0.104339 s
    Computing [V, T2] λ3                  ......Done. Timing        1.023674 s

  ==> DSRG-MRPT2 Energy Summary <==

    E0 (reference)                 =   -113.914296319139382
    <[F, T1]>                      =     -0.000000000000000
    <[F, T2]>                      =      0.000000000000000
    <[V, T1]>                      =      0.000000000000000
    <[V, T2]> (C_2)^4              =     -0.386298026757102
    <[V, T2]> C_4 (C_2)^2 HH       =      0.000000000000000
    <[V, T2]> C_4 (C_2)^2 PP       =      0.000000000000000
    <[V, T2]> C_4 (C_2)^2 PH       =      0.000000000000000
    <[V, T2]> C_6 C_2              =      0.000000000000000
    <[V, T2]>                      =     -0.386298026757102
    DSRG-MRPT2 correlation energy  =     -0.386298026757102
    DSRG-MRPT2 total energy        =   -114.300594345896485
    max(T1)                        =      0.000000000006738
    ||T1||                         =      0.000000000019780

  ==> Total Timings (s) for Computing Commutators <==

             [H1, T1]    [H1, T2]    [H2, T1]    [H2, T2]
    -----------------------------------------------------
    -> C0       0.004       0.022       0.021       0.279
    -> C1       0.000       0.000       0.000       0.000
    -> C2                   0.000       0.000       0.000
    -----------------------------------------------------


  ==> ACTIVE-DSRG-MRPT2 Summary <==

    2S+1  Sym.  ROOT                CISD          DSRG-MRPT2    % T1
    ----------------------------------------------------------------
       1     A     0     -113.9142963191     -114.3005943459    0.00
    ----------------------------------------------------------------

  Your calculation took 5.75074000 seconds
	active independence for H2CO S0...................................PASSED

*** tstart() called on Yorks-Mac.local
*** at Mon Apr 17 18:21:44 2017


         ---------------------------------------------------------
                                   SCF
            by Justin Turney, Rob Parrish, and Andy Simmonett
                              RHF Reference
                        1 Threads,    524 MiB Core
         ---------------------------------------------------------

  ==> Geometry <==

    Molecular point group: c1
    Full point group: D2h

    Geometry (in Angstrom), charge = 0, multiplicity = 1:

       Center              X                  Y                   Z               Mass       
    ------------   -----------------  -----------------  -----------------  -----------------
           C          0.000000000000     0.668188000000     0.000000000000    12.000000000000
           H          0.000000000000     1.238289000000     0.923274000000     1.007825032070
           H          0.000000000000     1.238289000000    -0.923274000000     1.007825032070
           C          0.000000000000    -0.668188000000     0.000000000000    12.000000000000
           H          0.000000000000    -1.238289000000     0.923274000000     1.007825032070
           H          0.000000000000    -1.238289000000    -0.923274000000     1.007825032070

  Running in c1 symmetry.

  Rotational constants: A =      4.90558  B =      0.99768  C =      0.82907 [cm^-1]
  Rotational constants: A = 147065.51639  B =  29909.67957  C =  24854.79644 [MHz]
  Nuclear repulsion =   33.298097662285691

  Charge       = 0
  Multiplicity = 1
  Electrons    = 16
  Nalpha       = 8
  Nbeta        = 8

  ==> Algorithm <==

  SCF Algorithm Type is DF.
  DIIS enabled.
  MOM disabled.
  Fractional occupation disabled.
  Guess Type is SAD.
  Energy threshold   = 1.00e-10
  Density threshold  = 1.00e-13
  Integral threshold = 0.00e+00

  ==> Primary Basis <==

  Basis Set: file /Users/york/src/psi4new/psi4/share/psi4/basis/def2-tzvp.gbs
    Number of shells: 38
    Number of basis function: 86
    Number of Cartesian functions: 96
    Spherical Harmonics?: true
    Max angular momentum: 3

  ==> Pre-Iterations <==

   -------------------------------------------------------
    Irrep   Nso     Nmo     Nalpha   Nbeta   Ndocc  Nsocc
   -------------------------------------------------------
     A         86      86       0       0       0       0
   -------------------------------------------------------
    Total      86      86       8       8       8       0
   -------------------------------------------------------

  ==> Integral Setup <==

  ==> DFJK: Density-Fitted J/K Matrices <==

    J tasked:                  Yes
    K tasked:                  Yes
    wK tasked:                  No
    OpenMP threads:              1
    Integrals threads:           1
    Memory (MB):               375
    Algorithm:                Core
    Integral Cache:           NONE
    Schwarz Cutoff:          1E-12
    Fitting Condition:       1E-12

   => Auxiliary Basis Set <=

  Basis Set: file /Users/york/src/psi4new/psi4/share/psi4/basis/def2-tzvp-jkfit.gbs
    Number of shells: 74
    Number of basis function: 222
    Number of Cartesian functions: 258
    Spherical Harmonics?: true
    Max angular momentum: 4

  Minimum eigenvalue in the overlap matrix is 2.3390882456E-04.
  Using Symmetric Orthogonalization.

  SCF Guess: Superposition of Atomic Densities via on-the-fly atomic UHF.

  ==> Iterations <==

                           Total Energy        Delta E     RMS |[F,P]|

   @DF-RHF iter   0:   -78.11091165624406   -7.81109e+01   2.67316e-02 
   @DF-RHF iter   1:   -78.00380876096939    1.07103e-01   3.44264e-03 
   @DF-RHF iter   2:   -78.05737677479449   -5.35680e-02   1.16592e-03 DIIS
   @DF-RHF iter   3:   -78.06366604325262   -6.28927e-03   3.73390e-04 DIIS
   @DF-RHF iter   4:   -78.06456275114742   -8.96708e-04   4.18452e-05 DIIS
   @DF-RHF iter   5:   -78.06457857076614   -1.58196e-05   9.33865e-06 DIIS
   @DF-RHF iter   6:   -78.06457949405402   -9.23288e-07   1.79281e-06 DIIS
   @DF-RHF iter   7:   -78.06457953207556   -3.80215e-08   4.32896e-07 DIIS
   @DF-RHF iter   8:   -78.06457953490877   -2.83322e-09   9.83497e-08 DIIS
   @DF-RHF iter   9:   -78.06457953505502   -1.46244e-10   1.67315e-08 DIIS
   @DF-RHF iter  10:   -78.06457953505895   -3.93641e-12   2.93494e-09 DIIS
   @DF-RHF iter  11:   -78.06457953505901   -5.68434e-14   2.85771e-10 DIIS
   @DF-RHF iter  12:   -78.06457953505908   -7.10543e-14   3.46501e-11 DIIS
   @DF-RHF iter  13:   -78.06457953505901    7.10543e-14   4.27055e-12 DIIS
   @DF-RHF iter  14:   -78.06457953505901    0.00000e+00   6.07402e-13 DIIS
   @DF-RHF iter  15:   -78.06457953505895    5.68434e-14   9.68430e-14 DIIS

  ==> Post-Iterations <==

    Orbital Energies (a.u.)
    -----------------------

    Doubly Occupied:                                                      

       1A    -11.231564     2A    -11.229882     3A     -1.031833  
       4A     -0.792668     5A     -0.641463     6A     -0.588101  
       7A     -0.506918     8A     -0.376319  

    Virtual:                                                              

       9A      0.141570    10A      0.175519    11A      0.195060  
      12A      0.199687    13A      0.244359    14A      0.302841  
      15A      0.325385    16A      0.332395    17A      0.346620  
      18A      0.399362    19A      0.460307    20A      0.470502  
      21A      0.584419    22A      0.628694    23A      0.636523  
      24A      0.645497    25A      0.725854    26A      0.771450  
      27A      0.825366    28A      0.920863    29A      0.978944  
      30A      0.991585    31A      1.080381    32A      1.152263  
      33A      1.273676    34A      1.299979    35A      1.330645  
      36A      1.465821    37A      1.559161    38A      1.729494  
      39A      1.782973    40A      1.816780    41A      1.881917  
      42A      1.893510    43A      1.977285    44A      1.998552  
      45A      2.036117    46A      2.081558    47A      2.085400  
      48A      2.108453    49A      2.318203    50A      2.464761  
      51A      2.534879    52A      2.609666    53A      2.639040  
      54A      2.695750    55A      2.716524    56A      2.836972  
      57A      2.898529    58A      2.918037    59A      2.922667  
      60A      3.083184    61A      3.168269    62A      3.216282  
      63A      3.254227    64A      3.281528    65A      3.382983  
      66A      3.417883    67A      3.462147    68A      3.494152  
      69A      3.499175    70A      3.630495    71A      3.688603  
      72A      3.705411    73A      3.749493    74A      3.803253  
      75A      3.981537    76A      4.037758    77A      4.445081  
      78A      4.453177    79A      4.570971    80A      4.697082  
      81A      4.779683    82A      4.948620    83A      4.998200  
      84A      5.353441    85A     23.032581    86A     23.643845  

    Final Occupation by Irrep:
              A 
    DOCC [     8 ]

  Energy converged.

  @DF-RHF Final Energy:   -78.06457953505895

   => Energetics <=

    Nuclear Repulsion Energy =             33.2980976622856915
    One-Electron Energy =                -169.9278575134325138
    Two-Electron Energy =                  58.5651803160878544
    DFT Exchange-Correlation Energy =       0.0000000000000000
    Empirical Dispersion Energy =           0.0000000000000000
    PCM Polarization Energy =               0.0000000000000000
    EFP Energy =                            0.0000000000000000
    Total Energy =                        -78.0645795350589538

    Alert: EFP and PCM quantities not currently incorporated into SCF psivars.

Properties will be evaluated at   0.000000,   0.000000,   0.000000 Bohr

Properties computed using the SCF density matrix

  Nuclear Dipole Moment: (a.u.)
     X:     0.0000      Y:     0.0000      Z:    -0.0000

  Electronic Dipole Moment: (a.u.)
     X:     0.0000      Y:     0.0000      Z:     0.0000

  Dipole Moment: (a.u.)
     X:     0.0000      Y:     0.0000      Z:     0.0000     Total:     0.0000

  Dipole Moment: (Debye)
     X:     0.0000      Y:     0.0000      Z:     0.0000     Total:     0.0000


*** tstop() called on Yorks-Mac.local at Mon Apr 17 18:21:44 2017
Module time:
	user time   =       0.74 seconds =       0.01 minutes
	system time =       0.07 seconds =       0.00 minutes
	total time  =          0 seconds =       0.00 minutes
Total time:
	user time   =      10.13 seconds =       0.17 minutes
	system time =       0.76 seconds =       0.01 minutes
	total time  =         10 seconds =       0.17 minutes

Reading options from the FORTE block
Calling plugin forte.so.




  ==> MO Space Information <==

  Read options for space FROZEN_DOCC
  Read options for space RESTRICTED_DOCC
  Read options for space ACTIVE
 Removing orbital 0
 Removing orbital 1
  -------------------------------
                        A   Sum
  -------------------------------
    FROZEN_DOCC         2     2
    RESTRICTED_DOCC     4     4
    ACTIVE              3     3
    RESTRICTED_UOCC    77    77
    FROZEN_UOCC         0     0
    Total              86    86
  -------------------------------

  ==> Integral Transformation <==

  Number of molecular orbitals:               86
  Number of correlated molecular orbitals:    84
  Number of frozen occupied orbitals:          2
  Number of frozen unoccupied orbitals:        0

    Molecular point group: c1
    Full point group: D2h

    Geometry (in Angstrom), charge = 0, multiplicity = 1:

       Center              X                  Y                   Z               Mass       
    ------------   -----------------  -----------------  -----------------  -----------------
           C          0.000000000000     0.668188000000     0.000000000000    12.000000000000
           H          0.000000000000     1.238289000000     0.923274000000     1.007825032070
           H          0.000000000000     1.238289000000    -0.923274000000     1.007825032070
           C          0.000000000000    -0.668188000000     0.000000000000    12.000000000000
           H          0.000000000000    -1.238289000000     0.923274000000     1.007825032070
           H          0.000000000000    -1.238289000000    -0.923274000000     1.007825032070

  -AO BASIS SET INFORMATION:
    Name                   = file /Users/york/src/psi4new/psi4/share/psi4/basis/def2-tzvp.gbs
    Total number of shells = 38
    Number of primitives   = 64
    Number of AO           = 96
    Number of SO           = 86
    Maximum AM             = 3
    Spherical Harmonics    = TRUE

  -Contraction Scheme:
    Atom   Type   All Primitives // Shells:
   ------ ------ --------------------------
       1     C     11s 6p 2d 1f // 5s 3p 2d 1f 
       2     H     5s 1p // 3s 1p 
       3     H     5s 1p // 3s 1p 
       4     C     11s 6p 2d 1f // 5s 3p 2d 1f 
       5     H     5s 1p // 3s 1p 
       6     H     5s 1p // 3s 1p 

  ==> AO Basis Functions <==

    [ file /Users/york/src/psi4new/psi4/share/psi4/basis/def2-tzvp.gbs ]
    spherical
    ****
    C   1
    S   6 1.00
                     13575.34968200           0.00022246
                      2035.23336800           0.00172327
                       463.22562359           0.00892557
                       131.20019598           0.03572798
                        42.85301589           0.11076260
                        15.58418577           0.24295628
    S   2 1.00
                         6.20671385           0.41440263
                         2.57648965           0.23744969
    S   1 1.00
                         0.57696339           1.00000000
    S   1 1.00
                         0.22972831           1.00000000
    S   1 1.00
                         0.09516444           1.00000000
    P   4 1.00
                        34.69723224           0.00533337
                         7.95826228           0.03586411
                         2.37808269           0.14215873
                         0.81433208           0.34270472
    P   1 1.00
                         0.28887547           1.00000000
    P   1 1.00
                         0.10056824           1.00000000
    D   1 1.00
                         1.09700000           1.00000000
    D   1 1.00
                         0.31800000           1.00000000
    F   1 1.00
                         0.76100000           1.00000000
    ****
    H   2
    S   3 1.00
                        34.06134100           0.00602520
                         5.12357460           0.04502109
                         1.16466260           0.20189726
    S   1 1.00
                         0.32723041           1.00000000
    S   1 1.00
                         0.10307241           1.00000000
    P   1 1.00
                         0.80000000           1.00000000
    ****
    H   3
    S   3 1.00
                        34.06134100           0.00602520
                         5.12357460           0.04502109
                         1.16466260           0.20189726
    S   1 1.00
                         0.32723041           1.00000000
    S   1 1.00
                         0.10307241           1.00000000
    P   1 1.00
                         0.80000000           1.00000000
    ****
    C   4
    S   6 1.00
                     13575.34968200           0.00022246
                      2035.23336800           0.00172327
                       463.22562359           0.00892557
                       131.20019598           0.03572798
                        42.85301589           0.11076260
                        15.58418577           0.24295628
    S   2 1.00
                         6.20671385           0.41440263
                         2.57648965           0.23744969
    S   1 1.00
                         0.57696339           1.00000000
    S   1 1.00
                         0.22972831           1.00000000
    S   1 1.00
                         0.09516444           1.00000000
    P   4 1.00
                        34.69723224           0.00533337
                         7.95826228           0.03586411
                         2.37808269           0.14215873
                         0.81433208           0.34270472
    P   1 1.00
                         0.28887547           1.00000000
    P   1 1.00
                         0.10056824           1.00000000
    D   1 1.00
                         1.09700000           1.00000000
    D   1 1.00
                         0.31800000           1.00000000
    F   1 1.00
                         0.76100000           1.00000000
    ****
    H   5
    S   3 1.00
                        34.06134100           0.00602520
                         5.12357460           0.04502109
                         1.16466260           0.20189726
    S   1 1.00
                         0.32723041           1.00000000
    S   1 1.00
                         0.10307241           1.00000000
    P   1 1.00
                         0.80000000           1.00000000
    ****
    H   6
    S   3 1.00
                        34.06134100           0.00602520
                         5.12357460           0.04502109
                         1.16466260           0.20189726
    S   1 1.00
                         0.32723041           1.00000000
    S   1 1.00
                         0.10307241           1.00000000
    P   1 1.00
                         0.80000000           1.00000000
    ****


  DFIntegrals overall time
 Computing Density fitted integrals 

 Number of auxiliary basis functions:  222
 Need 0.012233 GB to store DF integrals

  Computing DF Integrals               ......Done. Timing        0.247261 s
  Seeking DF Integrals                 ......Done. Timing        0.249857 s
  Reading DF Integrals                 . . ....Done. Timing        0.252889 s
  Frozen-core energy            -78.537569783649 a.u.

  FrozenOneBody Operator takes  0.16944100 s
  Resorting integrals after freezing core.
 Done with resorting
 Resorting integrals takes   0.05305200s
  DFIntegrals take      0.49260300 s

              ---------------------------------------------------
                               ACTIVE-DSRG-MRPT2
                Wrapper for Multiple SS-DSRG-MRPT2 Computations
                                  Chenyang Li
              ---------------------------------------------------

  Note: Orbitals are NOT optimized throughout the process.
  Reference selection criteria (CAS/CIS/CISD) will NOT change.
  Each state uses its OWN semicanonical orbitals.
  Ground state is assumed to be a singlet.
  Otherwise, please run separate DSRG-MRPT2 jobs.

  ==> Input Summary <==

    total roots requested (include S0)                     2
[...]

  ==> DSRG-MRPT2 Energy Summary <==

    E0 (reference)                 =   -191.796640704920549
    <[F, T1]>                      =     -0.014146316411661
    <[F, T2]>                      =      0.000149958693715
    <[V, T1]>                      =     -0.001067594963145
    <[V, T2]> (C_2)^4              =     -0.751217152970919
    <[V, T2]> C_4 (C_2)^2 HH       =      0.005868667387794
    <[V, T2]> C_4 (C_2)^2 PP       =      0.010318765691404
    <[V, T2]> C_4 (C_2)^2 PH       =      0.021040323637923
    <[V, T2]> C_6 C_2              =     -0.000000000000000
    <[V, T2]>                      =     -0.713989396253798
    DSRG-MRPT2 correlation energy  =     -0.729053348934889
    DSRG-MRPT2 total energy        =   -192.525694053855432
    max(T1)                        =      0.023515110846342
    ||T1||                         =      0.076465046416326

  ==> Total Timings (s) for Computing Commutators <==

             [H1, T1]    [H1, T2]    [H2, T1]    [H2, T2]
    -----------------------------------------------------
    -> C0       0.003       0.015       0.012       0.850
    -> C1       0.000       0.000       0.000       0.000
    -> C2                   0.000       0.000       0.000
    -----------------------------------------------------


  ===================================
    Current Job:   A state, root  2
  ===================================

  Rotate to semicanonical orbitals.
  Orbital ordering changed due to semicanonicalization. Swapped orbital  13 back to  12.
  Orbital ordering changed due to semicanonicalization. Swapped orbital  12 back to  13.
  Orbital ordering changed due to semicanonicalization. Swapped orbital  17 back to  16.
  Orbital ordering changed due to semicanonicalization. Swapped orbital  16 back to  17.

    Molecular point group: c1
    Full point group: C1

    Geometry (in Angstrom), charge = 0, multiplicity = 1:

       Center              X                  Y                   Z               Mass       
    ------------   -----------------  -----------------  -----------------  -----------------
           C         -0.148137084364     0.650936168206  2586.164376496523    12.000000000000
           H         -0.148137084364     0.650936168206  2587.249480191696     1.007825032070
           H         -0.148137084364     1.621091247422  2585.678321816937     1.007825032070
           C         -0.148137084364    -0.486136003342  2585.462259917835    12.000000000000
           H         -0.148137084364    -1.456291082558  2585.948314597421     1.007825032070
           H         -0.148137084364    -0.486136003342  2584.377156222663     1.007825032070
           O         -0.148137084365    -0.486136003341  -2415.622843777337    15.994914619560
           C          0.425594124641     0.333237079206  -2414.922447296603    12.000000000000
           H          1.361790844916     0.096517130491  -2414.387120397747     1.007825032070
           H          0.042009961413     1.359169549770  -2414.783158828387     1.007825032070

  -AO BASIS SET INFORMATION:
    Name                   = file /Users/york/src/psi4new/psi4/share/psi4/basis/def2-tzvp.gbs
    Total number of shells = 68
    Number of primitives   = 116
    Number of AO           = 180
    Number of SO           = 160
    Maximum AM             = 3
    Spherical Harmonics    = TRUE

  -Contraction Scheme:
    Atom   Type   All Primitives // Shells:
   ------ ------ --------------------------
       1     C     11s 6p 2d 1f // 5s 3p 2d 1f 
       2     H     5s 1p // 3s 1p 
       3     H     5s 1p // 3s 1p 
       4     C     11s 6p 2d 1f // 5s 3p 2d 1f 
       5     H     5s 1p // 3s 1p 
       6     H     5s 1p // 3s 1p 
       7     O     11s 6p 2d 1f // 5s 3p 2d 1f 
       8     C     11s 6p 2d 1f // 5s 3p 2d 1f 
       9     H     5s 1p // 3s 1p 
      10     H     5s 1p // 3s 1p 

  ==> AO Basis Functions <==

    [ file /Users/york/src/psi4new/psi4/share/psi4/basis/def2-tzvp.gbs ]
    spherical
    ****
    C   1
    S   6 1.00
                     13575.34968200           0.00022246
                      2035.23336800           0.00172327
                       463.22562359           0.00892557
                       131.20019598           0.03572798
                        42.85301589           0.11076260
                        15.58418577           0.24295628
    S   2 1.00
                         6.20671385           0.41440263
                         2.57648965           0.23744969
    S   1 1.00
                         0.57696339           1.00000000
    S   1 1.00
                         0.22972831           1.00000000
    S   1 1.00
                         0.09516444           1.00000000
    P   4 1.00
                        34.69723224           0.00533337
                         7.95826228           0.03586411
                         2.37808269           0.14215873
                         0.81433208           0.34270472
    P   1 1.00
                         0.28887547           1.00000000
    P   1 1.00
                         0.10056824           1.00000000
    D   1 1.00
                         1.09700000           1.00000000
    D   1 1.00
                         0.31800000           1.00000000
    F   1 1.00
                         0.76100000           1.00000000
    ****
    H   2
    S   3 1.00
                        34.06134100           0.00602520
                         5.12357460           0.04502109
                         1.16466260           0.20189726
    S   1 1.00
                         0.32723041           1.00000000
    S   1 1.00
                         0.10307241           1.00000000
    P   1 1.00
                         0.80000000           1.00000000
    ****
    H   3
    S   3 1.00
                        34.06134100           0.00602520
                         5.12357460           0.04502109
                         1.16466260           0.20189726
    S   1 1.00
                         0.32723041           1.00000000
    S   1 1.00
                         0.10307241           1.00000000
    P   1 1.00
                         0.80000000           1.00000000
    ****
    C   4
    S   6 1.00
                     13575.34968200           0.00022246
                      2035.23336800           0.00172327
                       463.22562359           0.00892557
                       131.20019598           0.03572798
                        42.85301589           0.11076260
                        15.58418577           0.24295628
    S   2 1.00
                         6.20671385           0.41440263
                         2.57648965           0.23744969
    S   1 1.00
                         0.57696339           1.00000000
    S   1 1.00
                         0.22972831           1.00000000
    S   1 1.00
                         0.09516444           1.00000000
    P   4 1.00
                        34.69723224           0.00533337
                         7.95826228           0.03586411
                         2.37808269           0.14215873
                         0.81433208           0.34270472
    P   1 1.00
                         0.28887547           1.00000000
    P   1 1.00
                         0.10056824           1.00000000
    D   1 1.00
                         1.09700000           1.00000000
    D   1 1.00
                         0.31800000           1.00000000
    F   1 1.00
                         0.76100000           1.00000000
    ****
    H   5
    S   3 1.00
                        34.06134100           0.00602520
                         5.12357460           0.04502109
                         1.16466260           0.20189726
    S   1 1.00
                         0.32723041           1.00000000
    S   1 1.00
                         0.10307241           1.00000000
    P   1 1.00
                         0.80000000           1.00000000
    ****
    H   6
    S   3 1.00
                        34.06134100           0.00602520
                         5.12357460           0.04502109
                         1.16466260           0.20189726
    S   1 1.00
                         0.32723041           1.00000000
    S   1 1.00
                         0.10307241           1.00000000
    P   1 1.00
                         0.80000000           1.00000000
    ****
    O   7
    S   6 1.00
                     27032.38263100           0.00021726
                      4052.38713920           0.00168387
                       922.32722710           0.00873956
                       261.24070989           0.03523997
                        85.35464135           0.11153519
                        31.03503524           0.25588954
    S   2 1.00
                        12.26086073           0.39768731
                         4.99870760           0.24627849
    S   1 1.00
                         1.17031082           1.00000000
    S   1 1.00
                         0.46474741           1.00000000
    S   1 1.00
                         0.18504536           1.00000000
    P   4 1.00
                        63.27495480           0.00606851
                        14.62704938           0.04191258
                         4.45012235           0.16153841
                         1.52757996           0.35706951
    P   1 1.00
                         0.52935118           1.00000000
    P   1 1.00
                         0.17478421           1.00000000
    D   1 1.00
                         2.31400000           1.00000000
    D   1 1.00
                         0.64500000           1.00000000
    F   1 1.00
                         1.42800000           1.00000000
    ****
    C   8
    S   6 1.00
                     13575.34968200           0.00022246
                      2035.23336800           0.00172327
                       463.22562359           0.00892557
                       131.20019598           0.03572798
                        42.85301589           0.11076260
                        15.58418577           0.24295628
    S   2 1.00
                         6.20671385           0.41440263
                         2.57648965           0.23744969
    S   1 1.00
                         0.57696339           1.00000000
    S   1 1.00
                         0.22972831           1.00000000
    S   1 1.00
                         0.09516444           1.00000000
    P   4 1.00
                        34.69723224           0.00533337
                         7.95826228           0.03586411
                         2.37808269           0.14215873
                         0.81433208           0.34270472
    P   1 1.00
                         0.28887547           1.00000000
    P   1 1.00
                         0.10056824           1.00000000
    D   1 1.00
                         1.09700000           1.00000000
    D   1 1.00
                         0.31800000           1.00000000
    F   1 1.00
                         0.76100000           1.00000000
    ****
    H   9
    S   3 1.00
                        34.06134100           0.00602520
                         5.12357460           0.04502109
                         1.16466260           0.20189726
    S   1 1.00
                         0.32723041           1.00000000
    S   1 1.00
                         0.10307241           1.00000000
    P   1 1.00
                         0.80000000           1.00000000
    ****
    H  10
    S   3 1.00
                        34.06134100           0.00602520
                         5.12357460           0.04502109
                         1.16466260           0.20189726
    S   1 1.00
                         0.32723041           1.00000000
    S   1 1.00
                         0.10307241           1.00000000
    P   1 1.00
                         0.80000000           1.00000000
    ****


 Integrals are about to be computed.
 Computing Density fitted integrals 

 Number of auxiliary basis functions:  410
 Need 0.078201 GB to store DF integrals

  Computing DF Integrals               ......Done. Timing        1.263002 s
  Seeking DF Integrals                 ......Done. Timing        1.279286 s
  Reading DF Integrals                 . . ....Done. Timing        1.298101 s
 Integrals are about to be updated.
  Frozen-core energy           -183.372640364547 a.u.

  FrozenOneBody Operator takes  0.53271000 s
  Resorting integrals after freezing core.
 Done with resorting
 Resorting integrals takes   0.78926800s
  Frozen Orbitals takes     1.354 s.
  Forming determinants                ...  Done. Timing        0.000082 s

  ==> Determinants Summary <==

    number of alpha active electrons         =     4
    number of beta active electrons          =     4
    root symmetry (zero based)               =     0
    number of determinants (include RHF)     =    93

  Isolate RHF determinant to the rest determinants.
  Recompute RHF energy ... Done.
  The upcoming diagonalization excludes RHF determinant.

  Diagonalizing Hamiltonian           ...
  Found 44 roots with 2S+1 = 1 *
  Found 42 roots with 2S+1 = 3
  Found 6 roots with 2S+1 = 5  Done. Timing        0.012957 s

  * * * * * * * * * * * * * * * * *
  *  CI Vectors & Configurations  *
  * * * * * * * * * * * * * * * * *

  ==> Root No. 0 <==

    222200          1.0000000000

    Total Energy:   -191.978875854209889


  ==> Root No. 1 <==

    22b2a0         -0.6933334285
    22a2b0         -0.6933334285
    b2a220          0.1388839694
    a2b220          0.1388839694

    Total Energy:   -191.796640704920691


  ==> Root No. 2 <==

    222b0a         -0.7071067812
    222a0b         -0.7071067812

    Total Energy:   -191.646394156122966


  Forming one-particle density        ...  Done. Timing        0.001031 s
  Forming generalized Fock matrix     ...  Done. Timing        3.595512 s

  ==> Permanent Dipole Moments (A) <==

  Only print nonzero (> 1.0e-5) elements.
  Permanent dipole moments (a.u.) 0 -> 0:  X:  0.5373  Y:  0.7673  Z:  0.6559  Total:  1.1435
  Permanent dipole moments (a.u.) 1 -> 1:  X:  0.2661  Y:  0.3800  Z:  0.3248  Total:  0.5663
  Permanent dipole moments (a.u.) 2 -> 2:  X:  0.5373  Y:  0.7673  Z:  0.6559  Total:  1.1435


  ==> Transition Dipole Moments (A -> A) <==

  Only print nonzero (> 1.0e-5) elements.
  Transition dipole moments (a.u.) 0 -> 2:  X: -0.0000  Y: -1.6585  Z: -1.0241  Total:  1.9492


  ==> Oscillator Strength (A -> A) <==

  Only print nonzero (> 1.0e-5) elements.
  Oscillator strength (a.u.) 0 -> 2:  X:  0.0000  Y:  0.6097  Z:  0.2325  Total:  0.8422

  Checking Fock matrices (Fa, Fb)     ...
  Nonzero criteria: > 1.00E-13
  Warning: Fa_CORE    NOT diagonal!
  Nonzero off-diagonal:     2. Largest value:  0.000000000000158
  Warning: Fb_CORE    NOT diagonal!
  Nonzero off-diagonal:     2. Largest value:  0.000000000000158
  Warning: Fa_ACT_H   NOT diagonal!
  Nonzero off-diagonal:     2. Largest value:  0.000000000000327
  Warning: Fb_ACT_H   NOT diagonal!
  Nonzero off-diagonal:     2. Largest value:  0.000000000000327
  Fa_ACT_P   block is diagonal.
  Fb_ACT_P   block is diagonal.
  Warning: Fa_VIRTUAL NOT diagonal!
  Nonzero off-diagonal:   739. Largest value:  0.000000000002607
  Warning: Fb_VIRTUAL NOT diagonal!
  Nonzero off-diagonal:   739. Largest value:  0.000000000002607
  Done checking Fock matrices.                   Timing        0.000562 s


           ---------------------------------------------------------
             DF/CD - Driven Similarity Renormalization Group MBPT2
                      Kevin Hannon and Chenyang (York) Li
                                   1 thread
           ---------------------------------------------------------

  Reference = RHF
  Reference Energy = -191.646394156122966

  ==> Checking Orbitals <==

    Checking if orbitals are semi-canonicalized ...     OK.
    Orbitals are semi-canonicalized.

  ==> Calculation Information <==

    Flow parameter                           5.000e-01
    Cholesky Tolerance                       1.000e-06
    Taylor expansion threshold               1.000e-03
    int_type                                        DF
    ccvv_algorithm                           FLY_AMBIT
    ccvv_source                                 NORMAL
    Computing T2                          ......Done. Timing        2.799083 s
    Renormalizing V                       ......Done. Timing        2.315873 s
    Computing T1                          ......Done. Timing        0.028579 s
    Renormalizing F                       ......Done. Timing        0.014899 s
    Computing <[F, T1]>                   ......Done. Timing        0.005216 s
    Computing <[F, T2]>                   ......Done. Timing        0.011429 s
    Computing <[V, T1]>                   ......Done. Timing        0.008210 s
    Computing <[V, T2]> (C_2)^4 (no ccvv) ......Done. Timing        0.200806 s
 Eccvv: -0.2437240478
    Computing <[V, T2]> (C_2)^4 ccvv      ......Done. Timing        0.440631 s
    Computing <[V, T2]> 4HH               ......Done. Timing        0.011142 s
    Computing <V, T2]> 4PP                ......Done. Timing        0.030994 s
    Computing [V, T2] 4PH                 ......Done. Timing        0.093882 s
    Computing [V, T2] λ3                  ......Done. Timing        0.101862 s

  ==> DSRG-MRPT2 Energy Summary <==

    E0 (reference)                 =   -191.646394156122966
    <[F, T1]>                      =     -0.008566343621988
    <[F, T2]>                      =      0.001637172362760
    <[V, T1]>                      =      0.001637172362760
    <[V, T2]> (C_2)^4              =     -0.719407903155839
    <[V, T2]> C_4 (C_2)^2 HH       =     -0.000473606683147
    <[V, T2]> C_4 (C_2)^2 PP       =     -0.007289401883318
    <[V, T2]> C_4 (C_2)^2 PH       =     -0.003179650699646
    <[V, T2]> C_6 C_2              =     -0.000000000000001
    <[V, T2]>                      =     -0.730350562421951
    DSRG-MRPT2 correlation energy  =     -0.735642561318420
    DSRG-MRPT2 total energy        =   -192.382036717441395
    max(T1)                        =      0.011655605531843
    ||T1||                         =      0.050735612356839

  ==> Total Timings (s) for Computing Commutators <==

             [H1, T1]    [H1, T2]    [H2, T1]    [H2, T2]
    -----------------------------------------------------
    -> C0       0.005       0.011       0.008       0.795
    -> C1       0.000       0.000       0.000       0.000
    -> C2                   0.000       0.000       0.000
    -----------------------------------------------------


  ==> ACTIVE-DSRG-MRPT2 Summary <==

    2S+1  Sym.  ROOT                CISD          DSRG-MRPT2    % T1
    ----------------------------------------------------------------
       1     A     0     -191.9788758542     -192.6832374432    0.00
       1     A     1     -191.7966407049     -192.5256940539   96.14
       1     A     2     -191.6463941561     -192.3820367174  100.00
    ----------------------------------------------------------------

  ==> Relative Energy WRT Totally Symmetric Ground State (eV) <==

    2S+1  Sym.  ROOT      CISD  DSRG-PT2                           Excitation Type
    ------------------------------------------------------------------------------
       1     A     1     4.959     4.287                    2A -> 4A (Diffuse) (S)
       1     A     2     9.047     8.196                    3A -> 5A (Diffuse) (S)
    ------------------------------------------------------------------------------
    Excitation type: orbitals are zero-based (active only).
    <r^2> (in a.u.) is given in parentheses. "Diffuse" when <r^2> > 1.0e6.
    (S) for singles; (D) for doubles.

  Your calculation took 66.99666800 seconds
	size-intensive error for C2H4 pi->pi*.............................PASSED
	abs. energy of excited C2H4.......................................PASSED
	abs. energy of excited C2H4...H2CO................................PASSED

*** Psi4 exiting successfully. Buy a developer a beer!
