
    -----------------------------------------------------------------------
          Psi4: An Open-Source Ab Initio Electronic Structure Package
                               Psi4 1.2a1.dev704 

                         Git: Rev {master} a7fc050 


    R. M. Parrish, L. A. Burns, D. G. A. Smith, A. C. Simmonett,
    A. E. DePrince III, E. G. Hohenstein, U. Bozkaya, A. Yu. Sokolov,
    R. Di Remigio, R. M. Richard, J. F. Gonthier, A. M. James,
    H. R. McAlexander, A. Kumar, M. Saitow, X. Wang, B. P. Pritchard,
    P. Verma, H. F. Schaefer III, K. Patkowski, R. A. King, E. F. Valeev,
    F. A. Evangelista, J. M. Turney, T. D. Crawford, and C. D. Sherrill,
    J. Chem. Theory Comput. 13(7) pp 3185--3197 (2017).
    (doi: 10.1021/acs.jctc.7b00174)

    -----------------------------------------------------------------------


    Psi4 started on: Monday, 04 December 2017 12:15PM

    Process ID:  33310
    PSIDATADIR: /Users/york/src/psi4new/psi4/share/psi4
    Memory:     500.0 MiB
    Threads:    1
    
  ==> Input File <==

--------------------------------------------------------------------------
import forte
memory 1 gb

e_casscf_psi4 = -115.191969103946292

molecule cyclopropene {
    H   0.912650   0.000000   1.457504
    H  -0.912650   0.000000   1.457504
    H   0.000000  -1.585659  -1.038624
    H   0.000000   1.585659  -1.038624
    C   0.000000   0.000000   0.859492
    C   0.000000  -0.651229  -0.499559
    C   0.000000   0.651229  -0.499559
    units angstrom
}
set globals{
    basis 3-21g
    docc                 [6, 0, 2, 3]
    reference               RHF
    RESTRICTED_DOCC      [6, 0, 1, 2]
    ACTIVE               [0, 1, 1, 1]
    mcscf_type              conv
    reference_sym           0
    scf_type                out_of_core
    cholesky_tolerance     1e-10
}
e_casscf = energy('casscf')
compare_values(e_casscf_psi4, e_casscf, 6, "CASSCF ENERGY PSI4")
energy('scf')

set scf_type direct
set forte {
    job_type                  casscf
    CASSCF_REFERENCE          true
    #FROZEN_DOCC              [2, 0, 0, 1]
    RESTRICTED_DOCC           [6, 0, 1, 2]
    ACTIVE                    [0, 1, 1, 1]
    dsrg_s                    0.5
    int_type                   conventional
    cholesky_tolerance         1e-10
    cas_type                   FCI
    root_sym                   0
    nroot                      1
    root                       0
    CASSCF_ITERATIONS          40
    print                      0
}
e_casscf_forte = energy('forte')

compare_values(e_casscf_psi4, e_casscf_forte, 6, "CASSCF ENERGY FORTE")

--------------------------------------------------------------------------

  Memory set to 953.674 MiB by Python driver.

*** tstart() called on yorks-mac.wireless.emory.edu
*** at Mon Dec  4 12:15:29 2017

   => Loading Basis Set <=

    Name: 3-21G
    Role: ORBITAL
    Keyword: BASIS
    atoms 1-4 entry H          line    21 file /Users/york/src/psi4new/psi4/share/psi4/basis/3-21g.gbs 
    atoms 5-7 entry C          line    68 file /Users/york/src/psi4new/psi4/share/psi4/basis/3-21g.gbs 

    There are an even number of electrons - assuming singlet.
    Specify the multiplicity in the molecule input block.


         ---------------------------------------------------------
                                   SCF
            by Justin Turney, Rob Parrish, Andy Simmonett
                             and Daniel Smith
                              RHF Reference
                        1 Threads,    953 MiB Core
         ---------------------------------------------------------

  ==> Geometry <==

    Molecular point group: c2v
    Full point group: C2v

    Geometry (in Angstrom), charge = 0, multiplicity = 1:

       Center              X                  Y                   Z               Mass       
    ------------   -----------------  -----------------  -----------------  -----------------
           H          0.912650000000     0.000000000000     1.478267664894     1.007825032070
           H         -0.912650000000    -0.000000000000     1.478267664894     1.007825032070
           H          0.000000000000    -1.585659000000    -1.017860335106     1.007825032070
           H         -0.000000000000     1.585659000000    -1.017860335106     1.007825032070
           C          0.000000000000     0.000000000000     0.880255664894    12.000000000000
           C          0.000000000000    -0.651229000000    -0.478795335106    12.000000000000
           C         -0.000000000000     0.651229000000    -0.478795335106    12.000000000000

  Running in c2v symmetry.

  Rotational constants: A =      0.99600  B =      0.73383  C =      0.46135 [cm^-1]
  Rotational constants: A =  29859.46247  B =  21999.76444  C =  13831.03888 [MHz]
  Nuclear repulsion =   63.713765421784935

  Charge       = 0
  Multiplicity = 1
  Electrons    = 22
  Nalpha       = 11
  Nbeta        = 11

  ==> Algorithm <==

  SCF Algorithm Type is OUT_OF_CORE.
  DIIS enabled.
  MOM disabled.
  Fractional occupation disabled.
  Guess Type is SAD.
  Energy threshold   = 1.00e-08
  Density threshold  = 1.00e-08
  Integral threshold = 0.00e+00

  ==> Primary Basis <==

  Basis Set: 3-21G
    Blend: 3-21G
    Number of shells: 23
    Number of basis function: 35
    Number of Cartesian functions: 35
    Spherical Harmonics?: false
    Max angular momentum: 1

  ==> Pre-Iterations <==

   -------------------------------------------------------
    Irrep   Nso     Nmo     Nalpha   Nbeta   Ndocc  Nsocc
   -------------------------------------------------------
     A1        16      16       6       6       6       0
     A2         2       2       0       0       0       0
     B1         6       6       2       2       2       0
     B2        11      11       3       3       3       0
   -------------------------------------------------------
    Total      35      35      11      11      11       0
   -------------------------------------------------------

  ==> Integral Setup <==

  ==> DiskJK: Disk-Based J/K Matrices <==

    J tasked:                  Yes
    K tasked:                  Yes
    wK tasked:                  No
    Memory (MB):               715
    Schwarz Cutoff:          1E-12

  Minimum eigenvalue in the overlap matrix is 6.0142715181E-03.
  Using Symmetric Orthogonalization.

  SCF Guess: Superposition of Atomic Densities via on-the-fly atomic UHF.

  ==> Iterations <==

                        Total Energy        Delta E     RMS |[F,P]|

   @RHF iter   0:  -116.35813219221076   -1.16358e+02   1.55609e-01 
   @RHF iter   1:  -115.11598444963550    1.24215e+00   1.12344e-02 
   @RHF iter   2:  -115.15511725418843   -3.91328e-02   4.24537e-03 DIIS
   @RHF iter   3:  -115.15948579200744   -4.36854e-03   1.35140e-03 DIIS
   @RHF iter   4:  -115.16019478362104   -7.08992e-04   2.00312e-04 DIIS
   @RHF iter   5:  -115.16021982012587   -2.50365e-05   3.47042e-05 DIIS
   @RHF iter   6:  -115.16022046327758   -6.43152e-07   7.62217e-06 DIIS
   @RHF iter   7:  -115.16022048996757   -2.66900e-08   1.76948e-06 DIIS
   @RHF iter   8:  -115.16022049151162   -1.54405e-09   2.80802e-07 DIIS
   @RHF iter   9:  -115.16022049155721   -4.55884e-11   2.72737e-08 DIIS
   @RHF iter  10:  -115.16022049155777   -5.54223e-13   2.90813e-09 DIIS

  ==> Post-Iterations <==

    Orbital Energies (a.u.)
    -----------------------

    Doubly Occupied:                                                      

       1A1   -11.196390     1B2   -11.195936     2A1   -11.185851  
       3A1    -1.170881     4A1    -0.824109     2B2    -0.761109  
       5A1    -0.682463     1B1    -0.600021     6A1    -0.493034  
       3B2    -0.426523     2B1    -0.354246  

    Virtual:                                                              

       1A2     0.176880     4B2     0.298851     7A1     0.303542  
       8A1     0.322328     5B2     0.364139     3B1     0.370699  
       9A1     0.432441     6B2     0.565271    10A1     0.937906  
       7B2     0.975055     4B1     0.978530    11A1     0.978569  
      12A1     1.059182     2A2     1.060764     5B1     1.130693  
       8B2     1.142153    13A1     1.207607    14A1     1.344046  
       9B2     1.346803     6B1     1.354310    10B2     1.486786  
      15A1     1.789077    16A1     2.009775    11B2     2.064757  

    Final Occupation by Irrep:
             A1    A2    B1    B2 
    DOCC [     6,    0,    2,    3 ]

  Energy converged.

  @RHF Final Energy:  -115.16022049155777

   => Energetics <=

    Nuclear Repulsion Energy =             63.7137654217849345
    One-Electron Energy =                -279.9668440182775271
    Two-Electron Energy =                 101.0928581049348338
    Total Energy =                       -115.1602204915577659



Properties will be evaluated at   0.000000,   0.000000,   0.000000 Bohr

Properties computed using the SCF density matrix

  Nuclear Dipole Moment: (a.u.)
     X:     0.0000      Y:     0.0000      Z:     0.8632

  Electronic Dipole Moment: (a.u.)
     X:     0.0000      Y:     0.0000      Z:    -1.0679

  Dipole Moment: (a.u.)
     X:     0.0000      Y:     0.0000      Z:    -0.2047     Total:     0.2047

  Dipole Moment: (Debye)
     X:     0.0000      Y:     0.0000      Z:    -0.5203     Total:     0.5203


*** tstop() called on yorks-mac.wireless.emory.edu at Mon Dec  4 12:15:30 2017
Module time:
	user time   =       0.73 seconds =       0.01 minutes
	system time =       0.06 seconds =       0.00 minutes
	total time  =          1 seconds =       0.02 minutes
Total time:
	user time   =       0.73 seconds =       0.01 minutes
	system time =       0.06 seconds =       0.00 minutes
	total time  =          1 seconds =       0.02 minutes
 MINTS: Wrapper to libmints.
   by Justin Turney

   Calculation information:
      Number of threads:                 1
      Number of atoms:                   7
      Number of AO shells:              23
      Number of SO shells:              14
      Number of primitives:             39
      Number of atomic orbitals:        35
      Number of basis functions:        35

      Number of irreps:                  4
      Integral cutoff                 1.00e-12
      Number of functions per irrep: [  16    2    6   11 ]

 OEINTS: Overlap, kinetic, potential, dipole, and quadrupole integrals
         stored in file 35.

      Computing two-electron integrals...done
      Computed 53227 non-zero two-electron integrals.
        Stored in file 33.


         ---------------------------------------------------------
                Multi-Configurational Self-Consistent Field
                            (a 'D E T C I' module)

                 Daniel G. A. Smith, C. David Sherrill, and
                              Matt L. Leininger
         ---------------------------------------------------------


   ==> Parameters <==

    EX LEVEL       =        4      H0 BLOCKSIZE  =     1000
    VAL EX LEVEL   =        0      H0 GUESS SIZE =     1000
    H0COUPLINGSIZE =        0      H0 COUPLING   =       NO
    MAXITER        =       12      NUM PRINT     =       20
    NUM ROOTS      =        1      ICORE         =        1
    PRINT LVL      =        1      FCI           =      YES
    R CONV         = 1.00e-07      MIXED         =      YES
    E CONV         = 1.00e-06      MIXED4        =      YES
    R4S            =       NO      REPL OTF      =       NO
    DIAG METHOD    =      SEM      FOLLOW ROOT   =        0
    PRECONDITIONER = DAVIDSON      UPDATE        = DAVIDSON
    S              =   0.0000      Ms0           =      YES
    GUESS VECTOR   =  H0BLOCK      OPENTYPE      =     NONE
    COLLAPSE SIZE  =        1      HD AVG        = EVANGELISTI
    MAX NUM VECS   =       13      REF SYM       =        0
    IOPEN        =       NO

    EX ALLOW       =  1  1  1  1 
    STATE AVERAGE  =  0(1.00) 

   ==> CI Orbital and Space information <==

   ------------------------------------------------------
               Space    Total    A1    A2    B1    B2
   ------------------------------------------------------
                 Nso       35    16     2     6    11
                 Nmo       35    16     2     6    11
               Ndocc       11     6     0     2     3
               Nsocc        0     0     0     0     0
   ------------------------------------------------------
                        MCSCF Spaces
   ------------------------------------------------------
         Frozen DOCC        0     0     0     0     0
     Restricted DOCC        9     6     0     1     2
              Active        3     0     1     1     1
     Restricted UOCC       23    10     1     4     8
         Frozen UOCC        0     0     0     0     0
   ------------------------------------------------------

   ==> Setting up CI strings <==

    There are 3 alpha and 3 beta strings
    The CI space requires 3 (3.00E+00) determinants and 3 blocks

   ==> Setting up MCSCF integrals <==

  ==> DiskJK: Disk-Based J/K Matrices <==

    J tasked:                  Yes
    K tasked:                  Yes
    wK tasked:                  No
    Memory (MB):              6103
    Schwarz Cutoff:          1E-12


   ==> Starting MCSCF iterations <==

        Iter         Total Energy       Delta E   Orb RMS    CI RMS  NCI NORB
   @MCSCF  1:   -115.176320886700   -1.6100e-02  5.82e-03  8.66e-15    1    1  Initial CI
   @MCSCF  2:   -115.190077045531   -1.3756e-02  4.61e-03  5.50e-15    2    1  TS
   @MCSCF  3:   -115.191382916227   -1.3059e-03  2.03e-03  8.27e-15    2    1  TS
   @MCSCF  4:   -115.191872984309   -4.9007e-04  8.39e-04  1.63e-14    2    1  TS, DIIS
   @MCSCF  5:   -115.191957393843   -8.4410e-05  3.31e-04  1.35e-14    2    1  TS, DIIS
   @MCSCF  6:   -115.191967800566   -1.0407e-05  1.41e-04  1.50e-14    2    1  TS, DIIS
   @MCSCF  7:   -115.191969121219   -1.3207e-06  3.25e-05  1.26e-14    2    1  TS, DIIS
   @MCSCF  8:   -115.191969094799    2.6420e-08  2.88e-05  1.35e-14    2    1  TS, DIIS
   @MCSCF  9:   -115.191969138000   -4.3200e-08  4.65e-06  1.66e-14    2    1  TS, DIIS

          @MCSCF has converged!

   @MCSCF Final Energy: -115.191969137999735

   Computing CI Semicanonical Orbitals

   ==> Energetics <==

    SCF energy =         -115.160220491557766
    Total MCSCF energy = -115.191969137999735

   ==> MCSCF root 0 information <==

    MCSCF Root 0 energy =  -115.191969137999706

   Active Space Natural occupation numbers:

        B2   1.998292        B1   1.907503        A2   0.094204

   The 3 most important determinants:

    *   1   -0.976165  (    2,    2)  2B1X 3B2X 
    *   2    0.215054  (    0,    0)  1A2X 3B2X 
    *   3    0.029222  (    1,    1)  1A2X 2B1X 



Properties will be evaluated at   0.000000,   0.000000,   0.000000 Bohr

Properties computed using the CASSCF density matrix

  Nuclear Dipole Moment: (a.u.)
     X:     0.0000      Y:     0.0000      Z:     0.8632

  Electronic Dipole Moment: (a.u.)
     X:     0.0000      Y:     0.0000      Z:    -1.0580

  Dipole Moment: (a.u.)
     X:     0.0000      Y:     0.0000      Z:    -0.1947     Total:     0.1947

  Dipole Moment: (Debye)
     X:     0.0000      Y:     0.0000      Z:    -0.4950     Total:     0.4950

	CASSCF ENERGY PSI4................................................PASSED

*** tstart() called on yorks-mac.wireless.emory.edu
*** at Mon Dec  4 12:15:30 2017

   => Loading Basis Set <=

    Name: 3-21G
    Role: ORBITAL
    Keyword: BASIS
    atoms 1-4 entry H          line    21 file /Users/york/src/psi4new/psi4/share/psi4/basis/3-21g.gbs 
    atoms 5-7 entry C          line    68 file /Users/york/src/psi4new/psi4/share/psi4/basis/3-21g.gbs 


         ---------------------------------------------------------
                                   SCF
            by Justin Turney, Rob Parrish, Andy Simmonett
                             and Daniel Smith
                              RHF Reference
                        1 Threads,    953 MiB Core
         ---------------------------------------------------------

  ==> Geometry <==

    Molecular point group: c2v
    Full point group: C2v

    Geometry (in Angstrom), charge = 0, multiplicity = 1:

       Center              X                  Y                   Z               Mass       
    ------------   -----------------  -----------------  -----------------  -----------------
           H          0.912650000000     0.000000000000     1.478267664894     1.007825032070
           H         -0.912650000000    -0.000000000000     1.478267664894     1.007825032070
           H          0.000000000000    -1.585659000000    -1.017860335106     1.007825032070
           H         -0.000000000000     1.585659000000    -1.017860335106     1.007825032070
           C          0.000000000000     0.000000000000     0.880255664894    12.000000000000
           C          0.000000000000    -0.651229000000    -0.478795335106    12.000000000000
           C         -0.000000000000     0.651229000000    -0.478795335106    12.000000000000

  Running in c2v symmetry.

  Rotational constants: A =      0.99600  B =      0.73383  C =      0.46135 [cm^-1]
  Rotational constants: A =  29859.46247  B =  21999.76444  C =  13831.03888 [MHz]
  Nuclear repulsion =   63.713765421784935

  Charge       = 0
  Multiplicity = 1
  Electrons    = 22
  Nalpha       = 11
  Nbeta        = 11

  ==> Algorithm <==

  SCF Algorithm Type is OUT_OF_CORE.
  DIIS enabled.
  MOM disabled.
  Fractional occupation disabled.
  Guess Type is SAD.
  Energy threshold   = 1.00e-06
  Density threshold  = 1.00e-06
  Integral threshold = 0.00e+00

  ==> Primary Basis <==

  Basis Set: 3-21G
    Blend: 3-21G
    Number of shells: 23
    Number of basis function: 35
    Number of Cartesian functions: 35
    Spherical Harmonics?: false
    Max angular momentum: 1

  ==> Pre-Iterations <==

   -------------------------------------------------------
    Irrep   Nso     Nmo     Nalpha   Nbeta   Ndocc  Nsocc
   -------------------------------------------------------
     A1        16      16       6       6       6       0
     A2         2       2       0       0       0       0
     B1         6       6       2       2       2       0
     B2        11      11       3       3       3       0
   -------------------------------------------------------
    Total      35      35      11      11      11       0
   -------------------------------------------------------

  ==> Integral Setup <==

  ==> DiskJK: Disk-Based J/K Matrices <==

    J tasked:                  Yes
    K tasked:                  Yes
    wK tasked:                  No
    Memory (MB):               715
    Schwarz Cutoff:          1E-12

  Minimum eigenvalue in the overlap matrix is 6.0142715181E-03.
  Using Symmetric Orthogonalization.

  SCF Guess: Superposition of Atomic Densities via on-the-fly atomic UHF.

  ==> Iterations <==

                        Total Energy        Delta E     RMS |[F,P]|

   @RHF iter   0:  -116.35813219221076   -1.16358e+02   1.55609e-01 
   @RHF iter   1:  -115.11598444963549    1.24215e+00   1.12344e-02 
   @RHF iter   2:  -115.15511725418847   -3.91328e-02   4.24537e-03 DIIS
   @RHF iter   3:  -115.15948579200753   -4.36854e-03   1.35140e-03 DIIS
   @RHF iter   4:  -115.16019478362108   -7.08992e-04   2.00312e-04 DIIS
   @RHF iter   5:  -115.16021982012592   -2.50365e-05   3.47042e-05 DIIS
   @RHF iter   6:  -115.16022046327760   -6.43152e-07   7.62217e-06 DIIS
   @RHF iter   7:  -115.16022048996754   -2.66899e-08   1.76948e-06 DIIS
   @RHF iter   8:  -115.16022049151161   -1.54407e-09   2.80802e-07 DIIS

  ==> Post-Iterations <==

    Orbital Energies (a.u.)
    -----------------------

    Doubly Occupied:                                                      

       1A1   -11.196390     1B2   -11.195936     2A1   -11.185851  
       3A1    -1.170881     4A1    -0.824109     2B2    -0.761109  
       5A1    -0.682463     1B1    -0.600021     6A1    -0.493034  
       3B2    -0.426523     2B1    -0.354246  

    Virtual:                                                              

       1A2     0.176880     4B2     0.298851     7A1     0.303541  
       8A1     0.322328     5B2     0.364139     3B1     0.370699  
       9A1     0.432441     6B2     0.565271    10A1     0.937906  
       7B2     0.975056     4B1     0.978531    11A1     0.978569  
      12A1     1.059182     2A2     1.060764     5B1     1.130693  
       8B2     1.142154    13A1     1.207607    14A1     1.344046  
       9B2     1.346803     6B1     1.354310    10B2     1.486786  
      15A1     1.789078    16A1     2.009775    11B2     2.064757  

    Final Occupation by Irrep:
             A1    A2    B1    B2 
    DOCC [     6,    0,    2,    3 ]

  Energy converged.

  @RHF Final Energy:  -115.16022049151161

   => Energetics <=

    Nuclear Repulsion Energy =             63.7137654217849345
    One-Electron Energy =                -279.9668535611961033
    Two-Electron Energy =                 101.0928676478995669
    Total Energy =                       -115.1602204915116090



Properties will be evaluated at   0.000000,   0.000000,   0.000000 Bohr

Properties computed using the SCF density matrix

  Nuclear Dipole Moment: (a.u.)
     X:     0.0000      Y:     0.0000      Z:     0.8632

  Electronic Dipole Moment: (a.u.)
     X:     0.0000      Y:     0.0000      Z:    -1.0679

  Dipole Moment: (a.u.)
     X:     0.0000      Y:     0.0000      Z:    -0.2047     Total:     0.2047

  Dipole Moment: (Debye)
     X:     0.0000      Y:     0.0000      Z:    -0.5203     Total:     0.5203


*** tstop() called on yorks-mac.wireless.emory.edu at Mon Dec  4 12:15:31 2017
Module time:
	user time   =       0.69 seconds =       0.01 minutes
	system time =       0.06 seconds =       0.00 minutes
	total time  =          1 seconds =       0.02 minutes
Total time:
	user time   =       1.90 seconds =       0.03 minutes
	system time =       0.35 seconds =       0.01 minutes
	total time  =          2 seconds =       0.03 minutes

*** tstart() called on yorks-mac.wireless.emory.edu
*** at Mon Dec  4 12:15:31 2017

   => Loading Basis Set <=

    Name: 3-21G
    Role: ORBITAL
    Keyword: BASIS
    atoms 1-4 entry H          line    21 file /Users/york/src/psi4new/psi4/share/psi4/basis/3-21g.gbs 
    atoms 5-7 entry C          line    68 file /Users/york/src/psi4new/psi4/share/psi4/basis/3-21g.gbs 


         ---------------------------------------------------------
                                   SCF
            by Justin Turney, Rob Parrish, Andy Simmonett
                             and Daniel Smith
                              RHF Reference
                        1 Threads,    953 MiB Core
         ---------------------------------------------------------

  ==> Geometry <==

    Molecular point group: c2v
    Full point group: C2v

    Geometry (in Angstrom), charge = 0, multiplicity = 1:

       Center              X                  Y                   Z               Mass       
    ------------   -----------------  -----------------  -----------------  -----------------
           H          0.912650000000     0.000000000000     1.478267664894     1.007825032070
           H         -0.912650000000    -0.000000000000     1.478267664894     1.007825032070
           H          0.000000000000    -1.585659000000    -1.017860335106     1.007825032070
           H         -0.000000000000     1.585659000000    -1.017860335106     1.007825032070
           C          0.000000000000     0.000000000000     0.880255664894    12.000000000000
           C          0.000000000000    -0.651229000000    -0.478795335106    12.000000000000
           C         -0.000000000000     0.651229000000    -0.478795335106    12.000000000000

  Running in c2v symmetry.

  Rotational constants: A =      0.99600  B =      0.73383  C =      0.46135 [cm^-1]
  Rotational constants: A =  29859.46247  B =  21999.76444  C =  13831.03888 [MHz]
  Nuclear repulsion =   63.713765421784935

  Charge       = 0
  Multiplicity = 1
  Electrons    = 22
  Nalpha       = 11
  Nbeta        = 11

  ==> Algorithm <==

  SCF Algorithm Type is DIRECT.
  DIIS enabled.
  MOM disabled.
  Fractional occupation disabled.
  Guess Type is SAD.
  Energy threshold   = 1.00e-08
  Density threshold  = 1.00e-08
  Integral threshold = 0.00e+00

  ==> Primary Basis <==

  Basis Set: 3-21G
    Blend: 3-21G
    Number of shells: 23
    Number of basis function: 35
    Number of Cartesian functions: 35
    Spherical Harmonics?: false
    Max angular momentum: 1

   => Loading Basis Set <=

    Name: (3-21G AUX)
    Role: JKFIT
    Keyword: DF_BASIS_SCF
    atoms 1-4 entry H          line    23 file /Users/york/src/psi4new/psi4/share/psi4/basis/def2-svp-jkfit.gbs 
    atoms 5-7 entry C          line   203 file /Users/york/src/psi4new/psi4/share/psi4/basis/def2-svp-jkfit.gbs 

  ==> Pre-Iterations <==

   -------------------------------------------------------
    Irrep   Nso     Nmo     Nalpha   Nbeta   Ndocc  Nsocc
   -------------------------------------------------------
     A1        16      16       6       6       6       0
     A2         2       2       0       0       0       0
     B1         6       6       2       2       2       0
     B2        11      11       3       3       3       0
   -------------------------------------------------------
    Total      35      35      11      11      11       0
   -------------------------------------------------------

  Starting with a DF guess...

  ==> Integral Setup <==

  ==> DFJK: Density-Fitted J/K Matrices <==

    J tasked:                  Yes
    K tasked:                  Yes
    wK tasked:                  No
    OpenMP threads:              1
    Integrals threads:           1
    Memory (MB):               715
    Algorithm:                Core
    Integral Cache:           NONE
    Schwarz Cutoff:          1E-12
    Fitting Condition:       1E-12

   => Auxiliary Basis Set <=

  Basis Set: (3-21G AUX)
    Blend: DEF2-SVP-JKFIT
    Number of shells: 99
    Number of basis function: 347
    Number of Cartesian functions: 347
    Spherical Harmonics?: false
    Max angular momentum: 4

  Minimum eigenvalue in the overlap matrix is 6.0142715181E-03.
  Using Symmetric Orthogonalization.

  SCF Guess: Superposition of Atomic Densities via on-the-fly atomic UHF.

  ==> Iterations <==

                           Total Energy        Delta E     RMS |[F,P]|

   @DF-RHF iter   0:  -116.35812493477951   -1.16358e+02   1.55609e-01 
   @DF-RHF iter   1:  -115.11598151521068    1.24214e+00   1.12350e-02 
   @DF-RHF iter   2:  -115.15511765020713   -3.91361e-02   4.24532e-03 DIIS
   @DF-RHF iter   3:  -115.15948619719182   -4.36855e-03   1.35141e-03 DIIS
   @DF-RHF iter   4:  -115.16019511291118   -7.08916e-04   2.00255e-04 DIIS
   @DF-RHF iter   5:  -115.16022013169425   -2.50188e-05   3.46931e-05 DIIS
   @DF-RHF iter   6:  -115.16022077437876   -6.42685e-07   7.62067e-06 DIIS
   @DF-RHF iter   7:  -115.16022080106785   -2.66891e-08   1.77007e-06 DIIS
   @DF-RHF iter   8:  -115.16022080261359   -1.54574e-09   2.80990e-07 DIIS
   @DF-RHF iter   9:  -115.16022080265928   -4.56879e-11   2.73001e-08 DIIS
   @DF-RHF iter  10:  -115.16022080265967   -3.83693e-13   2.91085e-09 DIIS

  DF guess converged.

  ==> Integral Setup <==

  ==> DirectJK: Integral-Direct J/K Matrices <==

    J tasked:                  Yes
    K tasked:                  Yes
    wK tasked:                  No
    Integrals threads:           1
    Schwarz Cutoff:          1E-12

   @RHF iter  11:  -115.16022048538107    3.17279e-07   4.00135e-06 DIIS
   @RHF iter  12:  -115.16022049108359   -5.70252e-09   9.28210e-07 DIIS
   @RHF iter  13:  -115.16022049152531   -4.41716e-10   2.58657e-07 DIIS
   @RHF iter  14:  -115.16022049155288   -2.75691e-11   8.39387e-08 DIIS
   @RHF iter  15:  -115.16022049155723   -4.34852e-12   1.15860e-08 DIIS
   @RHF iter  16:  -115.16022049155728   -5.68434e-14   4.79138e-09 DIIS

  ==> Post-Iterations <==

    Orbital Energies (a.u.)
    -----------------------

    Doubly Occupied:                                                      

       1A1   -11.196390     1B2   -11.195936     2A1   -11.185851  
       3A1    -1.170881     4A1    -0.824109     2B2    -0.761109  
       5A1    -0.682463     1B1    -0.600021     6A1    -0.493034  
       3B2    -0.426523     2B1    -0.354246  

    Virtual:                                                              

       1A2     0.176880     4B2     0.298851     7A1     0.303542  
       8A1     0.322328     5B2     0.364139     3B1     0.370699  
       9A1     0.432441     6B2     0.565271    10A1     0.937906  
       7B2     0.975055     4B1     0.978530    11A1     0.978569  
      12A1     1.059182     2A2     1.060764     5B1     1.130693  
       8B2     1.142153    13A1     1.207607    14A1     1.344046  
       9B2     1.346803     6B1     1.354310    10B2     1.486786  
      15A1     1.789077    16A1     2.009775    11B2     2.064757  

    Final Occupation by Irrep:
             A1    A2    B1    B2 
    DOCC [     6,    0,    2,    3 ]

  Energy converged.

  @RHF Final Energy:  -115.16022049155728

   => Energetics <=

    Nuclear Repulsion Energy =             63.7137654217849345
    One-Electron Energy =                -279.9668439149826895
    Two-Electron Energy =                 101.0928580016404794
    Total Energy =                       -115.1602204915572827



Properties will be evaluated at   0.000000,   0.000000,   0.000000 Bohr

Properties computed using the SCF density matrix

  Nuclear Dipole Moment: (a.u.)
     X:     0.0000      Y:     0.0000      Z:     0.8632

  Electronic Dipole Moment: (a.u.)
     X:     0.0000      Y:     0.0000      Z:    -1.0679

  Dipole Moment: (a.u.)
     X:     0.0000      Y:     0.0000      Z:    -0.2047     Total:     0.2047

  Dipole Moment: (Debye)
     X:     0.0000      Y:     0.0000      Z:    -0.5203     Total:     0.5203


*** tstop() called on yorks-mac.wireless.emory.edu at Mon Dec  4 12:15:33 2017
Module time:
	user time   =       1.76 seconds =       0.03 minutes
	system time =       0.05 seconds =       0.00 minutes
	total time  =          2 seconds =       0.03 minutes
Total time:
	user time   =       3.69 seconds =       0.06 minutes
	system time =       0.40 seconds =       0.01 minutes
	total time  =          4 seconds =       0.07 minutes
   => Loading Basis Set <=

    Name: STO-3G
    Role: ORBITAL
    Keyword: MINAO_BASIS
    atoms 1-4 entry H          line    19 file /Users/york/src/psi4new/psi4/share/psi4/basis/sto-3g.gbs 
    atoms 5-7 entry C          line    61 file /Users/york/src/psi4new/psi4/share/psi4/basis/sto-3g.gbs 


Reading options from the FORTE block
Calling plugin forte.so.



  Forte
  ----------------------------------------------------------------------------
  A suite of quantum chemistry methods for strongly correlated electrons

    git branch: master - git commit: 1c92254a

  Developed by:
    Francesco A. Evangelista, Chenyang Li, Kevin P. Hannon,
    Jeffrey B. Schriber, Tianyuan Zhang, Chenxi Cai
  ----------------------------------------------------------------------------

  Size of Determinant class: 32

  ==> MO Space Information <==

  Read options for space RESTRICTED_DOCC
  Read options for space ACTIVE
  -------------------------------------------------
                       A1    A2    B1    B2   Sum
  -------------------------------------------------
    FROZEN_DOCC         0     0     0     0     0
    RESTRICTED_DOCC     6     0     1     2     9
    ACTIVE              0     1     1     1     3
    RESTRICTED_UOCC    10     1     4     8    23
    FROZEN_UOCC         0     0     0     0     0
    Total              16     2     6    11    35
  -------------------------------------------------

  ==> Integral Transformation <==

  Number of molecular orbitals:               35
  Number of correlated molecular orbitals:    35
  Number of frozen occupied orbitals:          0
  Number of frozen unoccupied orbitals:        0

    Molecular point group: c2v
    Full point group: C2v

    Geometry (in Angstrom), charge = 0, multiplicity = 1:

       Center              X                  Y                   Z               Mass       
    ------------   -----------------  -----------------  -----------------  -----------------
           H          0.912650000000     0.000000000000     1.478267664894     1.007825032070
           H         -0.912650000000    -0.000000000000     1.478267664894     1.007825032070
           H          0.000000000000    -1.585659000000    -1.017860335106     1.007825032070
           H         -0.000000000000     1.585659000000    -1.017860335106     1.007825032070
           C          0.000000000000     0.000000000000     0.880255664894    12.000000000000
           C          0.000000000000    -0.651229000000    -0.478795335106    12.000000000000
           C         -0.000000000000     0.651229000000    -0.478795335106    12.000000000000

  -AO BASIS SET INFORMATION:
    Name                   = 3-21G
    Blend                  = 3-21G
    Total number of shells = 23
    Number of primitives   = 39
    Number of AO           = 35
    Number of SO           = 35
    Maximum AM             = 1
    Spherical Harmonics    = FALSE

  -Contraction Scheme:
    Atom   Type   All Primitives // Shells:
   ------ ------ --------------------------
       1     H     3s // 2s 
       2     H     3s // 2s 
       3     H     3s // 2s 
       4     H     3s // 2s 
       5     C     6s 3p // 3s 2p 
       6     C     6s 3p // 3s 2p 
       7     C     6s 3p // 3s 2p 

  ==> AO Basis Functions <==

    [ 3-21G ]
    cartesian
    ****
    H   1
    S   2 1.00
                         5.44717800           0.15628500
                         0.82454700           0.90469100
    S   1 1.00
                         0.18319200           1.00000000
    ****
    H   3
    S   2 1.00
                         5.44717800           0.15628500
                         0.82454700           0.90469100
    S   1 1.00
                         0.18319200           1.00000000
    ****
    C   5
    S   3 1.00
                       172.25600000           0.06176690
                        25.91090000           0.35879400
                         5.53335000           0.70071300
    S   2 1.00
                         3.66498000          -0.39589700
                         0.77054500           1.21584000
    P   2 1.00
                         3.66498000           0.23646000
                         0.77054500           0.86061900
    S   1 1.00
                         0.19585700           1.00000000
    P   1 1.00
                         0.19585700           1.00000000
    ****
    C   6
    S   3 1.00
                       172.25600000           0.06176690
                        25.91090000           0.35879400
                         5.53335000           0.70071300
    S   2 1.00
                         3.66498000          -0.39589700
                         0.77054500           1.21584000
    P   2 1.00
                         3.66498000           0.23646000
                         0.77054500           0.86061900
    S   1 1.00
                         0.19585700           1.00000000
    P   1 1.00
                         0.19585700           1.00000000
    ****


  Overall Conventional Integrals timings


  Conventional integrals take 0.28533600 s

                -----------------------------------------------
                  Complete Active Space Self Consistent Field
                                 Kevin Hannon
                -----------------------------------------------


  ==> CASSCF Iteration <==

 iter    ||g||           Delta_E            E_CASSCF       CONV_TYPE
 CSO2SO takes   0.0000 s.
    0   0.003279584049   -115.176320886672   -115.176320886672    0.429309 s      
 CSO2SO takes   0.0000 s.
    1   0.002596532309   -0.013757131254   -115.190078017926    0.430909 s      
 CSO2SO takes   0.0000 s.
    2   0.001200860835   -0.001310943309   -115.191388961235    0.431865 s      
 CSO2SO takes   0.0000 s.
    3   0.000495826040   -0.000512235364   -115.191901196599    0.422855 s  DIIS
 CSO2SO takes   0.0000 s.
    4   0.000223356222   -0.000063025344   -115.191964221943    0.418341 s  DIIS
 CSO2SO takes   0.0000 s.
    5   0.000124319573   -0.000003961604   -115.191968183546    0.422435 s  DIIS
 CSO2SO takes   0.0000 s.
    6   0.000067769033   -0.000000768879   -115.191968952426    0.427369 s

 A miracle has come to pass. The CASSCF iterations have converged.
 @E(CASSCF) =  -115.191968952426 
	CASSCF ENERGY FORTE...............................................PASSED

*** Psi4 exiting successfully. Buy a developer a beer!
