
    -----------------------------------------------------------------------
          Psi4: An Open-Source Ab Initio Electronic Structure Package
                               Psi4 undefined 

                         Git: Rev {master} 3c26e8e 


    R. M. Parrish, L. A. Burns, D. G. A. Smith, A. C. Simmonett,
    A. E. DePrince III, E. G. Hohenstein, U. Bozkaya, A. Yu. Sokolov,
    R. Di Remigio, R. M. Richard, J. F. Gonthier, A. M. James,
    H. R. McAlexander, A. Kumar, M. Saitow, X. Wang, B. P. Pritchard,
    P. Verma, H. F. Schaefer III, K. Patkowski, R. A. King, E. F. Valeev,
    F. A. Evangelista, J. M. Turney, T. D. Crawford, and C. D. Sherrill,
    J. Chem. Theory Comput. 13(7) pp 3185--3197 (2017).
    (doi: 10.1021/acs.jctc.7b00174)


                         Additional Contributions by
    P. Kraus, H. Kruse, M. H. Lechner, M. C. Schieber, and R. A. Shaw

    -----------------------------------------------------------------------


    Psi4 started on: Thursday, 25 October 2018 04:10PM

    Process ID: 93206
    Host:       jeffschriber
    PSIDATADIR: /Users/jeffschriber/src/psi4-debug-install/share/psi4
    Memory:     500.0 MiB
    Threads:    1
    
  ==> Input File <==

--------------------------------------------------------------------------
#! This tests the Adaptive Path-Integral FCI procedure with dynamic prescreening
#! Generated using commit GITCOMMIT

import forte

refscf = -108.3243829457663878  #TEST
refpci = -108.638029321207 #TEST

molecule N2{
   N
   N 1 2.0000
}

set {
  basis cc-pVDZ
  scf_type pk
  e_convergence 12
  guess core
}

set forte {
  job_type pci
  frozen_docc [1,0,0,0,0,1,0,0]
  frozen_uocc [4,1,2,2,1,5,2,2]
  pci_nroot 1
  charge 0
  pci_tau 1.0
  pci_spawning_threshold 0.0001
  pci_ENERGY_ESTIMATE_FREQ 100
  pci_FAST_EVAR true
  pci_USE_INTER_NORM true
  pci_ENERGY_ESTIMATE_THRESHOLD 1e-5
  pci_DYNAMIC_PRESCREENING true
  pci_GENERATOR POWER
  MP2_NOS true
  pci_maxbeta 100000.00
  pci_e_convergence 12
}

energy('scf')
compare_values(refscf, get_variable("CURRENT ENERGY"), 11, "SCF energy") #TEST

energy('forte')
compare_values(refpci, get_variable("PCI ENERGY"), 7, "PCI energy") #TEST
--------------------------------------------------------------------------

*** tstart() called on jeffschriber
*** at Thu Oct 25 16:10:06 2018

   => Loading Basis Set <=

    Name: CC-PVDZ
    Role: ORBITAL
    Keyword: BASIS
    atoms 1-2 entry N          line   168 file /Users/jeffschriber/src/psi4-debug-install/share/psi4/basis/cc-pvdz.gbs 


         ---------------------------------------------------------
                                   SCF
            by Justin Turney, Rob Parrish, Andy Simmonett
                             and Daniel Smith
                              RHF Reference
                        1 Threads,    500 MiB Core
         ---------------------------------------------------------

  ==> Geometry <==

    Molecular point group: d2h
    Full point group: D_inf_h

    Geometry (in Angstrom), charge = 0, multiplicity = 1:

       Center              X                  Y                   Z               Mass       
    ------------   -----------------  -----------------  -----------------  -----------------
         N            0.000000000000     0.000000000000    -1.000000000000    14.003074004780
         N            0.000000000000     0.000000000000     1.000000000000    14.003074004780

  Running in d2h symmetry.

  Rotational constants: A = ************  B =      0.60193  C =      0.60193 [cm^-1]
  Rotational constants: A = ************  B =  18045.28808  C =  18045.28808 [MHz]
  Nuclear repulsion =   12.964841661414994

  Charge       = 0
  Multiplicity = 1
  Electrons    = 14
  Nalpha       = 7
  Nbeta        = 7

  ==> Algorithm <==

  SCF Algorithm Type is PK.
  DIIS enabled.
  MOM disabled.
  Fractional occupation disabled.
  Guess Type is CORE.
  Energy threshold   = 1.00e-12
  Density threshold  = 1.00e-06
  Integral threshold = 0.00e+00

  ==> Primary Basis <==

  Basis Set: CC-PVDZ
    Blend: CC-PVDZ
    Number of shells: 12
    Number of basis function: 28
    Number of Cartesian functions: 30
    Spherical Harmonics?: true
    Max angular momentum: 2

  ==> Pre-Iterations <==

   -------------------------------------------------------
    Irrep   Nso     Nmo     Nalpha   Nbeta   Ndocc  Nsocc
   -------------------------------------------------------
     Ag         7       7       0       0       0       0
     B1g        1       1       0       0       0       0
     B2g        3       3       0       0       0       0
     B3g        3       3       0       0       0       0
     Au         1       1       0       0       0       0
     B1u        7       7       0       0       0       0
     B2u        3       3       0       0       0       0
     B3u        3       3       0       0       0       0
   -------------------------------------------------------
    Total      28      28       7       7       7       0
   -------------------------------------------------------

  ==> Integral Setup <==

  Using in-core PK algorithm.
   Calculation information:
      Number of atoms:                   2
      Number of AO shells:              12
      Number of primitives:             44
      Number of atomic orbitals:        30
      Number of basis functions:        28

      Integral cutoff                 1.00e-12
      Number of threads:                 1

  Performing in-core PK
  Using 165242 doubles for integral storage.
  We computed 3081 shell quartets total.
  Whereas there are 3081 unique shell quartets.

  ==> DiskJK: Disk-Based J/K Matrices <==

    J tasked:                  Yes
    K tasked:                  Yes
    wK tasked:                  No
    Memory [MiB]:              375
    Schwarz Cutoff:          1E-12

    OpenMP threads:              1

  Minimum eigenvalue in the overlap matrix is 7.6048491036E-02.
  Using Symmetric Orthogonalization.

  SCF Guess: Core (One-Electron) Hamiltonian.

  ==> Iterations <==

                        Total Energy        Delta E     RMS |[F,P]|

   @RHF iter   1:  -102.98708156193142   -1.02987e+02   2.00808e-01 
   @RHF iter   2:  -107.77761214589189   -4.79053e+00   9.33986e-02 DIIS
   @RHF iter   3:  -108.30541220183225   -5.27800e-01   1.42986e-02 DIIS
   @RHF iter   4:  -108.32360370381217   -1.81915e-02   2.56157e-03 DIIS
   @RHF iter   5:  -108.32436599888337   -7.62295e-04   3.68920e-04 DIIS
   @RHF iter   6:  -108.32438261209576   -1.66132e-05   6.07933e-05 DIIS
   @RHF iter   7:  -108.32438294249451   -3.30399e-07   5.63997e-06 DIIS
   @RHF iter   8:  -108.32438294560464   -3.11013e-09   1.29267e-06 DIIS
   @RHF iter   9:  -108.32438294576444   -1.59801e-10   1.28121e-07 DIIS
   @RHF iter  10:  -108.32438294576630   -1.86162e-12   1.29241e-08 DIIS
   @RHF iter  11:  -108.32438294576639   -8.52651e-14   1.06214e-09 DIIS
  Energy converged.


  ==> Post-Iterations <==

    Orbital Energies [Eh]
    ---------------------

    Doubly Occupied:                                                      

       1Ag   -15.745320     1B1u  -15.745266     2Ag    -1.065138  
       2B1u   -0.943611     1B3u   -0.522205     1B2g   -0.457360  
       1B2u   -0.381132  

    Virtual:                                                              

       3Ag    -0.073125     1B3g   -0.062139     3B1u    0.156972  
       2B3u    0.867903     2B2u    0.900471     4B1u    0.920278  
       4Ag     0.967439     2B2g    0.988895     2B3g    1.011525  
       5Ag     1.117837     5B1u    1.351779     6Ag     1.793185  
       3B2u    1.887323     3B3u    1.903496     1B1g    2.000680  
       7Ag     2.001015     6B1u    2.032133     1Au     2.032133  
       3B3g    2.132699     3B2g    2.144277     7B1u    2.624643  

    Final Occupation by Irrep:
             Ag   B1g   B2g   B3g    Au   B1u   B2u   B3u 
    DOCC [     2,    0,    1,    0,    0,    2,    1,    1 ]

  @RHF Final Energy:  -108.32438294576639

   => Energetics <=

    Nuclear Repulsion Energy =             12.9648416614149937
    One-Electron Energy =                -172.8583851529445212
    Two-Electron Energy =                  51.5691605457631326
    Total Energy =                       -108.3243829457663878

Computation Completed


Properties will be evaluated at   0.000000,   0.000000,   0.000000 [a0]

Properties computed using the SCF density matrix

  Nuclear Dipole Moment: [e a0]
     X:     0.0000      Y:     0.0000      Z:     0.0000

  Electronic Dipole Moment: [e a0]
     X:     0.0000      Y:     0.0000      Z:     0.0000

  Dipole Moment: [e a0]
     X:     0.0000      Y:     0.0000      Z:     0.0000     Total:     0.0000

  Dipole Moment: [D]
     X:     0.0000      Y:     0.0000      Z:     0.0000     Total:     0.0000


*** tstop() called on jeffschriber at Thu Oct 25 16:10:06 2018
Module time:
	user time   =       0.35 seconds =       0.01 minutes
	system time =       0.02 seconds =       0.00 minutes
	total time  =          0 seconds =       0.00 minutes
Total time:
	user time   =       0.35 seconds =       0.01 minutes
	system time =       0.02 seconds =       0.00 minutes
	total time  =          0 seconds =       0.00 minutes
	SCF energy........................................................PASSED

*** tstart() called on jeffschriber
*** at Thu Oct 25 16:10:06 2018

   => Loading Basis Set <=

    Name: CC-PVDZ
    Role: ORBITAL
    Keyword: BASIS
    atoms 1-2 entry N          line   168 file /Users/jeffschriber/src/psi4-debug-install/share/psi4/basis/cc-pvdz.gbs 


         ---------------------------------------------------------
                                   SCF
            by Justin Turney, Rob Parrish, Andy Simmonett
                             and Daniel Smith
                              RHF Reference
                        1 Threads,    500 MiB Core
         ---------------------------------------------------------

  ==> Geometry <==

    Molecular point group: d2h
    Full point group: D_inf_h

    Geometry (in Angstrom), charge = 0, multiplicity = 1:

       Center              X                  Y                   Z               Mass       
    ------------   -----------------  -----------------  -----------------  -----------------
         N            0.000000000000     0.000000000000    -1.000000000000    14.003074004780
         N            0.000000000000     0.000000000000     1.000000000000    14.003074004780

  Running in d2h symmetry.

  Rotational constants: A = ************  B =      0.60193  C =      0.60193 [cm^-1]
  Rotational constants: A = ************  B =  18045.28808  C =  18045.28808 [MHz]
  Nuclear repulsion =   12.964841661414994

  Charge       = 0
  Multiplicity = 1
  Electrons    = 14
  Nalpha       = 7
  Nbeta        = 7

  ==> Algorithm <==

  SCF Algorithm Type is PK.
  DIIS enabled.
  MOM disabled.
  Fractional occupation disabled.
  Guess Type is CORE.
  Energy threshold   = 1.00e-12
  Density threshold  = 1.00e-08
  Integral threshold = 0.00e+00

  ==> Primary Basis <==

  Basis Set: CC-PVDZ
    Blend: CC-PVDZ
    Number of shells: 12
    Number of basis function: 28
    Number of Cartesian functions: 30
    Spherical Harmonics?: true
    Max angular momentum: 2

  ==> Pre-Iterations <==

   -------------------------------------------------------
    Irrep   Nso     Nmo     Nalpha   Nbeta   Ndocc  Nsocc
   -------------------------------------------------------
     Ag         7       7       0       0       0       0
     B1g        1       1       0       0       0       0
     B2g        3       3       0       0       0       0
     B3g        3       3       0       0       0       0
     Au         1       1       0       0       0       0
     B1u        7       7       0       0       0       0
     B2u        3       3       0       0       0       0
     B3u        3       3       0       0       0       0
   -------------------------------------------------------
    Total      28      28       7       7       7       0
   -------------------------------------------------------

  ==> Integral Setup <==

  Using in-core PK algorithm.
   Calculation information:
      Number of atoms:                   2
      Number of AO shells:              12
      Number of primitives:             44
      Number of atomic orbitals:        30
      Number of basis functions:        28

      Integral cutoff                 1.00e-12
      Number of threads:                 1

  Performing in-core PK
  Using 165242 doubles for integral storage.
  We computed 3081 shell quartets total.
  Whereas there are 3081 unique shell quartets.

  ==> DiskJK: Disk-Based J/K Matrices <==

    J tasked:                  Yes
    K tasked:                  Yes
    wK tasked:                  No
    Memory [MiB]:              375
    Schwarz Cutoff:          1E-12

    OpenMP threads:              1

  Minimum eigenvalue in the overlap matrix is 7.6048491036E-02.
  Using Symmetric Orthogonalization.

  SCF Guess: Core (One-Electron) Hamiltonian.

  ==> Iterations <==

                        Total Energy        Delta E     RMS |[F,P]|

   @RHF iter   1:  -102.98708156193142   -1.02987e+02   2.00808e-01 
   @RHF iter   2:  -107.77761214589189   -4.79053e+00   9.33986e-02 DIIS
   @RHF iter   3:  -108.30541220183225   -5.27800e-01   1.42986e-02 DIIS
   @RHF iter   4:  -108.32360370381217   -1.81915e-02   2.56157e-03 DIIS
   @RHF iter   5:  -108.32436599888337   -7.62295e-04   3.68920e-04 DIIS
   @RHF iter   6:  -108.32438261209580   -1.66132e-05   6.07933e-05 DIIS
   @RHF iter   7:  -108.32438294249451   -3.30399e-07   5.63997e-06 DIIS
   @RHF iter   8:  -108.32438294560464   -3.11013e-09   1.29267e-06 DIIS
   @RHF iter   9:  -108.32438294576446   -1.59815e-10   1.28121e-07 DIIS
   @RHF iter  10:  -108.32438294576629   -1.83320e-12   1.29241e-08 DIIS
   @RHF iter  11:  -108.32438294576639   -9.94760e-14   1.06214e-09 DIIS
  Energy converged.


  ==> Post-Iterations <==

    Orbital Energies [Eh]
    ---------------------

    Doubly Occupied:                                                      

       1Ag   -15.745320     1B1u  -15.745266     2Ag    -1.065138  
       2B1u   -0.943611     1B3u   -0.522205     1B2g   -0.457360  
       1B2u   -0.381132  

    Virtual:                                                              

       3Ag    -0.073125     1B3g   -0.062139     3B1u    0.156972  
       2B3u    0.867903     2B2u    0.900471     4B1u    0.920278  
       4Ag     0.967439     2B2g    0.988895     2B3g    1.011525  
       5Ag     1.117837     5B1u    1.351779     6Ag     1.793185  
       3B2u    1.887323     3B3u    1.903496     1B1g    2.000680  
       7Ag     2.001015     6B1u    2.032133     1Au     2.032133  
       3B3g    2.132699     3B2g    2.144277     7B1u    2.624643  

    Final Occupation by Irrep:
             Ag   B1g   B2g   B3g    Au   B1u   B2u   B3u 
    DOCC [     2,    0,    1,    0,    0,    2,    1,    1 ]

  @RHF Final Energy:  -108.32438294576639

   => Energetics <=

    Nuclear Repulsion Energy =             12.9648416614149937
    One-Electron Energy =                -172.8583851529445212
    Two-Electron Energy =                  51.5691605457631326
    Total Energy =                       -108.3243829457663878

Computation Completed


Properties will be evaluated at   0.000000,   0.000000,   0.000000 [a0]

Properties computed using the SCF density matrix

  Nuclear Dipole Moment: [e a0]
     X:     0.0000      Y:     0.0000      Z:     0.0000

  Electronic Dipole Moment: [e a0]
     X:     0.0000      Y:     0.0000      Z:     0.0000

  Dipole Moment: [e a0]
     X:     0.0000      Y:     0.0000      Z:     0.0000     Total:     0.0000

  Dipole Moment: [D]
     X:     0.0000      Y:     0.0000      Z:     0.0000     Total:     0.0000


*** tstop() called on jeffschriber at Thu Oct 25 16:10:06 2018
Module time:
	user time   =       0.33 seconds =       0.01 minutes
	system time =       0.03 seconds =       0.00 minutes
	total time  =          0 seconds =       0.00 minutes
Total time:
	user time   =       0.70 seconds =       0.01 minutes
	system time =       0.05 seconds =       0.00 minutes
	total time  =          0 seconds =       0.00 minutes
   => Loading Basis Set <=

    Name: STO-3G
    Role: ORBITAL
    Keyword: MINAO_BASIS
    atoms 1-2 entry N          line    71 file /Users/jeffschriber/src/psi4-debug-install/share/psi4/basis/sto-3g.gbs 


Reading options from the FORTE block
Calling plugin forte.so.



  Forte
  ----------------------------------------------------------------------------
  A suite of quantum chemistry methods for strongly correlated electrons

    git branch: master - git commit: 9480afcf

  Developed by:
    Francesco A. Evangelista, Chenyang Li, Kevin P. Hannon,
    Jeffrey B. Schriber, Tianyuan Zhang, Chenxi Cai
  ----------------------------------------------------------------------------

  Size of Determinant class: 16

  ==> MO Space Information <==

  Read options for space FROZEN_DOCC
  Read options for space FROZEN_UOCC
  -------------------------------------------------------------------------
                       Ag   B1g   B2g   B3g    Au   B1u   B2u   B3u   Sum
  -------------------------------------------------------------------------
    FROZEN_DOCC         1     0     0     0     0     1     0     0     2
    RESTRICTED_DOCC     0     0     0     0     0     0     0     0     0
    ACTIVE              2     0     1     1     0     1     1     1     7
    RESTRICTED_UOCC     0     0     0     0     0     0     0     0     0
    FROZEN_UOCC         4     1     2     2     1     5     2     2    19
    Total               7     1     3     3     1     7     3     3    28
  -------------------------------------------------------------------------

  ==> Integral Transformation <==

  Number of molecular orbitals:                    28
  Number of correlated molecular orbitals:          7
  Number of frozen occupied orbitals:               2
  Number of frozen unoccupied orbitals:            19
  Two-electron integral type:              Conventional


  Overall Conventional Integrals timings

	Presorting SO-basis two-electron integrals.
	Sorting File: SO Ints (nn|nn) nbuckets = 1
	Transforming the one-electron integrals and constructing Fock matrices
	Starting first half-transformation.
	Sorting half-transformed integrals.
	First half integral transformation complete.
	Starting second half-transformation.
	Two-electron integral transformation complete.

  Integral transformation done. 0.02850603 s
  Reading the two-electron integrals from disk
  Size of two-electron integrals:   0.013739 GB  Using in-core PK algorithm.
   Calculation information:
      Number of atoms:                   2
      Number of AO shells:              12
      Number of primitives:             44
      Number of atomic orbitals:        30
      Number of basis functions:        28

      Integral cutoff                 1.00e-12
      Number of threads:                 1

  Performing in-core PK
  Using 165242 doubles for integral storage.
  We computed 3081 shell quartets total.
  Whereas there are 3081 unique shell quartets.


  Frozen-core energy            -95.815668996250 a.u.
  Timing for frozen one-body operator:                        0.156 s.
  Resorting integrals after freezing core.
  Timing for freezing core and virtual orbitals:              0.185 s.
  Conventional integrals take 0.38129900 s

                ------------------------------------------------
                  Second-Order Moller-Plesset Natural Orbitals
                      written by Francesco A. Evangelista
                ------------------------------------------------


    SCF energy                            = -108.324382945766388
    MP2 correlation energy                =   -0.083906514046583
  * MP2 total energy                      = -108.408289459812977


 Integrals are about to be computed.	Presorting SO-basis two-electron integrals.
	Sorting File: SO Ints (nn|nn) nbuckets = 1
	Transforming the one-electron integrals and constructing Fock matrices
	Starting first half-transformation.
	Sorting half-transformed integrals.
	First half integral transformation complete.
	Starting second half-transformation.
	Two-electron integral transformation complete.

  Integral transformation done. 0.02496002 s
  Reading the two-electron integrals from disk
  Size of two-electron integrals:   0.013739 GB
 Integrals are about to be updated.  Using in-core PK algorithm.
   Calculation information:
      Number of atoms:                   2
      Number of AO shells:              12
      Number of primitives:             44
      Number of atomic orbitals:        30
      Number of basis functions:        28

      Integral cutoff                 1.00e-12
      Number of threads:                 1

  Performing in-core PK
  Using 165242 doubles for integral storage.
  We computed 3081 shell quartets total.
  Whereas there are 3081 unique shell quartets.


  Frozen-core energy            -95.815668996250 a.u.
  Timing for frozen one-body operator:                        0.157 s.
  Resorting integrals after freezing core.
  Timing for freezing core and virtual orbitals:              0.184 s.
  Number of active alpha electrons: 5
  Number of active beta electrons: 5
  Maximum reference space size: 1000
  |2020222>

	  ---------------------------------------------------------
	      Adaptive Path-Integral Full Configuration Interaction
	         by Francesco A. Evangelista and Tianyuan Zhang
	                      version Jun. 4 2017
	                       1 thread(s) (OMP)
	  ---------------------------------------------------------

  ==> Calculation Information <==

    Symmetry                                         0
    Multiplicity                                     1
    Number of roots                                  1
    Root used for properties                         0
    Maximum number of iterations                100000
    Energy estimation frequency                    100
    Number of threads                                1
    Time step (beta)                         1.000e+00
    Spawning threshold                       1.000e-04
    Initial guess spawning threshold         1.000e-03
    Convergence threshold                    1.000e-12
    Prescreening tollerance factor           1.500e+00
    Energy estimate tollerance               1.000e-05
    Generator type                               Power
    Adaptive time step                              NO
    Shift the energy                                NO
    Use intermediate normalization                 YES
    Prescreen spawning                              NO
    Dynamic prescreening                           YES
    Schwarz prescreening                            NO
    Initiator approximation                         NO
    Fast variational estimate                      YES
    Result perturbation analysis                    NO
    Using OpenMP                                   YES

  ==> Initial Guess <==

  Initial guess size = 17
  Found 13 roots with 2S+1 = 1 *
  Found 3 roots with 2S+1 = 3
  Found 1 roots with 2S+1 = 5

  Initial guess energy (variational) =    -108.480325640559 Eh (root = 1)

  Most important contributions to the wave function:

    0      -0.687155      0.472181           8 |2200222000000000000000000000000000000000000000000000000000000000>   -121.265271593903
    1       0.508277      0.258345           0 |2220220000000000000000000000000000000000000000000000000000000000>   -121.131894559185
    2       0.417188      0.174046           6 |2002222000000000000000000000000000000000000000000000000000000000>   -121.249457810683
    3      -0.305475     0.0933147           4 |2022220000000000000000000000000000000000000000000000000000000000>   -121.111272067839
    4      0.0359058    0.00128923           3 |2220202000000000000000000000000000000000000000000000000000000000>   -121.394753735137
    5     -0.0196141   0.000384711          16 |2020222000000000000000000000000000000000000000000000000000000000>   -121.289224607181
    6      0.0167562   0.000280769          14 |2220022000000000000000000000000000000000000000000000000000000000>   -120.270374019483
    7    -0.00984363   9.68971e-05          11 |2022022000000000000000000000000000000000000000000000000000000000>   -120.253484173454
    8     0.00749749   5.62123e-05           1 |2022202000000000000000000000000000000000000000000000000000000000>   -121.137726910238
    9     0.00119546   1.42912e-06          15 |0220222000000000000000000000000000000000000000000000000000000000>   -120.029570863539

  Spin State: S^2 = 0.000, S = 0.000, singlet (from 4 determinants,99.79)

  ==> Estimate highest excitation energy <==
  Highest Excited determinant:
  |0222022000000000000000000000000000000000000000000000000000000000>
  Determinant Energy                    :  -106.252919434960
  Highest Energy Gershgorin circle Est. :  -104.873589315104

  ==> Characteristic Function <==
    f(x) = -1.000000e+00 * x +0.000000e+00
    with tau = 1.000000e+00, shift = -119.641799139247, range = 1.803368162727
    Initial guess: lambda_1= -108.480325640559
    Est. Highest eigenvalue= -104.873589315104

  ==> PCI Iterations <==

  ------------------------------------------------------------------------------------------------
    Steps  Beta/Eh      Ndets     Proj. Energy/Eh     dEp/dt      Approx. Energy/Eh   dEv/dt
  ------------------------------------------------------------------------------------------------
        0     0.00         55    -108.480924399998 -5.988e-06    -108.480808094660 -4.868e-06
      100   100.00         61    -108.525641617279 -4.472e-04    -108.523369238882 -4.256e-04
      200   200.00         61    -108.552877498136 -2.724e-04    -108.553405851884 -3.004e-04
      300   300.00         61    -108.571563251968 -1.869e-04    -108.574635529571 -2.123e-04
      400   400.00         61    -108.585167842838 -1.360e-04    -108.590000071601 -1.536e-04
      500   500.00         61    -108.595378300348 -1.021e-04    -108.601164000028 -1.116e-04
      600   600.00         61    -108.603136222050 -7.758e-05    -108.609505455037 -8.341e-05
      700   700.00         61    -108.609083934259 -5.948e-05    -108.615843694477 -6.338e-05
      800   800.00         61    -108.613698839446 -4.615e-05    -108.620809624557 -4.966e-05
      900   900.00         61    -108.617332085284 -3.633e-05    -108.624571207393 -3.762e-05
     1000  1000.00         61    -108.620216699024 -2.885e-05    -108.627558834064 -2.988e-05
     1100  1100.00         61    -108.622536533814 -2.320e-05    -108.629872842595 -2.314e-05
     1200  1200.00         61    -108.624432636457 -1.896e-05    -108.631681234498 -1.808e-05
     1300  1300.00         61    -108.626050579254 -1.618e-05    -108.633082341565 -1.401e-05
     1400  1400.00         61    -108.627442596750 -1.392e-05    -108.634163037388 -1.081e-05
     1500  1500.00         61    -108.628635964158 -1.193e-05    -108.634998207206 -8.352e-06
     1600  1600.00         61    -108.629664639969 -1.029e-05    -108.635646448473 -6.482e-06
     1700  1700.00         61    -108.630557127740 -8.925e-06    -108.636158298702 -5.119e-06
     1800  1800.00         61    -108.631338540283 -7.814e-06    -108.636501129810 -3.428e-06
     1900  1900.00         61    -108.632026531514 -6.880e-06    -108.636808768234 -3.076e-06
     2000  2000.00         61    -108.632646301866 -6.198e-06    -108.637045854018 -2.371e-06
     2100  2100.00         61    -108.633202240926 -5.559e-06    -108.637230328892 -1.845e-06
     2200  2200.00         61    -108.633700931476 -4.987e-06    -108.637373213469 -1.429e-06
     2300  2300.00         61    -108.634141807709 -4.409e-06    -108.637456003041 -8.279e-07
     2400  2400.00         61    -108.634531312433 -3.895e-06    -108.637576948278 -1.209e-06
     2500  2500.00         61    -108.634868041550 -3.367e-06    -108.637645147162 -6.820e-07
     2600  2600.00         61    -108.635186868561 -3.188e-06    -108.637720779669 -7.563e-07
     2700  2700.00         61    -108.635467389577 -2.805e-06    -108.637739574687 -1.880e-07
     2800  2800.00         61    -108.635713062240 -2.457e-06    -108.637769926654 -3.035e-07
     2900  2900.00         61    -108.635932878629 -2.198e-06    -108.637793761897 -2.384e-07
     3000  3000.00         61    -108.636129745365 -1.969e-06    -108.637794909657 -1.148e-08
     3100  3100.00         61    -108.636294126381 -1.644e-06    -108.637809715734 -1.481e-07
     3200  3200.00         61    -108.636452567225 -1.584e-06    -108.637821783974 -1.207e-07
     3300  3300.00         61    -108.636598637361 -1.461e-06    -108.637831556288 -9.772e-08
     3400  3400.00         61    -108.636727597286 -1.290e-06    -108.637838017348 -6.461e-08
     3500  3500.00         61    -108.636845173744 -1.176e-06    -108.637844299550 -6.282e-08
     3600  3600.00         61    -108.636943751968 -9.858e-07    -108.637861949827 -1.765e-07
     3700  3700.00         61    -108.637032930346 -8.918e-07    -108.637865100936 -3.151e-08
     3800  3800.00         61    -108.637119121730 -8.619e-07    -108.637868723253 -3.622e-08
     3900  3900.00         61    -108.637199068017 -7.995e-07    -108.637869664758 -9.415e-09
     4000  4000.00         61    -108.637273390366 -7.432e-07    -108.637871537544 -1.873e-08
     4100  4100.00         61    -108.637338971543 -6.558e-07    -108.637873142000 -1.604e-08
     4200  4200.00         61    -108.637381455348 -4.248e-07    -108.637856480265  1.666e-07
     4300  4300.00         61    -108.637429460870 -4.801e-07    -108.637858190714 -1.710e-08
     4400  4400.00         61    -108.637475076921 -4.562e-07    -108.637859092844 -9.021e-09
     4500  4500.00         61    -108.637516515132 -4.144e-07    -108.637859800628 -7.078e-09
     4600  4600.00         61    -108.637553733220 -3.722e-07    -108.637860367517 -5.669e-09
     4700  4700.00         61    -108.637587028389 -3.330e-07    -108.637860825781 -4.583e-09
     4800  4800.00         61    -108.637616765560 -2.974e-07    -108.637861198639 -3.729e-09
     4900  4900.00         61    -108.637643303624 -2.654e-07    -108.637861503770 -3.051e-09
     5000  5000.00         61    -108.637666976359 -2.367e-07    -108.637861754853 -2.511e-09
     5100  5100.00         61    -108.637688088173 -2.111e-07    -108.637861962546 -2.077e-09
     5200  5200.00         61    -108.637706914145 -1.883e-07    -108.637862135197 -1.727e-09
     5300  5300.00         61    -108.637723701506 -1.679e-07    -108.637862279389 -1.442e-09
     5400  5400.00         61    -108.637738671685 -1.497e-07    -108.637862400343 -1.210e-09
     5500  5500.00         61    -108.637752022523 -1.335e-07    -108.637862502226 -1.019e-09
     5600  5600.00         61    -108.637763930509 -1.191e-07    -108.637862588383 -8.616e-10
     5700  5700.00         61    -108.637774552922 -1.062e-07    -108.637862661514 -7.313e-10
     5800  5800.00         61    -108.637784029832 -9.477e-08    -108.637862723808 -6.229e-10
     5900  5900.00         61    -108.637792485936 -8.456e-08    -108.637862777048 -5.324e-10
     6000  6000.00         61    -108.637800032230 -7.546e-08    -108.637862822694 -4.565e-10
     6100  6100.00         61    -108.637806767510 -6.735e-08    -108.637862861944 -3.925e-10
     6200  6200.00         61    -108.637812779721 -6.012e-08    -108.637862895788 -3.384e-10
     6300  6300.00         61    -108.637818147156 -5.367e-08    -108.637862925044 -2.926e-10
     6400  6400.00         61    -108.637822939531 -4.792e-08    -108.637862950392 -2.535e-10
     6500  6500.00         61    -108.637827218937 -4.279e-08    -108.637862972403 -2.201e-10
     6600  6600.00         61    -108.637831040682 -3.822e-08    -108.637862991550 -1.915e-10
     6700  6700.00         61    -108.637834454046 -3.413e-08    -108.637863008235 -1.669e-10
     6800  6800.00         61    -108.637837502949 -3.049e-08    -108.637863022796 -1.456e-10
     6900  6900.00         61    -108.637840226539 -2.724e-08    -108.637863035518 -1.272e-10
     7000  7000.00         61    -108.637842660070 -2.434e-08    -108.637863312341 -2.768e-09
     7100  7100.00         61    -108.637844862161 -2.202e-08    -108.637863240147  7.219e-10
     7200  7200.00         61    -108.637846832952 -1.971e-08    -108.637863199325  4.082e-10
     7300  7300.00         61    -108.637848583920 -1.751e-08    -108.637863177285  2.204e-10
     7400  7400.00         61    -108.637850141011 -1.557e-08    -108.637863166235  1.105e-10
     7500  7500.00         61    -108.637851528406 -1.387e-08    -108.637863161485  4.749e-11
     7600  7600.00         61    -108.637852766410 -1.238e-08    -108.637863160260  1.225e-11
     7700  7700.00         61    -108.637853872050 -1.106e-08    -108.637863160931 -6.712e-12
     7800  7800.00         61    -108.637854859911 -9.879e-09    -108.637863162554 -1.623e-11
     7900  7900.00         61    -108.637855742722 -8.828e-09    -108.637863164586 -2.032e-11
     8000  8000.00         61    -108.637856531732 -7.890e-09    -108.637863166723 -2.137e-11
     8100  8100.00         61    -108.637857236945 -7.052e-09    -108.637863168798 -2.075e-11
     8200  8200.00         61    -108.637857867286 -6.303e-09    -108.637863170727 -1.928e-11
     8300  8300.00         61    -108.637858430724 -5.634e-09    -108.637863172470 -1.743e-11
     8400  8400.00         61    -108.637858934379 -5.037e-09    -108.637863174017 -1.547e-11
     8500  8500.00         61    -108.637859384608 -4.502e-09    -108.637863175369 -1.352e-11
     8600  8600.00         61    -108.637859787092 -4.025e-09    -108.637863176537 -1.168e-11
     8700  8700.00         61    -108.637860146902 -3.598e-09    -108.637863177535 -9.976e-12
     8800  8800.00         61    -108.637860468569 -3.217e-09    -108.637863178377 -8.422e-12
     8900  8900.00         61    -108.637860756140 -2.876e-09    -108.637863179079 -7.017e-12
     9000  9000.00         61    -108.637861013230 -2.571e-09    -108.637863179654 -5.755e-12
     9100  9100.00         61    -108.637861243070 -2.298e-09    -108.637863180117 -4.627e-12
     9200  9200.00         61    -108.637861448546 -2.055e-09    -108.637863180479 -3.620e-12
     9300  9300.00         61    -108.637861632239 -1.837e-09    -108.637863180751 -2.724e-12
     9400  9400.00         61    -108.637861796456 -1.642e-09    -108.637863180944 -1.927e-12
     9500  9500.00         61    -108.637861943256 -1.468e-09    -108.637863181066 -1.220e-12
     9600  9600.00         61    -108.637862074484 -1.312e-09    -108.637863181125 -5.923e-13
     9700  9700.00         61    -108.637862191786 -1.173e-09
  ------------------------------------------------------------------------------------------------

  Calculation converged.

  ==> Post-Iterations <==

  * Projector-CI Variational Energy     =  -108.638029321207 Eh
  * Projector-CI Projective  Energy     =  -108.637862191786 Eh

  * Projector-CI Approximate Energy     =  -108.637863181125 Eh
  * 1st order perturbation   Energy     =    -0.000166140082 Eh
  * Projector-CI Var. Corr.  Energy     =    -0.313646375440 Eh

  * Size of CI space                    = 61

  Projector-CI (bitset) ran in  : 6.852719 s

  Most important contributions to the wave function:

    0      -0.607084      0.368552          39 |2200222000000000000000000000000000000000000000000000000000000000>   -121.265271593903
    1       0.421383      0.177563          38 |2220220000000000000000000000000000000000000000000000000000000000>   -121.131894559185
    2        0.39646      0.157181          13 |2202202000000000000000000000000000000000000000000000000000000000>   -121.122865443471
    3      -0.322794      0.104196          23 |2222200000000000000000000000000000000000000000000000000000000000>   -120.984109875759
    4      -0.250432      0.062716           5 |22+-2-+000000000000000000000000000000000000000000000000000000000>   -121.520352993077
    5      -0.250432      0.062716          44 |22-+2+-000000000000000000000000000000000000000000000000000000000>   -121.520352993077
    6      -0.148351     0.0220079          24 |22-+2-+000000000000000000000000000000000000000000000000000000000>   -121.128530535384
    7      -0.148351     0.0220079          16 |22+-2+-000000000000000000000000000000000000000000000000000000000>   -121.128530535383
    8        0.10417     0.0108515           0 |22++2--000000000000000000000000000000000000000000000000000000000>   -121.130730997570
    9        0.10417     0.0108515          10 |22--2++000000000000000000000000000000000000000000000000000000000>   -121.130730997570

  Spin State: S^2 = 0.043, S = 0.041, singlet (from 8 determinants,97.69)	PCI energy........................................................PASSED

    Psi4 stopped on: Thursday, 25 October 2018 04:10PM
    Psi4 wall time for execution: 0:00:08.51

*** Psi4 exiting successfully. Buy a developer a beer!
