
    -----------------------------------------------------------------------
          Psi4: An Open-Source Ab Initio Electronic Structure Package
                               Psi4 1.2rc2.dev6 

                         Git: Rev {master} ce9c78d dirty


    R. M. Parrish, L. A. Burns, D. G. A. Smith, A. C. Simmonett,
    A. E. DePrince III, E. G. Hohenstein, U. Bozkaya, A. Yu. Sokolov,
    R. Di Remigio, R. M. Richard, J. F. Gonthier, A. M. James,
    H. R. McAlexander, A. Kumar, M. Saitow, X. Wang, B. P. Pritchard,
    P. Verma, H. F. Schaefer III, K. Patkowski, R. A. King, E. F. Valeev,
    F. A. Evangelista, J. M. Turney, T. D. Crawford, and C. D. Sherrill,
    J. Chem. Theory Comput. 13(7) pp 3185--3197 (2017).
    (doi: 10.1021/acs.jctc.7b00174)

    -----------------------------------------------------------------------


    Psi4 started on: Thursday, 05 July 2018 07:15PM

    Process ID: 66448
    Host:       tianyuans-air.wireless.emory.edu
    PSIDATADIR: /Users/tianyuanzhang/Documents/Source/psi4_2018/psi4-bin-clang-debug/share/psi4
    Memory:     500.0 MiB
    Threads:    1
    
  ==> Input File <==

--------------------------------------------------------------------------
#! Generated using commit GITCOMMIT

import forte

refmcscf   = -99.406065222746975
refudsrg   = -99.498963275216340 # no relaxation semi-canonical orbitals
refprdsrg  = -99.500375590817 # partially relaxed energy
refrdsrg   = -99.500104393743 # relaxed energy

memory 500 mb

molecule HF{
  0 1
  F
  H  1 R
  R = 1.50
}

set globals{
   basis                  3-21g
   reference              twocon
   scf_type               cd
   cholesky_tolerance     1e-4
   e_convergence          8
   maxiter                100
   docc                   [3,0,1,1]
}

set mcscf{
   docc                   [2,0,1,1]
   socc                   [2,0,0,0]
   maxiter                1000
   level_shift            0.5
   d_convergence          10
   e_convergence          12
}

set forte{
   job_type               mrdsrg
   int_type               cholesky
   cholesky_tolerance     1e-4
   corr_level             ldsrg2
   frozen_docc            [1,0,0,0]
   restricted_docc        [1,0,1,1]
   active                 [2,0,0,0]
   root_sym               0
   nroot                  1
   dsrg_s                 1.0
   maxiter                100
   e_convergence          8
   relax_ref              twice
}

Emcscf, wfn = energy('mcscf', return_wfn=True)
compare_values(refmcscf,get_variable("CURRENT ENERGY"),10,"MCSCF energy")

energy('forte', ref_wfn=wfn)
compare_values(refudsrg,get_variable("UNRELAXED ENERGY"),8,"MRDSRG unrelaxed energy")
compare_values(refprdsrg,get_variable("PARTIALLY RELAXED ENERGY"),8,"MRDSRG partially relaxed energy")
compare_values(refrdsrg,get_variable("RELAXED ENERGY"),8,"MRDSRG relaxed energy")
--------------------------------------------------------------------------

  Memory set to 476.837 MiB by Python driver.
   => Loading Basis Set <=

    Name: 3-21G
    Role: ORBITAL
    Keyword: BASIS
    atoms 1 entry F          line   101 file /Users/tianyuanzhang/Documents/Source/psi4_2018/psi4-bin-clang-debug/share/psi4/basis/3-21g.gbs 
    atoms 2 entry H          line    21 file /Users/tianyuanzhang/Documents/Source/psi4_2018/psi4-bin-clang-debug/share/psi4/basis/3-21g.gbs 


*** tstart() called on tianyuans-air.wireless.emory.edu
*** at Thu Jul  5 19:15:22 2018


         ------------------------------------------
           MCSCF: a self-consistent field program
            written by Francesco A. Evangelista
         ------------------------------------------

  MOs per irrep:                                      A1  A2  B1  B2 Total
  ----------------------------------------------------------------------------
  Total                                                7    0    2    2    11
  Doubly Occupied                                      2    0    1    1     4
  Active/Singly Occupied                               2    0    0    0     2
  ----------------------------------------------------------------------------

  Running an SCF calculation
  TWOCON MOs = [2 (A1),3 (A1)]

  Generated 66 pairs
  Distributed as [34 A1][4 A2][14 B1][14 B2]
  batch   0 pq = [       0,      34] index = [               0,             595]

  Allocated the PK matrix (595 elements) 
  Allocated the  K matrix (595 elements) 
  Reading the two-electron integrals to form PK and K ... 
  batch   0 ... done.


  =========================================================================================
         Cycle          Energy               D(Energy)            D(Density)            DIIS
  ===========================================================================================
  Setting level shift to 0.500 S
  @SCF    0      -90.711680135674     -90.711680135674       0.179571427031
    ci      = [ 0.00000000, 0.00000000]
    ci_grad = [ 0.00000000, 0.00000000]
  Setting level shift to 0.500 S
  @SCF    1      -99.209208289695      -8.497528154021       0.171539036589
    ci      = [ 0.00000000, 0.00000000]
    ci_grad = [ 0.00000000, 0.00000000]
  Setting level shift to 0.500 S
  @SCF    2      -99.181126225609       0.028082064085       0.014194650032
    ci      = [ 0.00000000, 0.00000000]
    ci_grad = [ 0.00000000, 0.00000000]
  Setting level shift to 0.500 S
  @SCF    3      -99.187147055736      -0.006020830126       0.007187093255
    ci      = [ 0.00000000, 0.00000000]
    ci_grad = [ 0.00000000, 0.00000000]
  Setting level shift to 0.500 S
  @SCF    4      -99.185505238170       0.001641817566       0.004582734244
    ci      = [ 0.00000000, 0.00000000]
    ci_grad = [ 0.00000000, 0.00000000]
  Setting level shift to 0.500 S
  @SCF    5      -99.188474394436      -0.002969156266       0.002877713537
    ci      = [ 0.00000000, 0.00000000]
    ci_grad = [ 0.00000000, 0.00000000]
  Setting level shift to 0.500 S
  @SCF    6      -99.186908014980       0.001566379456       0.001957181715
    ci      = [ 0.00000000, 0.00000000]
    ci_grad = [ 0.00000000, 0.00000000]
  Setting level shift to 0.500 S/E
  @SCF    7      -99.189018415622      -0.002110400642       0.001358833721
    ci      = [ 0.00000000, 0.00000000]
    ci_grad = [ 0.00000000, 0.00000000]
  Setting level shift to 0.500 S/E
  @SCF    8      -99.188321586517       0.000696829105       0.000571003443
    ci      = [ 0.00000000, 0.00000000]
    ci_grad = [ 0.00000000, 0.00000000]
  Setting level shift to 0.500 S/E
  @SCF    9      -99.188265995166       0.000055591351       0.000013369739
    ci      = [ 0.00000000, 0.00000000]
    ci_grad = [ 0.00000000, 0.00000000]
  Setting level shift to 0.500 S/E
  @SCF   10      -99.188257103034       0.000008892132       0.000002169527
    ci      = [-0.93934204, 0.34298182]
    ci_grad = [ 0.00000000, 0.00000000]
  Setting level shift to 0.500 S/E
  @SCF   11      -99.188255334686       0.000001768348       0.000000855765
    ci      = [-0.93934230, 0.34298112]
    ci_grad = [-0.00000152, 0.00000100]
  Setting level shift to 0.500 S/E
  @SCF   12      -99.188255068103       0.000000266583       0.000000113202
    ci      = [-0.93934223, 0.34298130]
    ci_grad = [-0.00000029,-0.00000001]
  Setting level shift to 0.500 S/E
  @SCF   13      -99.188257583148      -0.000002515045       0.000000557797
    ci      = [-0.93934249, 0.34298061]
    ci_grad = [ 0.00000250,-0.00000048]
  Setting level shift to 0.500 S/E
  @SCF   14      -99.188256441381       0.000001141768       0.000000350207
    ci      = [-0.93934242, 0.34298079]
    ci_grad = [-0.00000111, 0.00000029]
  Setting level shift to 0.500 S/E
  @SCF   15      -99.188256646112      -0.000000204731       0.000000028562
    ci      = [-0.93934243, 0.34298075]
    ci_grad = [ 0.00000020,-0.00000005]
  Setting level shift to 0.500 S/E
  @SCF   16      -99.188272237975      -0.000015591864       0.000001973357
    ci      = [-0.93934243, 0.34298075]
    ci_grad = [ 0.00001562,-0.00000268]
  Setting level shift to 0.500 S/E
  @SCF   17      -99.188250701496       0.000021536479       0.000002905461
    ci      = [-0.93934243, 0.34298075]
    ci_grad = [-0.00002003, 0.00000793]
  Setting level shift to 0.500 S/E
  @SCF   18      -99.338067515570      -0.149816814074       0.036367766043
    ci      = [-0.93934243, 0.34298075]
    ci_grad = [ 0.16014523, 0.02860252]
  Setting level shift to 0.500 S/E
  @SCF   19      -99.382464739333      -0.044397223763       0.017278252560
    ci      = [-0.93934243, 0.34298075]
    ci_grad = [ 0.05084668, 0.01343152]
  Setting level shift to 0.500 S/E
  @SCF   20      -99.390883585686      -0.008418846353       0.006375480302
    ci      = [-0.93934243, 0.34298075]
    ci_grad = [ 0.01842418, 0.03074112]
  Setting level shift to 0.500 S/E
  @SCF   21      -99.396488245666      -0.005604659979       0.005312842404
    ci      = [-0.93934243, 0.34298075]
    ci_grad = [ 0.01353761, 0.02352639]
  Setting level shift to 0.500 S/E
  @SCF   22      -99.401967640791      -0.005479395126       0.006449684076
    ci      = [-0.93934243, 0.34298075]
    ci_grad = [ 0.01322883, 0.02284165]
  Setting level shift to 0.500 S/E
  @SCF   23      -99.404410103185      -0.002442462394       0.004487215644
    ci      = [-0.93934243, 0.34298075]
    ci_grad = [ 0.00882611, 0.01866504]
  Setting level shift to 0.500 S/E
  @SCF   24      -99.405879921724      -0.001469818539       0.005214892183
    ci      = [-0.93934243, 0.34298075]
    ci_grad = [ 0.00791164, 0.01896070]
  Setting level shift to 0.500 S/E
  @SCF   25      -99.405931152577      -0.000051230853       0.000654508054
    ci      = [-0.93934243, 0.34298075]
    ci_grad = [ 0.00658208, 0.01945358]
  Setting level shift to 0.500 S/E
  @SCF   26      -99.405963697636      -0.000032545059       0.000480188537
    ci      = [-0.93934243, 0.34298075]
    ci_grad = [ 0.00660641, 0.01959395]
  Setting level shift to 0.500 S/E
  @SCF   27      -99.405975028603      -0.000011330966       0.000408978036
    ci      = [-0.93934243, 0.34298075]
    ci_grad = [ 0.00657259, 0.01955633]
  Setting level shift to 0.500 S/E
  @SCF   28      -99.405963476234       0.000011552369       0.000208507690
    ci      = [-0.93934243, 0.34298075]
    ci_grad = [ 0.00647548, 0.01931801]
  Setting level shift to 0.500 S/E
  @SCF   29      -99.405970982112      -0.000007505878       0.000146005377
    ci      = [-0.94801329, 0.31823073]
    ci_grad = [ 0.00652564, 0.01941638]
  Setting level shift to 0.500 S/E
  @SCF   30      -99.405971160589      -0.000000178478       0.000040247580
    ci      = [-0.94801349, 0.31823014]
    ci_grad = [ 0.00000032, 0.00000040]
  Setting level shift to 0.500 S/E
  @SCF   31      -99.405968527698       0.000002632892       0.000017478533
    ci      = [-0.94799367, 0.31828917]
    ci_grad = [-0.00001798,-0.00004527]
  Setting level shift to 0.500 S/E
  @SCF   32      -99.405963660962       0.000004866736       0.000028676247
    ci      = [-0.94795801, 0.31839536]
    ci_grad = [-0.00003247,-0.00008138]
  Setting level shift to 0.500 S/E
  @SCF   33      -99.405958622026       0.000005038936       0.000033151371
    ci      = [-0.94792237, 0.31850146]
    ci_grad = [-0.00003261,-0.00008123]
  Setting level shift to 0.500 S/E
  @SCF   34      -99.405972874255      -0.000014252230       0.000108169767
    ci      = [-0.94792237, 0.31850146]
    ci_grad = [ 0.00009394, 0.00023510]
  Setting level shift to 0.500 S/E
  @SCF   35      -99.406007954038      -0.000035079782       0.000325917558
    ci      = [-0.94792237, 0.31850146]
    ci_grad = [ 0.00034524, 0.00092122]
  Setting level shift to 0.500 S/E
  @SCF   36      -99.406015986433      -0.000008032395       0.000087215517
    ci      = [-0.94840162, 0.31707156]
    ci_grad = [ 0.00038251, 0.00111880]
  Setting level shift to 0.500 S/E
  @SCF   37      -99.406061767771      -0.000045781338       0.000845922494
    ci      = [-0.94840162, 0.31707156]
    ci_grad = [ 0.00064805, 0.00180875]
  Setting level shift to 0.500 S/E
  @SCF   38      -99.406064146553      -0.000002378782       0.000140470608
    ci      = [-0.94929174, 0.31439655]
    ci_grad = [ 0.00070293, 0.00211487]
  Setting level shift to 0.500 S/E
  @SCF   39      -99.406064791881      -0.000000645328       0.000095295756
    ci      = [-0.94933896, 0.31425394]
    ci_grad = [ 0.00003795, 0.00011260]
  Setting level shift to 0.500 S/E
  @SCF   40      -99.406065146679      -0.000000354799       0.000065279789
    ci      = [-0.94939630, 0.31408067]
    ci_grad = [ 0.00004570, 0.00013702]
  Setting level shift to 0.500 S/E
  @SCF   41      -99.406065200735      -0.000000054056       0.000075066997
    ci      = [-0.94945814, 0.31389367]
    ci_grad = [ 0.00004901, 0.00014808]
  Setting level shift to 0.500 S/E
  @SCF   42      -99.406065205209      -0.000000004473       0.000045940473
    ci      = [-0.94941751, 0.31401653]
    ci_grad = [-0.00003216,-0.00009726]
  Setting level shift to 0.500 S/E
  @SCF   43      -99.406065219826      -0.000000014617       0.000032024390
    ci      = [-0.94944484, 0.31393391]
    ci_grad = [ 0.00002165, 0.00006542]
  Setting level shift to 0.500 S/E
  @SCF   44      -99.406065222693      -0.000000002868       0.000008813109
    ci      = [-0.94943722, 0.31395696]
    ci_grad = [-0.00000603,-0.00001825]
  Setting level shift to 0.500 S/E
  @SCF   45      -99.406065221886       0.000000000808       0.000004752592
    ci      = [-0.94944132, 0.31394454]
    ci_grad = [ 0.00000325, 0.00000983]
  Setting level shift to 0.500 S/E
  @SCF   46      -99.406065222605      -0.000000000720       0.000003086570
    ci      = [-0.94943869, 0.31395251]
    ci_grad = [-0.00000209,-0.00000631]
  Setting level shift to 0.500 S/E
  @SCF   47      -99.406065222723      -0.000000000118       0.000001178367
    ci      = [-0.94943766, 0.31395561]
    ci_grad = [-0.00000081,-0.00000245]
  Setting level shift to 0.500 S/E
  @SCF   48      -99.406065222747      -0.000000000023       0.000000844070
    ci      = [-0.94943692, 0.31395786]
    ci_grad = [-0.00000059,-0.00000178]
  Setting level shift to 0.500 S/E
  @SCF   49      -99.406065222747      -0.000000000000       0.000000079362
    ci      = [-0.94943697, 0.31395771]
    ci_grad = [ 0.00000004, 0.00000012]
  Setting level shift to 0.500 S/E
  @SCF   50      -99.406065222747      -0.000000000000       0.000000052091
    ci      = [-0.94943692, 0.31395784]
    ci_grad = [-0.00000004,-0.00000011]
  Setting level shift to 0.500 S/E
  @SCF   51      -99.406065222747      -0.000000000000       0.000000060595
    ci      = [-0.94943697, 0.31395772]
    ci_grad = [ 0.00000003, 0.00000010]
  Setting level shift to 0.500 S/E
  @SCF   52      -99.406065222747       0.000000000000       0.000000020506
    ci      = [-0.94943697, 0.31395769]
    ci_grad = [ 0.00000001, 0.00000002]
  Setting level shift to 0.500 S/E
  @SCF   53      -99.406065222747      -0.000000000000       0.000000006160
    ci      = [-0.94943697, 0.31395771]
    ci_grad = [-0.00000000,-0.00000002]
  Setting level shift to 0.500 S/E
  @SCF   54      -99.406065222747       0.000000000000       0.000000002620
    ci      = [-0.94943697, 0.31395771]
    ci_grad = [ 0.00000000, 0.00000000]
  Setting level shift to 0.500 S/E
  @SCF   55      -99.406065222747      -0.000000000000       0.000000006699
    ci      = [-0.94943696, 0.31395773]
    ci_grad = [-0.00000000,-0.00000001]
  Setting level shift to 0.500 S/E
  @SCF   56      -99.406065222747      -0.000000000000       0.000000003971
    ci      = [-0.94943697, 0.31395771]
    ci_grad = [ 0.00000000, 0.00000001]
  Setting level shift to 0.500 S/E
  @SCF   57      -99.406065222747       0.000000000000       0.000000000562
    ci      = [-0.94943697, 0.31395771]
    ci_grad = [-0.00000000,-0.00000000]
  Setting level shift to 0.500 S/E
  @SCF   58      -99.406065222747      -0.000000000000       0.000000001031
    ci      = [-0.94943697, 0.31395771]
    ci_grad = [ 0.00000000, 0.00000000]
  Setting level shift to 0.500 S/E
  @SCF   59      -99.406065222747       0.000000000000       0.000000000532
    ci      = [-0.94943697, 0.31395771]
    ci_grad = [ 0.00000000, 0.00000000]
  Setting level shift to 0.500 S/E
  @SCF   60      -99.406065222747      -0.000000000000       0.000000000193
    ci      = [-0.94943697, 0.31395771]
    ci_grad = [ 0.00000000, 0.00000000]
  Setting level shift to 0.500 S/E
  @SCF   61      -99.406065222747       0.000000000000       0.000000000092
    ci      = [-0.94943697, 0.31395771]
    ci_grad = [-0.00000000,-0.00000000]
  Setting level shift to 0.500 S/E
  @SCF   62      -99.406065222747       0.000000000000       0.000000000359
    ci      = [-0.94943697, 0.31395771]
    ci_grad = [-0.00000000,-0.00000000]
  Setting level shift to 0.500 S/E
  @SCF   63      -99.406065222747      -0.000000000000       0.000000000063
    ci      = [-0.94943697, 0.31395771]
    ci_grad = [ 0.00000000, 0.00000000]
  Setting level shift to 0.500 S/E
  @SCF   64      -99.406065222747       0.000000000000       0.000000000046
    ci      = [-0.94943697, 0.31395771]
    ci_grad = [-0.00000000,-0.00000000]
  Setting level shift to 0.500 S/E
  @SCF   65      -99.406065222747      -0.000000000000       0.000000000027
    ci      = [-0.94943697, 0.31395771]
    ci_grad = [ 0.00000000, 0.00000000]
  Setting level shift to 0.500 S/E
  @SCF   66      -99.406065222747       0.000000000000       0.000000000011
    ci      = [-0.94943697, 0.31395771]
    ci_grad = [ 0.00000000, 0.00000000]
  =========================================================================================

      * SCF total energy   =     -99.406065222747


      CI coefficients  = [-0.949436968, 0.313957711]

  End of SCF
  MOs orthonormality check passed.

  Orbitals are canonicalized as:
  inactive (docc + uocc) : Fock(core)
  active   (actv)        : Fock(core)

  =========================================================================
  Eigenvalues (Eh)
  -------------------------------------------------------------------------
  Doubly occupied orbitals
      1    -26.175209  A1      2     -1.495695  A1      3     -0.623385  B1
      4     -0.623385  B2
  Active orbitals
      5     -0.510102  A1      6      0.074682  A1
  Unoccupied orbitals
      7      1.595133  A1      8      2.709370  B1      9      2.709370  B2
     10      2.796416  A1     11      3.870480  A1
  =========================================================================


  MCSCF Execution Completed.


*** tstop() called on tianyuans-air.wireless.emory.edu at Thu Jul  5 19:15:22 2018
Module time:
	user time   =       0.08 seconds =       0.00 minutes
	system time =       0.04 seconds =       0.00 minutes
	total time  =          0 seconds =       0.00 minutes
Total time:
	user time   =       0.08 seconds =       0.00 minutes
	system time =       0.04 seconds =       0.00 minutes
	total time  =          0 seconds =       0.00 minutes
	MCSCF energy......................................................PASSED
   => Loading Basis Set <=

    Name: STO-3G
    Role: ORBITAL
    Keyword: MINAO_BASIS
    atoms 1 entry F          line    91 file /Users/tianyuanzhang/Documents/Source/psi4_2018/psi4-bin-clang-debug/share/psi4/basis/sto-3g.gbs 
    atoms 2 entry H          line    19 file /Users/tianyuanzhang/Documents/Source/psi4_2018/psi4-bin-clang-debug/share/psi4/basis/sto-3g.gbs 


Reading options from the FORTE block
Calling plugin forte.so.



  Forte
  ----------------------------------------------------------------------------
  A suite of quantum chemistry methods for strongly correlated electrons

    git branch: DSRG_NIVO - git commit: 624f166d

  Developed by:
    Francesco A. Evangelista, Chenyang Li, Kevin P. Hannon,
    Jeffrey B. Schriber, Tianyuan Zhang, Chenxi Cai
  ----------------------------------------------------------------------------

  Size of Determinant class: 16

  ==> MO Space Information <==

  Read options for space FROZEN_DOCC
  Read options for space RESTRICTED_DOCC
  Read options for space ACTIVE
 Removing orbital 0
  -------------------------------------------------
                       A1    A2    B1    B2   Sum
  -------------------------------------------------
    FROZEN_DOCC         1     0     0     0     1
    RESTRICTED_DOCC     1     0     1     1     3
    ACTIVE              2     0     0     0     2
    RESTRICTED_UOCC     3     0     1     1     5
    FROZEN_UOCC         0     0     0     0     0
    Total               7     0     2     2    11
  -------------------------------------------------

  ==> Integral Transformation <==

  Number of molecular orbitals:               11
  Number of correlated molecular orbitals:    10
  Number of frozen occupied orbitals:          1
  Number of frozen unoccupied orbitals:        0

    Molecular point group: c2v
    Full point group: C_inf_v

    Geometry (in Angstrom), charge = 0, multiplicity = 1:

       Center              X                  Y                   Z               Mass       
    ------------   -----------------  -----------------  -----------------  -----------------
           F          0.000000000000     0.000000000000    -0.075563346012    18.998403224000
           H          0.000000000000     0.000000000000     1.424436653988     1.007825032070

  -AO BASIS SET INFORMATION:
    Name                   = 3-21G
    Blend                  = 3-21G
    Total number of shells = 7
    Number of primitives   = 12
    Number of AO           = 11
    Number of SO           = 11
    Maximum AM             = 1
    Spherical Harmonics    = FALSE

  -Contraction Scheme:
    Atom   Type   All Primitives // Shells:
   ------ ------ --------------------------
       1     F     6s 3p // 3s 2p 
       2     H     3s // 2s 

  ==> AO Basis Functions <==

    [ 3-21G ]
    cartesian
    ****
    F   1
    S   3 1.00
                       413.80100000           0.05854830
                        62.24460000           0.34930800
                        13.43400000           0.70963200
    S   2 1.00
                         9.77759000          -0.40732700
                         2.08617000           1.22314000
    P   2 1.00
                         9.77759000           0.24668000
                         2.08617000           0.85232100
    S   1 1.00
                         0.48238300           1.00000000
    P   1 1.00
                         0.48238300           1.00000000
    ****
    H   2
    S   2 1.00
                         5.44717800           0.15628500
                         0.82454700           0.90469100
    S   1 1.00
                         0.18319200           1.00000000
    ****


  Cholesky integrals time
 Computing the Cholesky Vectors 

    Computing CD Integrals               ......Done. Timing        0.020015 s
 Need 0.000039 GB to store cd integrals in core

 Number of cholesky vectors 43 to satisfy       0.000100000000 tolerance

  Frozen-core energy            -75.818535537076 a.u.

  FrozenOneBody Operator takes  0.05888600 s
  Resorting integrals after freezing core.
  CholeskyIntegrals take 0.08744500

                -----------------------------------------------
                  String-based Full Configuration Interaction
                          by Francesco A. Evangelista
                -----------------------------------------------

  Number of electrons: 10
  Charge: 0
  Multiplicity: 1
  Davidson subspace max dim: 8
  Davidson subspace min dim: 2
  M_s: 0

  ==> String Lists <==

  Number of alpha electrons     = 1
  Number of beta electrons      = 1
  Number of alpha strings       = 2
  Number of beta strings        = 2
  Timing for strings        =      0.000 s
  Timing for NN strings     =      0.000 s
  Timing for VO strings     =      0.000 s
  Timing for OO strings     =      0.000 s
  Timing for VVOO strings   =      0.000 s
  Timing for VOVO strings   =      0.000 s
  Timing for 1-hole strings =      0.000 s
  Timing for 2-hole strings =      0.000 s
  Timing for 3-hole strings =      0.000 s
  Total timing              =      0.000 s

  ==> FCI Solver <==

    Number of determinants                           4
    Symmetry                                         0
    Multiplicity                                     1
    Number of roots                                  1
    Target root                                      0
    Trial vectors per root                          10

  Allocating memory for the Hamiltonian algorithm. Size: 2 x 2 x 2.   Memory: 0.000000 GB

  ==> FCI Initial Guess <==

  ---------------------------------------------
    Root            Energy     <S^2>   Spin
  ---------------------------------------------
      0      -99.406056113283  0.000  singlet
      1      -99.266201507728  2.000  triplet
      2      -98.863138509588  0.000  singlet
      3      -98.545347906083  0.000  singlet
  ---------------------------------------------
  Timing for initial guess  =      0.000 s

  Projecting out root 1
  ==> Diagonalizing Hamiltonian <==

  ----------------------------------------
    Iter.      Avg. Energy       Delta_E
  ----------------------------------------
      1      -99.406056113283  -9.941e+01
      2      -99.406056113283  +0.000e+00
  ----------------------------------------
  The Davidson-Liu algorithm converged in 3 iterations.

  ==> Root No. 0 <==

    20     -0.94943616
    02      0.31396014

    Total Energy:       -99.406056113283142

  ==> Computing RDMs for Root No. 0 <==

    Timing for 1-RDM: 0.000 s
    Timing for 2-RDM: 0.000 s
    Timing for 3-RDM: 0.000 s

  ==> NATURAL ORBITALS <==

        1A1     1.802858      2A1     0.197142  


       -----------------------------------------------------------------
                            Semi-Canonical Orbitals
         Chenyang Li, Jeffrey B. Schriber and Francesco A. Evangelista
       -----------------------------------------------------------------

  Took 0.001005 s to build Fock matrix

  ==> Checking Fock Matrix Diagonal Blocks <==

    Off-Diag. Elements       Max           2-Norm
    ------------------------------------------------
    Fa actv              0.0348820248   0.0493306326
    Fb actv              0.0348820248   0.0493306326
    ------------------------------------------------
    Fa core              0.0000000000   0.0000000000
    Fb core              0.0000000000   0.0000000000
    ------------------------------------------------
    Fa virt              0.0000149791   0.0000234993
    Fb virt              0.0000149791   0.0000234993
    ------------------------------------------------

  ==> Integral Transformation to Semicanonical Basis <==
    Molecular point group: c2v
    Full point group: C_inf_v

    Geometry (in Angstrom), charge = 0, multiplicity = 1:

       Center              X                  Y                   Z               Mass       
    ------------   -----------------  -----------------  -----------------  -----------------
           F          0.000000000000     0.000000000000    -0.075563346012    18.998403224000
           H          0.000000000000     0.000000000000     1.424436653988     1.007825032070

  -AO BASIS SET INFORMATION:
    Name                   = 3-21G
    Blend                  = 3-21G
    Total number of shells = 7
    Number of primitives   = 12
    Number of AO           = 11
    Number of SO           = 11
    Maximum AM             = 1
    Spherical Harmonics    = FALSE

  -Contraction Scheme:
    Atom   Type   All Primitives // Shells:
   ------ ------ --------------------------
       1     F     6s 3p // 3s 2p 
       2     H     3s // 2s 

  ==> AO Basis Functions <==

    [ 3-21G ]
    cartesian
    ****
    F   1
    S   3 1.00
                       413.80100000           0.05854830
                        62.24460000           0.34930800
                        13.43400000           0.70963200
    S   2 1.00
                         9.77759000          -0.40732700
                         2.08617000           1.22314000
    P   2 1.00
                         9.77759000           0.24668000
                         2.08617000           0.85232100
    S   1 1.00
                         0.48238300           1.00000000
    P   1 1.00
                         0.48238300           1.00000000
    ****
    H   2
    S   2 1.00
                         5.44717800           0.15628500
                         0.82454700           0.90469100
    S   1 1.00
                         0.18319200           1.00000000
    ****


 Integrals are about to be computed.
 Computing the Cholesky Vectors 

    Computing CD Integrals               ......Done. Timing        0.019252 s
 Need 0.000039 GB to store cd integrals in core

 Number of cholesky vectors 43 to satisfy       0.000100000000 tolerance

 Integrals are about to be updated.
  Frozen-core energy            -75.818535537076 a.u.

  FrozenOneBody Operator takes  0.05684800 s
  Resorting integrals after freezing core.
  Frozen Orbitals takes     0.057 s.

  ==> Reference Transformation to Semicanonical Basis <==

    Transformed 1 cumulants.
    Transformed 2 cumulants and RDMs.
    Transformed 3 cumulants.
  SemiCanonicalize takes 0.483249 s.

  ==> Multireference Driven Similarity Renormalization Group <==

    Reading DSRG options ............................ Done
    Setting ambit MO space .......................... Done
    Preparing tensors for density cumulants ......... Done
    Building Fock matrix ............................ Done
    Checking reference energy ....................... Done

           ----------------------------------------------------------
             Multireference Driven Similarity Renormalization Group
                                  Chenyang Li
           ----------------------------------------------------------

  Additional contributions by: Tianyuan Zhang

  ==> Density Cumulant Summary <==

    2-body             AA           AB           BB
    -----------------------------------------------
    max          0.088855     0.294747     0.088855
    norm         0.177709     0.457482     0.177709
    -----------------------------------------------
    3-body            AAA          AAB          ABB          BBB
    ------------------------------------------------------------
    max          0.000000     0.070835     0.070835     0.000000
    norm         0.000000     0.201774     0.201774     0.000000
    ------------------------------------------------------------

  ==> Checking Semicanonical Orbitals <==

    Abs. max of Fock core, active, virtual blocks (Fij, i != j)
                  core          active         virtual
    --------------------------------------------------
    Fα    0.0000000000    0.0000000000    0.0000000000
    Fβ    0.0000000000    0.0000000000    0.0000000000
    --------------------------------------------------

    1-Norm of Fock core, active, virtual blocks (Fij, i != j)
                  core          active         virtual
    --------------------------------------------------
    Fα    0.0000000000    0.0000000000    0.0000000000
    Fβ    0.0000000000    0.0000000000    0.0000000000
    --------------------------------------------------

    Orbitals are semi-canonicalized.

  ==> Calculation Information <==

    ntamp                                            15
    diis_min_vecs                                     2
    diis_max_vecs                                     5
    flow parameter                            1.000e+00
    taylor expansion threshold                1.000e-03
    intruder_tamp                             1.000e-01
    corr_level                                   LDSRG2
    int_type                                   CHOLESKY
    source operator                            STANDARD
    smart_dsrg_s                                 DSRG_S
    reference relaxation                          TWICE
    dsrg transformation type                    UNITARY
    core virtual source type                     NORMAL
    sequential dsrg transformation                FALSE
    omit blocks of >= 3 virtual indices           FALSE


  ==> MR-DSRG Reference Relaxation Iter. 0 <==


  ==> Build Initial Amplitude from DSRG-MRPT2 <==

    Computing T2 amplitudes ...          Done. Timing      0.005 s
    Computing T1 amplitudes ...          Done. Timing      0.001 s

  ==> First-Order Excitation Amplitudes Summary <==

    Active Indices:    1    2 
    Largest T1 amplitudes for spin case A:
       i       a                  i       a                  i       a               
    --------------------------------------------------------------------------------
    [  2       4    ]-0.102482 [  2       3    ]-0.096229 [  0       1    ] 0.039642 
    [  1       4    ]-0.020487 [  1       3    ] 0.007568 [  0       2    ]-0.006770 
    [  2       5    ] 0.004895 [  1       5    ] 0.003080 [  8       9    ] 0.000315 
    [  6       7    ] 0.000315 [  0       3    ]-0.000098 [  0       5    ]-0.000032 
    [  0       4    ] 0.000024 
    --------------------------------------------------------------------------------
    Norm of T1A vector: (nonzero elements: 13)                    0.147954379068893.
    --------------------------------------------------------------------------------
    Largest T1 amplitudes for spin case B:
       _       _                  _       _                  _       _               
       i       a                  i       a                  i       a               
    --------------------------------------------------------------------------------
    [  2       4    ]-0.102482 [  2       3    ]-0.096229 [  0       1    ] 0.039642 
    [  1       4    ]-0.020487 [  1       3    ] 0.007568 [  0       2    ]-0.006770 
    [  2       5    ] 0.004895 [  1       5    ] 0.003080 [  8       9    ] 0.000315 
    [  6       7    ] 0.000315 [  0       3    ]-0.000098 [  0       5    ]-0.000032 
    [  0       4    ] 0.000024 
    --------------------------------------------------------------------------------
    Norm of T1B vector: (nonzero elements: 13)                    0.147954379068893.
    --------------------------------------------------------------------------------
    Largest T2 amplitudes for spin case AA:
       i   j   a   b              i   j   a   b              i   j   a   b           
    --------------------------------------------------------------------------------
    [  1   6   1   7]-0.046847 [  1   8   1   9]-0.046847 [  2   8   1   9]-0.045392 
    [  2   6   1   7]-0.045392 [  2   6   2   7]-0.036069 [  2   8   2   9]-0.036069 
    [  0   1   1   2] 0.034295 [  1   8   2   9]-0.030772 [  1   6   2   7]-0.030772 
    [  1   2   1   3]-0.024606 [  6   8   7   9]-0.024087 [  0   1   1   5]-0.021279 
    [  1   2   1   4]-0.019810 [  2   6   4   7]-0.019572 [  2   8   4   9]-0.019572 
    --------------------------------------------------------------------------------
    Norm of T2AA vector: (nonzero elements: 240)                  0.282242850350137.
    --------------------------------------------------------------------------------
    Largest T2 amplitudes for spin case AB:
           _       _                  _       _                  _       _           
       i   j   a   b              i   j   a   b              i   j   a   b           
    --------------------------------------------------------------------------------
    [  2   2   2   3]-0.075865 [  2   2   1   4]-0.074388 [  0   0   1   1]-0.060156 
    [  2   2   3   3]-0.051716 [  1   2   1   3]-0.050780 [  1   2   1   4]-0.050278 
    [  2   8   1   9]-0.050009 [  2   6   1   7]-0.050009 [  1   6   1   7]-0.048769 
    [  1   8   1   9]-0.048769 [  1   2   2   4]-0.046425 [  2   6   2   7]-0.039894 
    [  2   8   2   9]-0.039894 [  6   6   7   7]-0.036327 [  8   8   9   9]-0.036327 
    --------------------------------------------------------------------------------
    Norm of T2AB vector: (nonzero elements: 405)                  0.349804347272390.
    --------------------------------------------------------------------------------
    Largest T2 amplitudes for spin case BB:
       _   _   _   _              _   _   _   _              _   _   _   _           
       i   j   a   b              i   j   a   b              i   j   a   b           
    --------------------------------------------------------------------------------
    [  1   6   1   7]-0.046847 [  1   8   1   9]-0.046847 [  2   8   1   9]-0.045392 
    [  2   6   1   7]-0.045392 [  2   6   2   7]-0.036069 [  2   8   2   9]-0.036069 
    [  0   1   1   2] 0.034295 [  1   8   2   9]-0.030772 [  1   6   2   7]-0.030772 
    [  1   2   1   3]-0.024606 [  6   8   7   9]-0.024087 [  0   1   1   5]-0.021279 
    [  1   2   1   4]-0.019810 [  2   6   4   7]-0.019572 [  2   8   4   9]-0.019572 
    --------------------------------------------------------------------------------
    Norm of T2BB vector: (nonzero elements: 240)                  0.282242850350137.
    --------------------------------------------------------------------------------

  ==> Possible Intruders <==

    T1 amplitudes larger than 0.1000 for spin case A:
        Amplitude         Value                  Denominator              
    ----------------------------------------------------------------------
    [  2       4    ]   -0.10248160 (  0.076767 -   2.296429 =  -2.219662)
    ----------------------------------------------------------------------
    T1 amplitudes larger than 0.1000 for spin case B:
        Amplitude         Value                  Denominator              
    ----------------------------------------------------------------------
    [  2       4    ]   -0.10248160 (  0.076767 -   2.296429 =  -2.219662)
    ----------------------------------------------------------------------
    T2 amplitudes larger than 0.1000 for spin case AA: NULL
    T2 amplitudes larger than 0.1000 for spin case AB: NULL
    T2 amplitudes larger than 0.1000 for spin case BB: NULL

  ==> Computing MR-LDSRG(2) Energy <==

    Reference:
      J. Chem. Phys. 2016, 144, 164114.

                  Energy (a.u.)           Non-Diagonal Norm        Amplitude RMS         Timings (s)   
           ---------------------------  ---------------------  ---------------------  -----------------
    Iter.        Corr.         Delta       Hbar1      Hbar2        T1         T2        Hbar     Amp.  
    ---------------------------------------------------------------------------------------------------
        0   -0.090472668850 -9.047e-02   1.315e-01  6.321e-01   3.443e-02  1.612e-01    11.890    0.008
        1   -0.092387147304 -1.914e-03   1.346e-01  2.265e-01   1.569e-02  4.212e-02    10.958    0.007
        2   -0.092887576120 -5.004e-04   1.134e-01  1.608e-01   3.312e-03  1.353e-02    10.684    0.009
        3   -0.092901249800 -1.367e-05   1.164e-01  1.613e-01   1.444e-03  4.516e-03    11.115    0.007
        4   -0.092913840256 -1.259e-05   1.149e-01  1.583e-01   3.849e-04  1.442e-03    15.085    0.009
        5   -0.092907376623  6.464e-06   1.153e-01  1.589e-01   1.521e-04  4.758e-04    17.975    0.013 -> DIIS
        6   -0.092908189035 -8.124e-07   1.151e-01  1.586e-01   4.221e-05  1.514e-04    13.681    0.007 -> DIIS
        7   -0.092907112461  1.077e-06   1.151e-01  1.586e-01   1.008e-06  5.545e-06    10.567    0.007 -> DIIS
        8   -0.092907160646 -4.819e-08   1.151e-01  1.586e-01   3.825e-07  1.582e-06    10.654    0.007 -> DIIS
        9   -0.092907161933 -1.287e-09   1.151e-01  1.586e-01   1.076e-07  5.406e-07    10.608    0.007
    ---------------------------------------------------------------------------------------------------

  ==> MR-LDSRG(2) Energy Summary <==

    E0 (reference)                 =     -99.406056113283142
    MR-LDSRG(2) correlation energy =      -0.092907161933194
    MR-LDSRG(2) total energy       =     -99.498963275216340

  ==> Final Excitation Amplitudes Summary <==

    Active Indices:    1    2 
    Largest T1 amplitudes for spin case A:
       i       a                  i       a                  i       a               
    --------------------------------------------------------------------------------
    [  2       4    ]-0.090452 [  2       3    ]-0.088360 [  0       1    ] 0.048845 
    [  1       4    ]-0.014860 [  0       2    ]-0.010771 [  1       3    ] 0.005915 
    [  2       5    ] 0.002639 [  1       5    ] 0.002079 [  0       4    ] 0.000813 
    [  0       3    ] 0.000599 [  0       5    ]-0.000529 [  8       9    ] 0.000129 
    [  6       7    ] 0.000129 
    --------------------------------------------------------------------------------
    Norm of T1A vector: (nonzero elements: 13)                    0.136964901016815.
    --------------------------------------------------------------------------------
    Largest T1 amplitudes for spin case B:
       _       _                  _       _                  _       _               
       i       a                  i       a                  i       a               
    --------------------------------------------------------------------------------
    [  2       4    ]-0.090452 [  2       3    ]-0.088360 [  0       1    ] 0.048845 
    [  1       4    ]-0.014860 [  0       2    ]-0.010771 [  1       3    ] 0.005915 
    [  2       5    ] 0.002639 [  1       5    ] 0.002079 [  0       4    ] 0.000813 
    [  0       3    ] 0.000599 [  0       5    ]-0.000529 [  8       9    ] 0.000129 
    [  6       7    ] 0.000129 
    --------------------------------------------------------------------------------
    Norm of T1B vector: (nonzero elements: 13)                    0.136964901016815.
    --------------------------------------------------------------------------------
    Largest T2 amplitudes for spin case AA:
       i   j   a   b              i   j   a   b              i   j   a   b           
    --------------------------------------------------------------------------------
    [  0   1   1   2] 0.040629 [  1   6   1   7]-0.037847 [  1   8   1   9]-0.037847 
    [  2   8   1   9]-0.029859 [  2   6   1   7]-0.029859 [  1   8   2   9]-0.025586 
    [  1   6   2   7]-0.025586 [  2   6   2   7]-0.024647 [  2   8   2   9]-0.024647 
    [  6   8   7   9]-0.023009 [  1   2   1   3]-0.021356 [  0   2   1   2]-0.016902 
    [  0   1   1   5]-0.016264 [  1   2   2   3]-0.016090 [  1   6   4   7]-0.014377 
    --------------------------------------------------------------------------------
    Norm of T2AA vector: (nonzero elements: 240)                  0.226760108882152.
    --------------------------------------------------------------------------------
    Largest T2 amplitudes for spin case AB:
           _       _                  _       _                  _       _           
       i   j   a   b              i   j   a   b              i   j   a   b           
    --------------------------------------------------------------------------------
    [  0   0   1   1]-0.067783 [  2   2   2   3]-0.060265 [  1   2   1   3]-0.047885 
    [  6   6   7   7]-0.041683 [  8   8   9   9]-0.041683 [  1   6   1   7]-0.041333 
    [  1   8   1   9]-0.041333 [  0   0   1   2]-0.040292 [  2   8   1   9]-0.035304 
    [  2   6   1   7]-0.035304 [  2   2   1   4]-0.035073 [  2   2   3   3]-0.033890 
    [  1   2   2   4]-0.030664 [  2   6   2   7]-0.030491 [  2   8   2   9]-0.030491 
    --------------------------------------------------------------------------------
    Norm of T2AB vector: (nonzero elements: 405)                  0.298334065682556.
    --------------------------------------------------------------------------------
    Largest T2 amplitudes for spin case BB:
       _   _   _   _              _   _   _   _              _   _   _   _           
       i   j   a   b              i   j   a   b              i   j   a   b           
    --------------------------------------------------------------------------------
    [  0   1   1   2] 0.040629 [  1   6   1   7]-0.037847 [  1   8   1   9]-0.037847 
    [  2   8   1   9]-0.029859 [  2   6   1   7]-0.029859 [  1   8   2   9]-0.025586 
    [  1   6   2   7]-0.025586 [  2   6   2   7]-0.024647 [  2   8   2   9]-0.024647 
    [  6   8   7   9]-0.023009 [  1   2   1   3]-0.021356 [  0   2   1   2]-0.016902 
    [  0   1   1   5]-0.016264 [  1   2   2   3]-0.016090 [  1   8   4   9]-0.014377 
    --------------------------------------------------------------------------------
    Norm of T2BB vector: (nonzero elements: 240)                  0.226760108882152.
    --------------------------------------------------------------------------------

  ==> Possible Intruders <==

    T1 amplitudes larger than 0.1000 for spin case A: NULL
    T1 amplitudes larger than 0.1000 for spin case B: NULL
    T2 amplitudes larger than 0.1000 for spin case AA: NULL
    T2 amplitudes larger than 0.1000 for spin case AB: NULL
    T2 amplitudes larger than 0.1000 for spin case BB: NULL

  ==> De-Normal-Order DSRG Transformed Hamiltonian <==

    Computing the scalar term                ... Done. Timing    0.007 s
    Computing the 1-body term                ... Done. Timing    0.004 s

  ==> Rotate DSRG Transformed Hamiltonian back to Original Basis <==

    Rotating 1-body term to original basis   ... Done. Timing    0.000 s
    Rotating 2-body term to original basis   ... Done. Timing    0.008 s

                -----------------------------------------------
                  String-based Full Configuration Interaction
                          by Francesco A. Evangelista
                -----------------------------------------------

  Number of electrons: 10
  Charge: 0
  Multiplicity: 1
  Davidson subspace max dim: 8
  Davidson subspace min dim: 2
  M_s: 0

  ==> String Lists <==

  Number of alpha electrons     = 1
  Number of beta electrons      = 1
  Number of alpha strings       = 2
  Number of beta strings        = 2
  Timing for strings        =      0.000 s
  Timing for NN strings     =      0.000 s
  Timing for VO strings     =      0.000 s
  Timing for OO strings     =      0.000 s
  Timing for VVOO strings   =      0.000 s
  Timing for VOVO strings   =      0.000 s
  Timing for 1-hole strings =      0.000 s
  Timing for 2-hole strings =      0.000 s
  Timing for 3-hole strings =      0.000 s
  Total timing              =      0.000 s

  ==> FCI Solver <==

    Number of determinants                           4
    Symmetry                                         0
    Multiplicity                                     1
    Number of roots                                  1
    Target root                                      0
    Trial vectors per root                          10

  Allocating memory for the Hamiltonian algorithm. Size: 2 x 2 x 2.   Memory: 0.000000 GB

  ==> FCI Initial Guess <==

  ---------------------------------------------
    Root            Energy     <S^2>   Spin
  ---------------------------------------------
      0      -99.500375590817  0.000  singlet
      1      -99.368922816014  2.000  triplet
      2      -99.096059903821  0.000  singlet
      3      -98.769108958108  0.000  singlet
  ---------------------------------------------
  Timing for initial guess  =      0.000 s

  Projecting out root 1
  ==> Diagonalizing Hamiltonian <==

  ----------------------------------------
    Iter.      Avg. Energy       Delta_E
  ----------------------------------------
      1      -99.500375590817  -9.950e+01
      2      -99.500375590817  +0.000e+00
  ----------------------------------------
  The Davidson-Liu algorithm converged in 3 iterations.

  ==> Root No. 0 <==

    20      0.96246119
    02     -0.27000004

    Total Energy:       -99.500375590817413

  ==> Computing RDMs for Root No. 0 <==

    Timing for 1-RDM: 0.000 s
    Timing for 2-RDM: 0.000 s
    Timing for 3-RDM: 0.000 s

  ==> NATURAL ORBITALS <==

        1A1     1.853863      2A1     0.146137  

  The following reference rotation will make the new reference and integrals in the same basis.

  ==> Reference Transformation to Semicanonical Basis <==

    Transformed 1 cumulants.
    Transformed 2 cumulants and RDMs.
    Transformed 3 cumulants.

  ==> Semicanonicalize Orbitals <==

  Took 0.000723 s to build Fock matrix

  ==> Checking Fock Matrix Diagonal Blocks <==

    Off-Diag. Elements       Max           2-Norm
    ------------------------------------------------
    Fa actv              0.0039898546   0.0056425065
    Fb actv              0.0039898546   0.0056425065
    ------------------------------------------------
    Fa core              0.0000000000   0.0000000000
    Fb core              0.0000000000   0.0000000000
    ------------------------------------------------
    Fa virt              0.0020550105   0.0047863423
    Fb virt              0.0020550105   0.0047863423
    ------------------------------------------------

  ==> Integral Transformation to Semicanonical Basis <==
    Molecular point group: c2v
    Full point group: C_inf_v

    Geometry (in Angstrom), charge = 0, multiplicity = 1:

       Center              X                  Y                   Z               Mass       
    ------------   -----------------  -----------------  -----------------  -----------------
           F          0.000000000000     0.000000000000    -0.075563346012    18.998403224000
           H          0.000000000000     0.000000000000     1.424436653988     1.007825032070

  -AO BASIS SET INFORMATION:
    Name                   = 3-21G
    Blend                  = 3-21G
    Total number of shells = 7
    Number of primitives   = 12
    Number of AO           = 11
    Number of SO           = 11
    Maximum AM             = 1
    Spherical Harmonics    = FALSE

  -Contraction Scheme:
    Atom   Type   All Primitives // Shells:
   ------ ------ --------------------------
       1     F     6s 3p // 3s 2p 
       2     H     3s // 2s 

  ==> AO Basis Functions <==

    [ 3-21G ]
    cartesian
    ****
    F   1
    S   3 1.00
                       413.80100000           0.05854830
                        62.24460000           0.34930800
                        13.43400000           0.70963200
    S   2 1.00
                         9.77759000          -0.40732700
                         2.08617000           1.22314000
    P   2 1.00
                         9.77759000           0.24668000
                         2.08617000           0.85232100
    S   1 1.00
                         0.48238300           1.00000000
    P   1 1.00
                         0.48238300           1.00000000
    ****
    H   2
    S   2 1.00
                         5.44717800           0.15628500
                         0.82454700           0.90469100
    S   1 1.00
                         0.18319200           1.00000000
    ****


 Integrals are about to be computed.
 Computing the Cholesky Vectors 

    Computing CD Integrals               ......Done. Timing        0.020718 s
 Need 0.000039 GB to store cd integrals in core

 Number of cholesky vectors 43 to satisfy       0.000100000000 tolerance

 Integrals are about to be updated.
  Frozen-core energy            -75.818535537076 a.u.

  FrozenOneBody Operator takes  0.06009400 s
  Resorting integrals after freezing core.
  Frozen Orbitals takes     0.060 s.

  ==> Reference Transformation to Semicanonical Basis <==

    Transformed 1 cumulants.
    Transformed 2 cumulants and RDMs.
    Transformed 3 cumulants.
  SemiCanonicalize takes 0.488008 s.

  ==> Density Cumulant Summary <==

    2-body             AA           AB           BB
    -----------------------------------------------
    max          0.067729     0.259176     0.067729
    norm         0.135459     0.392184     0.135459
    -----------------------------------------------
    3-body            AAA          AAB          ABB          BBB
    ------------------------------------------------------------
    max          0.000000     0.057675     0.057675     0.000000
    norm         0.000000     0.163573     0.163573     0.000000
    ------------------------------------------------------------

  ==> MR-DSRG Reference Relaxation Iter. 1 <==


  ==> Build Initial Amplitude from DSRG-MRPT2 <==

    Computing T2 amplitudes ...          Done. Timing      0.005 s
    Computing T1 amplitudes ...          Done. Timing      0.001 s

  ==> First-Order Excitation Amplitudes Summary <==

    Active Indices:    1    2 
    Largest T1 amplitudes for spin case A:
       i       a                  i       a                  i       a               
    --------------------------------------------------------------------------------
    [  2       4    ] 0.105136 [  2       3    ] 0.095011 [  0       1    ]-0.041035 
    [  1       4    ] 0.020386 [  1       3    ]-0.007342 [  0       2    ] 0.007219 
    [  2       5    ]-0.005492 [  1       5    ]-0.003135 [  6       7    ]-0.001910 
    [  8       9    ]-0.001910 [  0       5    ] 0.001100 [  0       4    ]-0.000075 
    [  0       3    ]-0.000066 
    --------------------------------------------------------------------------------
    Norm of T1A vector: (nonzero elements: 13)                    0.149447714096916.
    --------------------------------------------------------------------------------
    Largest T1 amplitudes for spin case B:
       _       _                  _       _                  _       _               
       i       a                  i       a                  i       a               
    --------------------------------------------------------------------------------
    [  2       4    ] 0.105136 [  2       3    ] 0.095011 [  0       1    ]-0.041035 
    [  1       4    ] 0.020386 [  1       3    ]-0.007342 [  0       2    ] 0.007219 
    [  2       5    ]-0.005492 [  1       5    ]-0.003135 [  6       7    ]-0.001910 
    [  8       9    ]-0.001910 [  0       5    ] 0.001100 [  0       4    ]-0.000075 
    [  0       3    ]-0.000066 
    --------------------------------------------------------------------------------
    Norm of T1B vector: (nonzero elements: 13)                    0.149447714096916.
    --------------------------------------------------------------------------------
    Largest T2 amplitudes for spin case AA:
       i   j   a   b              i   j   a   b              i   j   a   b           
    --------------------------------------------------------------------------------
    [  1   8   1   9]-0.046379 [  1   6   1   7]-0.046379 [  2   8   1   9]-0.045772 
    [  2   6   1   7]-0.045772 [  2   6   2   7]-0.036568 [  2   8   2   9]-0.036568 
    [  0   1   1   2]-0.034460 [  1   6   2   7]-0.030709 [  1   8   2   9]-0.030709 
    [  1   2   1   3] 0.024428 [  6   8   7   9]-0.024097 [  0   1   1   5]-0.021063 
    [  1   2   1   4] 0.019726 [  2   6   4   7] 0.019690 [  2   8   4   9] 0.019690 
    --------------------------------------------------------------------------------
    Norm of T2AA vector: (nonzero elements: 240)                  0.282509177443721.
    --------------------------------------------------------------------------------
    Largest T2 amplitudes for spin case AB:
           _       _                  _       _                  _       _           
       i   j   a   b              i   j   a   b              i   j   a   b           
    --------------------------------------------------------------------------------
    [  2   2   1   4] 0.075082 [  2   2   2   3] 0.074801 [  0   0   1   1]-0.060630 
    [  2   2   3   3]-0.052067 [  1   2   1   3] 0.050808 [  2   8   1   9]-0.050403 
    [  2   6   1   7]-0.050403 [  1   2   1   4] 0.049764 [  1   8   1   9]-0.048260 
    [  1   6   1   7]-0.048260 [  1   2   2   4] 0.046377 [  2   6   2   7]-0.040437 
    [  2   8   2   9]-0.040437 [  6   6   7   7]-0.036341 [  8   8   9   9]-0.036341 
    --------------------------------------------------------------------------------
    Norm of T2AB vector: (nonzero elements: 405)                  0.349784292152580.
    --------------------------------------------------------------------------------
    Largest T2 amplitudes for spin case BB:
       _   _   _   _              _   _   _   _              _   _   _   _           
       i   j   a   b              i   j   a   b              i   j   a   b           
    --------------------------------------------------------------------------------
    [  1   8   1   9]-0.046379 [  1   6   1   7]-0.046379 [  2   8   1   9]-0.045772 
    [  2   6   1   7]-0.045772 [  2   6   2   7]-0.036568 [  2   8   2   9]-0.036568 
    [  0   1   1   2]-0.034460 [  1   6   2   7]-0.030709 [  1   8   2   9]-0.030709 
    [  1   2   1   3] 0.024428 [  6   8   7   9]-0.024097 [  0   1   1   5]-0.021063 
    [  1   2   1   4] 0.019726 [  2   6   4   7] 0.019690 [  2   8   4   9] 0.019690 
    --------------------------------------------------------------------------------
    Norm of T2BB vector: (nonzero elements: 240)                  0.282509177443721.
    --------------------------------------------------------------------------------

  ==> Possible Intruders <==

    T1 amplitudes larger than 0.1000 for spin case A:
        Amplitude         Value                  Denominator              
    ----------------------------------------------------------------------
    [  2       4    ]    0.10513578 (  0.086077 -   2.310351 =  -2.224274)
    ----------------------------------------------------------------------
    T1 amplitudes larger than 0.1000 for spin case B:
        Amplitude         Value                  Denominator              
    ----------------------------------------------------------------------
    [  2       4    ]    0.10513578 (  0.086077 -   2.310351 =  -2.224274)
    ----------------------------------------------------------------------
    T2 amplitudes larger than 0.1000 for spin case AA: NULL
    T2 amplitudes larger than 0.1000 for spin case AB: NULL
    T2 amplitudes larger than 0.1000 for spin case BB: NULL

  ==> Computing MR-LDSRG(2) Energy <==

    Reference:
      J. Chem. Phys. 2016, 144, 164114.

                  Energy (a.u.)           Non-Diagonal Norm        Amplitude RMS         Timings (s)   
           ---------------------------  ---------------------  ---------------------  -----------------
    Iter.        Corr.         Delta       Hbar1      Hbar2        T1         T2        Hbar     Amp.  
    ---------------------------------------------------------------------------------------------------
        0   -0.093655776187 -9.366e-02   1.370e-01  6.383e-01   3.535e-02  1.638e-01    11.497    0.007
        1   -0.095366496863 -1.711e-03   1.381e-01  2.328e-01   1.547e-02  4.370e-02    11.834    0.007
        2   -0.095840725013 -4.742e-04   1.176e-01  1.645e-01   3.183e-03  1.404e-02    12.345    0.009
        3   -0.095838986835  1.738e-06   1.205e-01  1.653e-01   1.400e-03  4.711e-03    12.163    0.007
        4   -0.095855639802 -1.665e-05   1.191e-01  1.621e-01   3.683e-04  1.496e-03    11.731    0.008
        5   -0.095848199683  7.440e-06   1.194e-01  1.627e-01   1.472e-04  4.925e-04    10.801    0.008 -> DIIS
        6   -0.095849540418 -1.341e-06   1.193e-01  1.624e-01   4.043e-05  1.558e-04    10.968    0.007 -> DIIS
        7   -0.095848409926  1.130e-06   1.193e-01  1.625e-01   1.399e-06  5.767e-06    11.371    0.008 -> DIIS
        8   -0.095848433828 -2.390e-08   1.193e-01  1.625e-01   4.128e-07  1.544e-06    13.260    0.010 -> DIIS
        9   -0.095848429865  3.963e-09   1.193e-01  1.625e-01   1.236e-07  4.906e-07    11.285    0.006
    ---------------------------------------------------------------------------------------------------

  ==> MR-LDSRG(2) Energy Summary <==

    E0 (reference)                 =     -99.404255963878228
    MR-LDSRG(2) correlation energy =      -0.095848429864860
    MR-LDSRG(2) total energy       =     -99.500104393743086

  ==> Final Excitation Amplitudes Summary <==

    Active Indices:    1    2 
    Largest T1 amplitudes for spin case A:
       i       a                  i       a                  i       a               
    --------------------------------------------------------------------------------
    [  2       4    ] 0.092295 [  2       3    ] 0.086869 [  0       1    ]-0.050332 
    [  1       4    ] 0.014922 [  0       2    ] 0.010995 [  1       3    ]-0.005507 
    [  2       5    ]-0.003016 [  1       5    ]-0.002123 [  6       7    ]-0.001529 
    [  8       9    ]-0.001529 [  0       4    ] 0.000669 [  0       3    ] 0.000585 
    [  0       5    ] 0.000330 
    --------------------------------------------------------------------------------
    Norm of T1A vector: (nonzero elements: 13)                    0.137807726570177.
    --------------------------------------------------------------------------------
    Largest T1 amplitudes for spin case B:
       _       _                  _       _                  _       _               
       i       a                  i       a                  i       a               
    --------------------------------------------------------------------------------
    [  2       4    ] 0.092295 [  2       3    ] 0.086869 [  0       1    ]-0.050332 
    [  1       4    ] 0.014922 [  0       2    ] 0.010995 [  1       3    ]-0.005507 
    [  2       5    ]-0.003016 [  1       5    ]-0.002123 [  6       7    ]-0.001529 
    [  8       9    ]-0.001529 [  0       4    ] 0.000669 [  0       3    ] 0.000585 
    [  0       5    ] 0.000330 
    --------------------------------------------------------------------------------
    Norm of T1B vector: (nonzero elements: 13)                    0.137807726570177.
    --------------------------------------------------------------------------------
    Largest T2 amplitudes for spin case AA:
       i   j   a   b              i   j   a   b              i   j   a   b           
    --------------------------------------------------------------------------------
    [  0   1   1   2]-0.040735 [  1   8   1   9]-0.037443 [  1   6   1   7]-0.037443 
    [  2   8   1   9]-0.029882 [  2   6   1   7]-0.029882 [  1   6   2   7]-0.025644 
    [  1   8   2   9]-0.025644 [  2   6   2   7]-0.024917 [  2   8   2   9]-0.024917 
    [  6   8   7   9]-0.022992 [  1   2   1   3] 0.021210 [  0   2   1   2] 0.016587 
    [  1   2   2   3] 0.016393 [  0   1   1   5]-0.016079 [  1   8   4   9] 0.014249 
    --------------------------------------------------------------------------------
    Norm of T2AA vector: (nonzero elements: 240)                  0.226425571541732.
    --------------------------------------------------------------------------------
    Largest T2 amplitudes for spin case AB:
           _       _                  _       _                  _       _           
       i   j   a   b              i   j   a   b              i   j   a   b           
    --------------------------------------------------------------------------------
    [  0   0   1   1]-0.067092 [  2   2   2   3] 0.058817 [  1   2   1   3] 0.047446 
    [  8   8   9   9]-0.041679 [  6   6   7   7]-0.041679 [  1   8   1   9]-0.040872 
    [  1   6   1   7]-0.040872 [  0   0   1   2]-0.040429 [  2   8   1   9]-0.035252 
    [  2   6   1   7]-0.035252 [  2   2   1   4] 0.035053 [  2   2   3   3]-0.033839 
    [  2   6   2   7]-0.030814 [  2   8   2   9]-0.030814 [  1   2   2   4] 0.030751 
    --------------------------------------------------------------------------------
    Norm of T2AB vector: (nonzero elements: 405)                  0.297213354932922.
    --------------------------------------------------------------------------------
    Largest T2 amplitudes for spin case BB:
       _   _   _   _              _   _   _   _              _   _   _   _           
       i   j   a   b              i   j   a   b              i   j   a   b           
    --------------------------------------------------------------------------------
    [  0   1   1   2]-0.040735 [  1   8   1   9]-0.037443 [  1   6   1   7]-0.037443 
    [  2   8   1   9]-0.029882 [  2   6   1   7]-0.029882 [  1   8   2   9]-0.025644 
    [  1   6   2   7]-0.025644 [  2   8   2   9]-0.024917 [  2   6   2   7]-0.024917 
    [  6   8   7   9]-0.022992 [  1   2   1   3] 0.021210 [  0   2   1   2] 0.016587 
    [  1   2   2   3] 0.016393 [  0   1   1   5]-0.016079 [  1   8   4   9] 0.014249 
    --------------------------------------------------------------------------------
    Norm of T2BB vector: (nonzero elements: 240)                  0.226425571541732.
    --------------------------------------------------------------------------------

  ==> Possible Intruders <==

    T1 amplitudes larger than 0.1000 for spin case A: NULL
    T1 amplitudes larger than 0.1000 for spin case B: NULL
    T2 amplitudes larger than 0.1000 for spin case AA: NULL
    T2 amplitudes larger than 0.1000 for spin case AB: NULL
    T2 amplitudes larger than 0.1000 for spin case BB: NULL

  ==> De-Normal-Order DSRG Transformed Hamiltonian <==

    Computing the scalar term                ... Done. Timing    0.004 s
    Computing the 1-body term                ... Done. Timing    0.002 s

  ==> Rotate DSRG Transformed Hamiltonian back to Original Basis <==

    Rotating 1-body term to original basis   ... Done. Timing    0.000 s
    Rotating 2-body term to original basis   ... Done. Timing    0.004 s

                -----------------------------------------------
                  String-based Full Configuration Interaction
                          by Francesco A. Evangelista
                -----------------------------------------------

  Number of electrons: 10
  Charge: 0
  Multiplicity: 1
  Davidson subspace max dim: 8
  Davidson subspace min dim: 2
  M_s: 0

  ==> String Lists <==

  Number of alpha electrons     = 1
  Number of beta electrons      = 1
  Number of alpha strings       = 2
  Number of beta strings        = 2
  Timing for strings        =      0.000 s
  Timing for NN strings     =      0.000 s
  Timing for VO strings     =      0.000 s
  Timing for OO strings     =      0.000 s
  Timing for VVOO strings   =      0.000 s
  Timing for VOVO strings   =      0.000 s
  Timing for 1-hole strings =      0.000 s
  Timing for 2-hole strings =      0.000 s
  Timing for 3-hole strings =      0.000 s
  Total timing              =      0.000 s

  ==> FCI Solver <==

    Number of determinants                           4
    Symmetry                                         0
    Multiplicity                                     1
    Number of roots                                  1
    Target root                                      0
    Trial vectors per root                          10

  Allocating memory for the Hamiltonian algorithm. Size: 2 x 2 x 2.   Memory: 0.000000 GB

  ==> FCI Initial Guess <==

  ---------------------------------------------
    Root            Energy     <S^2>   Spin
  ---------------------------------------------
      0      -99.500105252603  0.000  singlet
      1      -99.368115729222  2.000  triplet
      2      -99.094645691375  0.000  singlet
      3      -98.767539012096  0.000  singlet
  ---------------------------------------------
  Timing for initial guess  =      0.000 s

  Projecting out root 1
  ==> Diagonalizing Hamiltonian <==

  ----------------------------------------
    Iter.      Avg. Energy       Delta_E
  ----------------------------------------
      1      -99.500105252603  -9.950e+01
      2      -99.500105252603  -2.842e-14
  ----------------------------------------
  The Davidson-Liu algorithm converged in 3 iterations.

  ==> Root No. 0 <==

    20      0.96078938
    02     -0.26690877

    Total Energy:       -99.500105252602651

  ==> Computing RDMs for Root No. 0 <==

    Timing for 1-RDM: 0.000 s
    Timing for 2-RDM: 0.000 s
    Timing for 3-RDM: 0.000 s

  ==> NATURAL ORBITALS <==

        1A1     1.855060      2A1     0.144940  

  The following reference rotation will make the new reference and integrals in the same basis.

  ==> Reference Transformation to Semicanonical Basis <==

    Transformed 1 cumulants.
    Transformed 2 cumulants and RDMs.
    Transformed 3 cumulants.

  ==> Semicanonicalize Orbitals <==

  Took 0.000854 s to build Fock matrix

  ==> Checking Fock Matrix Diagonal Blocks <==

    Off-Diag. Elements       Max           2-Norm
    ------------------------------------------------
    Fa actv              0.0000869696   0.0001229936
    Fb actv              0.0000869696   0.0001229936
    ------------------------------------------------
    Fa core              0.0000000000   0.0000000000
    Fb core              0.0000000000   0.0000000000
    ------------------------------------------------
    Fa virt              0.0000433160   0.0001008788
    Fb virt              0.0000433160   0.0001008788
    ------------------------------------------------

  ==> Integral Transformation to Semicanonical Basis <==
    Molecular point group: c2v
    Full point group: C_inf_v

    Geometry (in Angstrom), charge = 0, multiplicity = 1:

       Center              X                  Y                   Z               Mass       
    ------------   -----------------  -----------------  -----------------  -----------------
           F          0.000000000000     0.000000000000    -0.075563346012    18.998403224000
           H          0.000000000000     0.000000000000     1.424436653988     1.007825032070

  -AO BASIS SET INFORMATION:
    Name                   = 3-21G
    Blend                  = 3-21G
    Total number of shells = 7
    Number of primitives   = 12
    Number of AO           = 11
    Number of SO           = 11
    Maximum AM             = 1
    Spherical Harmonics    = FALSE

  -Contraction Scheme:
    Atom   Type   All Primitives // Shells:
   ------ ------ --------------------------
       1     F     6s 3p // 3s 2p 
       2     H     3s // 2s 

  ==> AO Basis Functions <==

    [ 3-21G ]
    cartesian
    ****
    F   1
    S   3 1.00
                       413.80100000           0.05854830
                        62.24460000           0.34930800
                        13.43400000           0.70963200
    S   2 1.00
                         9.77759000          -0.40732700
                         2.08617000           1.22314000
    P   2 1.00
                         9.77759000           0.24668000
                         2.08617000           0.85232100
    S   1 1.00
                         0.48238300           1.00000000
    P   1 1.00
                         0.48238300           1.00000000
    ****
    H   2
    S   2 1.00
                         5.44717800           0.15628500
                         0.82454700           0.90469100
    S   1 1.00
                         0.18319200           1.00000000
    ****


 Integrals are about to be computed.
 Computing the Cholesky Vectors 

    Computing CD Integrals               ......Done. Timing        0.022113 s
 Need 0.000039 GB to store cd integrals in core

 Number of cholesky vectors 43 to satisfy       0.000100000000 tolerance

 Integrals are about to be updated.
  Frozen-core energy            -75.818535537076 a.u.

  FrozenOneBody Operator takes  0.06014300 s
  Resorting integrals after freezing core.
  Frozen Orbitals takes     0.060 s.

  ==> Reference Transformation to Semicanonical Basis <==

    Transformed 1 cumulants.
    Transformed 2 cumulants and RDMs.
    Transformed 3 cumulants.
  SemiCanonicalize takes 0.506067 s.

  ==> Density Cumulant Summary <==

    2-body             AA           AB           BB
    -----------------------------------------------
    max          0.067218     0.258223     0.067218
    norm         0.134437     0.390525     0.134437
    -----------------------------------------------
    3-body            AAA          AAB          ABB          BBB
    ------------------------------------------------------------
    max          0.000000     0.057323     0.057323     0.000000
    norm         0.000000     0.162566     0.162566     0.000000
    ------------------------------------------------------------

  ==> MRDSRG Reference Relaxation Summary <==

                  Fixed Ref. (a.u.)               Relaxed Ref. (a.u.)      
           -------------------------------  -------------------------------
    Iter.      Total Energy        Delta        Total Energy        Delta  
    -----------------------------------------------------------------------
        0      -99.498963275216 -9.950e+01      -99.500375590817 -9.950e+01
        1      -99.500104393743 -1.141e-03      -99.500105252603  2.703e-04
    -----------------------------------------------------------------------
    MRDSRG Total Energy            =     -99.500104393743086
    MRDSRG Total Energy (relaxed)  =     -99.500105252602651


  ==> Total Timings (s) for Computing Commutators <==

             [H1, T1]    [H1, T2]    [H2, T1]    [H2, T2]
    -----------------------------------------------------
    -> C0       0.274       0.521       1.396      22.175
    -> C1       0.572       3.135       4.981      64.084
    -> C2                  10.261      22.090     127.387
    -----------------------------------------------------
	MRDSRG unrelaxed energy...........................................PASSED
	MRDSRG partially relaxed energy...................................PASSED
	MRDSRG relaxed energy.............................................PASSED

    Psi4 stopped on: Thursday, 05 July 2018 07:19PM
    Psi4 wall time for execution: 0:04:24.85

*** Psi4 exiting successfully. Buy a developer a beer!
