
    -----------------------------------------------------------------------
          Psi4: An Open-Source Ab Initio Electronic Structure Package
                               Psi4 1.4a2.dev546 

                         Git: Rev {HEAD} 9701d60 


    R. M. Parrish, L. A. Burns, D. G. A. Smith, A. C. Simmonett,
    A. E. DePrince III, E. G. Hohenstein, U. Bozkaya, A. Yu. Sokolov,
    R. Di Remigio, R. M. Richard, J. F. Gonthier, A. M. James,
    H. R. McAlexander, A. Kumar, M. Saitow, X. Wang, B. P. Pritchard,
    P. Verma, H. F. Schaefer III, K. Patkowski, R. A. King, E. F. Valeev,
    F. A. Evangelista, J. M. Turney, T. D. Crawford, and C. D. Sherrill,
    J. Chem. Theory Comput. 13(7) pp 3185--3197 (2017).
    (doi: 10.1021/acs.jctc.7b00174)


                         Additional Contributions by
    P. Kraus, H. Kruse, M. H. Lechner, M. C. Schieber, R. A. Shaw,
    A. Alenaizan, R. Galvelis, Z. L. Glick, S. Lehtola, and J. P. Misiewicz

    -----------------------------------------------------------------------


    Psi4 started on: Tuesday, 30 June 2020 07:08PM

    Process ID: 34230
    Host:       Yorks-Mac.local
    PSIDATADIR: /Users/york/src/psi4new/psi4/share/psi4
    Memory:     500.0 MiB
    Threads:    1
    
  ==> Input File <==

--------------------------------------------------------------------------
#! Generated using commit GITCOMMIT

import forte

refrhf  = -108.867618373021401
refdsrg = -109.100877299246122

memory 500 mb

molecule N2{
  0 1
  N
  N  1 R
  R = 1.1
}

set globals{
   basis                   6-31g
   reference               rhf
   scf_type                pk
   d_convergence           8
   e_convergence           12
}

set forte{
   active_space_solver    fci
   correlation_solver     mrdsrg
   corr_level             ldsrg2
   restricted_docc        [2,0,0,0,0,2,0,0]
   active                 [1,0,1,1,0,1,1,1]
   dsrg_s                 1.0
   e_convergence          8
   r_convergence          7
   dsrg_read_amps         true
}

Escf, wfn = energy('scf', return_wfn=True)
compare_values(refrhf, Escf, 10, "SCF energy")

# fix orbital phase
Ca = wfn.Ca().clone()
nirrep = wfn.nirrep()
coldim = Ca.coldim()
rowdim = Ca.rowdim()
for h in range(nirrep):
    for i in range(coldim[h]):
        v = Ca.get(h, 0, i)
        if v < 0:
            for j in range(rowdim[h]):
                Ca.set(h, j, i, -1.0 * Ca.get(h, j, i))
wfn.Ca().copy(Ca)

energy('forte', ref_wfn=wfn)
compare_values(refdsrg, variable("CURRENT ENERGY"), 8, "MR-LDSRG(2) unrelaxed energy")
--------------------------------------------------------------------------

  Memory set to 476.837 MiB by Python driver.

Scratch directory: /Users/york/scratch/psi4/

*** tstart() called on Yorks-Mac.local
*** at Tue Jun 30 19:09:00 2020

   => Loading Basis Set <=

    Name: 6-31G
    Role: ORBITAL
    Keyword: BASIS
    atoms 1-2 entry N          line   102 file /Users/york/src/psi4new/psi4/share/psi4/basis/6-31g.gbs 


         ---------------------------------------------------------
                                   SCF
               by Justin Turney, Rob Parrish, Andy Simmonett
                          and Daniel G. A. Smith
                              RHF Reference
                        1 Threads,    476 MiB Core
         ---------------------------------------------------------

  ==> Geometry <==

    Molecular point group: d2h
    Full point group: D_inf_h

    Geometry (in Angstrom), charge = 0, multiplicity = 1:

       Center              X                  Y                   Z               Mass       
    ------------   -----------------  -----------------  -----------------  -----------------
         N            0.000000000000     0.000000000000    -0.550000000000    14.003074004430
         N            0.000000000000     0.000000000000     0.550000000000    14.003074004430

  Running in d2h symmetry.

  Rotational constants: A = ************  B =      1.98984  C =      1.98984 [cm^-1]
  Rotational constants: A = ************  B =  59653.84489  C =  59653.84489 [MHz]
  Nuclear repulsion =   23.572439384390908

  Charge       = 0
  Multiplicity = 1
  Electrons    = 14
  Nalpha       = 7
  Nbeta        = 7

  ==> Algorithm <==

  SCF Algorithm Type is PK.
  DIIS enabled.
  MOM disabled.
  Fractional occupation disabled.
  Guess Type is SAD.
  Energy threshold   = 1.00e-12
  Density threshold  = 1.00e-08
  Integral threshold = 0.00e+00

  ==> Primary Basis <==

  Basis Set: 6-31G
    Blend: 6-31G
    Number of shells: 10
    Number of basis function: 18
    Number of Cartesian functions: 18
    Spherical Harmonics?: false
    Max angular momentum: 1

  ==> Integral Setup <==

  Using in-core PK algorithm.
   Calculation information:
      Number of atoms:                   2
      Number of AO shells:              10
      Number of primitives:             28
      Number of atomic orbitals:        18
      Number of basis functions:        18

      Integral cutoff                 1.00e-12
      Number of threads:                 1

  Performing in-core PK
  Using 29412 doubles for integral storage.
  We computed 1540 shell quartets total.
  Whereas there are 1540 unique shell quartets.

  ==> DiskJK: Disk-Based J/K Matrices <==

    J tasked:                  Yes
    K tasked:                  Yes
    wK tasked:                  No
    Memory [MiB]:              357
    Schwarz Cutoff:          1E-12

    OpenMP threads:              1

  Minimum eigenvalue in the overlap matrix is 1.4896792601E-02.
  Reciprocal condition number of the overlap matrix is 5.0517722279E-03.
    Using symmetric orthogonalization.

  ==> Pre-Iterations <==

  SCF Guess: Superposition of Atomic Densities via on-the-fly atomic UHF (no occupation information).

   -------------------------
    Irrep   Nso     Nmo    
   -------------------------
     Ag         5       5 
     B1g        0       0 
     B2g        2       2 
     B3g        2       2 
     Au         0       0 
     B1u        5       5 
     B2u        2       2 
     B3u        2       2 
   -------------------------
    Total      18      18
   -------------------------

  ==> Iterations <==

                        Total Energy        Delta E     RMS |[F,P]|

   @RHF iter SAD:  -108.05840575690013   -1.08058e+02   0.00000e+00 
   @RHF iter   1:  -108.86039484885889   -8.01989e-01   1.27146e-02 DIIS
   @RHF iter   2:  -108.86720008397226   -6.80524e-03   2.79346e-03 DIIS
   @RHF iter   3:  -108.86760924882725   -4.09165e-04   4.41808e-04 DIIS
   @RHF iter   4:  -108.86761809720220   -8.84837e-06   7.14103e-05 DIIS
   @RHF iter   5:  -108.86761836278758   -2.65585e-07   1.38598e-05 DIIS
   @RHF iter   6:  -108.86761837301349   -1.02259e-08   4.26430e-07 DIIS
   @RHF iter   7:  -108.86761837302141   -7.92966e-12   1.91115e-08 DIIS
   @RHF iter   8:  -108.86761837302141    0.00000e+00   1.64330e-09 DIIS
  Energy and wave function converged.


  ==> Post-Iterations <==

    Orbital Energies [Eh]
    ---------------------

    Doubly Occupied:                                                      

       1Ag   -15.718623     1B1u  -15.715262     2Ag    -1.525346  
       2B1u   -0.775804     3Ag    -0.629380     1B3u   -0.621235  
       1B2u   -0.621235  

    Virtual:                                                              

       1B2g    0.149789     1B3g    0.149789     3B1u    0.588291  
       4Ag     0.787286     2B3u    0.848179     2B2u    0.848179  
       5Ag     0.944250     2B3g    1.009518     2B2g    1.009518  
       4B1u    1.151183     5B1u    1.567432  

    Final Occupation by Irrep:
             Ag   B1g   B2g   B3g    Au   B1u   B2u   B3u 
    DOCC [     3,    0,    0,    0,    0,    2,    1,    1 ]

  @RHF Final Energy:  -108.86761837302141

   => Energetics <=

    Nuclear Repulsion Energy =             23.5724393843909077
    One-Electron Energy =                -193.6663466424256228
    Two-Electron Energy =                  61.2262888850132896
    Total Energy =                       -108.8676183730214149

Computation Completed


Properties will be evaluated at   0.000000,   0.000000,   0.000000 [a0]

Properties computed using the SCF density matrix

  Nuclear Dipole Moment: [e a0]
     X:     0.0000      Y:     0.0000      Z:     0.0000

  Electronic Dipole Moment: [e a0]
     X:     0.0000      Y:     0.0000      Z:     0.0000

  Dipole Moment: [e a0]
     X:     0.0000      Y:     0.0000      Z:     0.0000     Total:     0.0000

  Dipole Moment: [D]
     X:     0.0000      Y:     0.0000      Z:     0.0000     Total:     0.0000


*** tstop() called on Yorks-Mac.local at Tue Jun 30 19:09:00 2020
Module time:
	user time   =       0.15 seconds =       0.00 minutes
	system time =       0.00 seconds =       0.00 minutes
	total time  =          0 seconds =       0.00 minutes
Total time:
	user time   =       0.15 seconds =       0.00 minutes
	system time =       0.00 seconds =       0.00 minutes
	total time  =          0 seconds =       0.00 minutes
    SCF energy........................................................PASSED

Scratch directory: /Users/york/scratch/psi4/
   => Loading Basis Set <=

    Name: STO-3G
    Role: ORBITAL
    Keyword: MINAO_BASIS
    atoms 1-2 entry N          line    71 file /Users/york/src/psi4new/psi4/share/psi4/basis/sto-3g.gbs 


  Forte
  ----------------------------------------------------------------------------
  A suite of quantum chemistry methods for strongly correlated electrons

    git branch: dsrg_file_io - git commit: 89583bc6

  Developed by:
    Francesco A. Evangelista, Chenyang Li, Kevin P. Hannon,
    Jeffrey B. Schriber, Tianyuan Zhang, Chenxi Cai,
    Nan He, Nicholas Stair, Shuhe Wang, Renke Huang
  ----------------------------------------------------------------------------

  Size of Determinant class: 128 bits
  Read options for space RESTRICTED_DOCC
  Read options for space ACTIVE

  ==> MO Space Information <==

  -------------------------------------------------------------------------
                       Ag   B1g   B2g   B3g    Au   B1u   B2u   B3u   Sum
  -------------------------------------------------------------------------
    FROZEN_DOCC         0     0     0     0     0     0     0     0     0
    RESTRICTED_DOCC     2     0     0     0     0     2     0     0     4
    ACTIVE              1     0     1     1     0     1     1     1     6
    RESTRICTED_UOCC     2     0     1     1     0     2     1     1     8
    FROZEN_UOCC         0     0     0     0     0     0     0     0     0
    Total               5     0     2     2     0     5     2     2    18
  -------------------------------------------------------------------------

  ==> Integral Transformation <==

  Number of molecular orbitals:                    18
  Number of correlated molecular orbitals:         18
  Number of frozen occupied orbitals:               0
  Number of frozen unoccupied orbitals:             0
  Two-electron integral type:              Conventional


  Overall Conventional Integrals timings

	Presorting SO-basis two-electron integrals.
	Sorting File: SO Ints (nn|nn) nbuckets = 1
	Transforming the one-electron integrals and constructing Fock matrices
	Starting first half-transformation.
	Sorting half-transformed integrals.
	First half integral transformation complete.
	Starting second half-transformation.
	Two-electron integral transformation complete.

  Integral transformation done. 0.00862758 s
  Reading the two-electron integrals from disk
  Size of two-electron integrals:   0.002346 GB
  Timing for freezing core and virtual orbitals:              0.000 s.
  Conventional integrals take 0.02285548 s

  ==> Summary of Active Space Solver Input <==

    Irrep.  Multi.(2ms)      N
    --------------------------
       Ag      1  (  0)      1
    --------------------------
    N: number of roots
    ms: spin z component
    Total number of roots:   1
    --------------------------


  ==> String Lists <==

  Number of alpha electrons     = 3
  Number of beta electrons      = 3
  Number of alpha strings       = 20
  Number of beta strings        = 20
  Number of alpha strings (N-3) = 1
  Number of beta strings (N-3)  = 1
  Timing for strings        =      0.000 s
  Timing for NN strings     =      0.000 s
  Timing for VO strings     =      0.000 s
  Timing for OO strings     =      0.000 s
  Timing for VVOO strings   =      0.000 s
  Timing for VOVO strings   =      0.000 s
  Timing for 1-hole strings =      0.000 s
  Timing for 2-hole strings =      0.000 s
  Timing for 3-hole strings =      0.000 s
  Total timing              =      0.000 s

  ==> FCI Solver <==

    Number of determinants                          56
    Symmetry                                         0
    Multiplicity                                     1
    Number of roots                                  1
    Target root                                      0
    Trial vectors per root                          10

  Allocating memory for the Hamiltonian algorithm. Size: 2 x 4 x 4.   Memory: 0.000000 GB
  Initial guess space is incomplete.
  Adding 5 determinant(s).

  ==> FCI Initial Guess <==

  ---------------------------------------------
    Root            Energy     <S^2>   Spin
  ---------------------------------------------
      0     -108.943476003896  0.000  singlet
      1     -108.365598446879  6.000  quintet
      2     -108.296402582582  2.000  triplet
      3     -108.290638801462  0.000  singlet
      4     -108.226978488876  0.000  singlet
      5     -108.168351354193  0.000  singlet
      6     -108.137619259968  0.000  singlet
      7     -108.115848165368  0.000  singlet
      8     -108.062284408116  0.000  singlet
      9     -108.042784764419  2.000  triplet
     10     -108.031718707484  2.000  triplet
     11     -108.018010931124  0.000  singlet
     12     -107.821288026642  6.000  quintet
     13     -107.784895982683  6.000  quintet
     14     -107.739732423599  2.000  triplet
     15     -107.704383227563  2.000  triplet
     16     -107.699693334133  2.000  triplet
     17     -107.678378544453  2.000  triplet
     18     -107.674357829476  0.000  singlet
     19     -107.661088436542  2.000  triplet
     20     -107.638351929601  0.000  singlet
     21     -107.620400056891  0.000  singlet
     22     -107.486977975422  0.000  singlet
     23     -107.233273111680  2.000  triplet
     24     -107.156821797536  0.000  singlet
  ---------------------------------------------
  Timing for initial guess  =      0.002 s

  Projecting out root 1
  Projecting out root 2
  Projecting out root 9
  Projecting out root 10
  Projecting out root 12
  Projecting out root 13
  Projecting out root 14
  Projecting out root 15
  Projecting out root 16
  Projecting out root 17
  Projecting out root 19
  Projecting out root 23

  ==> Diagonalizing Hamiltonian <==

  Energy   convergence: 1.00e-08
  Residual convergence: 1.00e-07
  -----------------------------------------------------
    Iter.      Avg. Energy       Delta_E     Res. Norm
  -----------------------------------------------------
      1     -108.943476003896  -1.089e+02  +8.137e-02
      2     -108.946882560867  -3.407e-03  +1.457e-02
      3     -108.947003737722  -1.212e-04  +4.069e-03
      4     -108.947010520161  -6.782e-06  +5.769e-04
      5     -108.947010690191  -1.700e-07  +7.494e-05
      6     -108.947010693436  -3.245e-09  +1.341e-05
      7     -108.947010693494  -5.863e-11  +4.907e-07
      8     -108.947010693494  -8.527e-14  +4.779e-08
  -----------------------------------------------------
  The Davidson-Liu algorithm converged in 9 iterations.

  ==> Root No. 0 <==

    2 0 0 0 2 2     -0.96893172
    2 2 0 0 2 0      0.12858743
    2 0 2 0 0 2      0.12858743

    Total Energy:      -108.947010693494249

  ==> Energy Summary <==

    Multi.(2ms)  Irrep.  No.               Energy
    ---------------------------------------------
       1  (  0)    Ag     0     -108.947010693494
    ---------------------------------------------

  ==> Computing RDMs for Root No. 0 <==

    Timing for 1-RDM: 0.000 s
    Timing for 2-RDM: 0.000 s
    Timing for 3-RDM: 0.002 s

  ==> NATURAL ORBITALS <==

        1Ag     1.993244      1B2u    1.940504      1B3u    1.940504  
        1B2g    0.062034      1B3g    0.062034      1B1u    0.001680  


       -----------------------------------------------------------------
                            Semi-Canonical Orbitals
         Chenyang Li, Jeffrey B. Schriber and Francesco A. Evangelista
       -----------------------------------------------------------------

  Took 0.000147 s to build Fock matrix

  ==> Checking Fock Matrix Diagonal Blocks <==

    Off-Diag. Elements       Max           2-Norm
    ------------------------------------------------
    Fa actv              0.0000000000   0.0000000000
    Fb actv              0.0000000000   0.0000000000
    ------------------------------------------------
    Fa core              0.0001671489   0.0002578997
    Fb core              0.0001671489   0.0002578997
    ------------------------------------------------
    Fa virt              0.0022840139   0.0037871040
    Fb virt              0.0022840139   0.0037871040
    ------------------------------------------------
 Integrals are about to be computed.	Presorting SO-basis two-electron integrals.
	Sorting File: SO Ints (nn|nn) nbuckets = 1
	Transforming the one-electron integrals and constructing Fock matrices
	Starting first half-transformation.
	Sorting half-transformed integrals.
	First half integral transformation complete.
	Starting second half-transformation.
	Two-electron integral transformation complete.

  Integral transformation done. 0.00845458 s
  Reading the two-electron integrals from disk
  Size of two-electron integrals:   0.002346 GB
 Integrals are about to be updated.
  Timing for freezing core and virtual orbitals:              0.000 s.

  ==> RDMs Transformation to Semicanonical Basis <==

    Transformed 1 RDMs.
    Transformed 2 RDMs.
    Transformed 3 RDMs.
  SemiCanonicalize takes 0.294974 s.

  ==> Multireference Driven Similarity Renormalization Group <==

    Reading DSRG options ............................ Done
    Setting ambit MO space .......................... Done
    Preparing tensors for density cumulants ......... Done
    Building Fock matrix ............................ Done

           ----------------------------------------------------------
             Multireference Driven Similarity Renormalization Group
                   written by Chenyang Li and Tianyuan Zhang
           ----------------------------------------------------------


  ==> Density Cumulant Summary <==

    2-body             AA           AB           BB
    -----------------------------------------------
    max          0.056800     0.130007     0.056800
    norm         0.198451     0.334795     0.198451
    -----------------------------------------------
    3-body            AAA          AAB          ABB          BBB
    ------------------------------------------------------------
    max          0.003617     0.016212     0.016212     0.003617
    norm         0.046200     0.111013     0.111013     0.046200
    ------------------------------------------------------------

  ==> Checking Semicanonical Orbitals <==

    Abs. max of Fock core, active, virtual blocks (Fij, i != j)
                  core          active         virtual
    --------------------------------------------------
    Fα    0.0000000000    0.0000000000    0.0000000000
    Fβ    0.0000000000    0.0000000000    0.0000000000
    --------------------------------------------------

    1-Norm of Fock core, active, virtual blocks (Fij, i != j)
                  core          active         virtual
    --------------------------------------------------
    Fα    0.0000000000    0.0000000000    0.0000000000
    Fβ    0.0000000000    0.0000000000    0.0000000000
    --------------------------------------------------

    Orbitals are semi-canonicalized.

  ==> Calculation Information <==

    Number of T amplitudes                                15
    DIIS start                                             2
    Min DIIS vectors                                       2
    Max DIIS vectors                                       6
    DIIS extrapolating freq                                1
    Flow parameter                                 1.000e+00
    Taylor expansion threshold                     1.000e-03
    Intruder amplitudes threshold                  1.000e-01
    Correlation level                                 LDSRG2
    Integral type                               CONVENTIONAL
    Source operator                                 STANDARD
    Adaptive DSRG flow type                           DSRG_S
    Reference relaxation                                NONE
    DSRG transformation type                         UNITARY
    Core-Virtual source type                          NORMAL
    Restart amplitudes                                  TRUE
    Sequential DSRG transformation                     FALSE
    Omit blocks of >= 3 virtual indices                FALSE
    Read amplitudes from current dir                    TRUE
    Write amplitudes to current dir                    FALSE


  ==> Build Initial Amplitudes Guesses <==

    Reading T2 amplitudes from current directory ... Done.
    Reading T1 amplitudes from current directory ... Done.

  ==> Initial Excitation Amplitudes Summary <==

    Active Indices:    2    5    7   11   14   16 
    Largest T1 amplitudes for spin case A:
       i       a                  i       a                  i       a               
    --------------------------------------------------------------------------------
    [  2       4    ]-0.015705 [  7       8    ] 0.014653 [  5       6    ] 0.014653 
    [  1       2    ]-0.011076 [ 11      13    ] 0.010524 [ 10      12    ] 0.009981 
    [ 16      17    ] 0.009444 [ 14      15    ] 0.009444 [ 10      13    ] 0.004347 
    [ 10      11    ] 0.003282 [  2       3    ]-0.003255 [  1       4    ]-0.001998 
    [ 11      12    ]-0.001803 [  0       2    ]-0.000283 [  0       4    ]-0.000241 
    --------------------------------------------------------------------------------
    Norm of T1A vector: (nonzero elements: 20)                    0.035146322634523.
    --------------------------------------------------------------------------------
    Largest T1 amplitudes for spin case B:
       _       _                  _       _                  _       _               
       i       a                  i       a                  i       a               
    --------------------------------------------------------------------------------
    [  2       4    ]-0.015705 [  7       8    ] 0.014653 [  5       6    ] 0.014653 
    [  1       2    ]-0.011076 [ 11      13    ] 0.010524 [ 10      12    ] 0.009981 
    [ 16      17    ] 0.009444 [ 14      15    ] 0.009444 [ 10      13    ] 0.004347 
    [ 10      11    ] 0.003282 [  2       3    ]-0.003255 [  1       4    ]-0.001998 
    [ 11      12    ]-0.001803 [  0       2    ]-0.000283 [  0       4    ]-0.000241 
    --------------------------------------------------------------------------------
    Norm of T1B vector: (nonzero elements: 20)                    0.035146322634523.
    --------------------------------------------------------------------------------
    Largest T2 amplitudes for spin case AA:
       i   j   a   b              i   j   a   b              i   j   a   b           
    --------------------------------------------------------------------------------
    [  2  16   2  17]-0.048873 [  2  14   2  15]-0.048873 [ 14  16  15  16]-0.047866 
    [ 14  16  14  17]-0.047866 [  7  16   8  16]-0.046265 [  5  14   6  14]-0.046265 
    [  7  16   7  17]-0.043412 [  5  14   5  15]-0.043412 [  2  10   2  11]-0.043060 
    [  2   7   2   8]-0.042237 [  2   5   2   6]-0.042237 [  2   7  12  14] 0.041102 
    [  2   5  12  16] 0.041102 [ 11  16  13  16]-0.037656 [ 11  14  13  14]-0.037656 
    --------------------------------------------------------------------------------
    Norm of T2AA vector: (nonzero elements: 2136)                 0.597895570956892.
    --------------------------------------------------------------------------------
    Largest T2 amplitudes for spin case AB:
           _       _                  _       _                  _       _           
       i   j   a   b              i   j   a   b              i   j   a   b           
    --------------------------------------------------------------------------------
    [ 10  16   2   5]-0.067991 [ 10  14   2   7]-0.067991 [  2   2   2   4]-0.065560 
    [ 10  10   7   7]-0.061766 [ 10  10   5   5]-0.061766 [  7  14   8  14]-0.057807 
    [  5  16   6  16]-0.057807 [  2  16   2  17]-0.056321 [  2  14   2  15]-0.056321 
    [  7  14   7  15]-0.054934 [  5  16   5  17]-0.054934 [ 14  14  14  15]-0.054039 
    [ 16  16  16  17]-0.054039 [  2  10   2  12] 0.053068 [  7  16   8  16]-0.050882 
    --------------------------------------------------------------------------------
    Norm of T2AB vector: (nonzero elements: 2608)                 0.672237036963954.
    --------------------------------------------------------------------------------
    Largest T2 amplitudes for spin case BB:
       _   _   _   _              _   _   _   _              _   _   _   _           
       i   j   a   b              i   j   a   b              i   j   a   b           
    --------------------------------------------------------------------------------
    [  2  16   2  17]-0.048873 [  2  14   2  15]-0.048873 [ 14  16  15  16]-0.047866 
    [ 14  16  14  17]-0.047866 [  7  16   8  16]-0.046265 [  5  14   6  14]-0.046265 
    [  5  14   5  15]-0.043412 [  7  16   7  17]-0.043412 [  2  10   2  11]-0.043060 
    [  2   7   2   8]-0.042237 [  2   5   2   6]-0.042237 [  2   7  12  14] 0.041102 
    [  2   5  12  16] 0.041102 [ 11  16  13  16]-0.037656 [ 11  14  13  14]-0.037656 
    --------------------------------------------------------------------------------
    Norm of T2BB vector: (nonzero elements: 2136)                 0.597895570956892.
    --------------------------------------------------------------------------------

  ==> Possible Intruders <==

    T1 amplitudes larger than 0.1000 for spin case A: NULL
    T1 amplitudes larger than 0.1000 for spin case B: NULL
    T2 amplitudes larger than 0.1000 for spin case AA: NULL
    T2 amplitudes larger than 0.1000 for spin case AB: NULL
    T2 amplitudes larger than 0.1000 for spin case BB: NULL

  ==> Computing MR-LDSRG(2) Energy <==

    Reference:
      J. Chem. Phys. 2016, 144, 164114.

                  Energy (a.u.)           Non-Diagonal Norm        Amplitude RMS         Timings (s)
           ---------------------------  ---------------------  ---------------------  -----------------
    Iter.        Corr.         Delta       Hbar1      Hbar2        T1         T2        Hbar     Amp.    DIIS
    ---------------------------------------------------------------------------------------------------------
       1    -0.153866609170 -1.539e-01   3.901e-02  8.611e-01   1.706e-07  9.500e-07     6.610    0.015
       2    -0.153866606569  2.602e-09   3.901e-02  8.611e-01   4.404e-08  3.225e-07     6.650    0.015  S
       3    -0.153866606135  4.339e-10   3.901e-02  8.611e-01   1.460e-08  1.190e-07     6.579    0.015  S/E
       4    -0.153866605752  3.830e-10   3.901e-02  8.611e-01   3.242e-09  2.913e-08     6.742    0.015  S/E
    ---------------------------------------------------------------------------------------------------------

  ==> MR-LDSRG(2) Energy Summary <==

    E0 (reference)                 =    -108.947010693494292
    MR-LDSRG(2) correlation energy =      -0.153866605751881
    MR-LDSRG(2) total energy       =    -109.100877299246179

  ==> Final Excitation Amplitudes Summary <==

    Active Indices:    2    5    7   11   14   16 
    Largest T1 amplitudes for spin case A:
       i       a                  i       a                  i       a               
    --------------------------------------------------------------------------------
    [  2       4    ]-0.015705 [  7       8    ] 0.014653 [  5       6    ] 0.014653 
    [  1       2    ]-0.011076 [ 11      13    ] 0.010524 [ 10      12    ] 0.009981 
    [ 16      17    ] 0.009444 [ 14      15    ] 0.009444 [ 10      13    ] 0.004347 
    [ 10      11    ] 0.003282 [  2       3    ]-0.003255 [  1       4    ]-0.001998 
    [ 11      12    ]-0.001802 [  0       2    ]-0.000283 [  0       4    ]-0.000241 
    --------------------------------------------------------------------------------
    Norm of T1A vector: (nonzero elements: 20)                    0.035146232066403.
    --------------------------------------------------------------------------------
    Largest T1 amplitudes for spin case B:
       _       _                  _       _                  _       _               
       i       a                  i       a                  i       a               
    --------------------------------------------------------------------------------
    [  2       4    ]-0.015705 [  7       8    ] 0.014653 [  5       6    ] 0.014653 
    [  1       2    ]-0.011076 [ 11      13    ] 0.010524 [ 10      12    ] 0.009981 
    [ 16      17    ] 0.009444 [ 14      15    ] 0.009444 [ 10      13    ] 0.004347 
    [ 10      11    ] 0.003282 [  2       3    ]-0.003255 [  1       4    ]-0.001998 
    [ 11      12    ]-0.001802 [  0       2    ]-0.000283 [  0       4    ]-0.000241 
    --------------------------------------------------------------------------------
    Norm of T1B vector: (nonzero elements: 20)                    0.035146232066402.
    --------------------------------------------------------------------------------
    Largest T2 amplitudes for spin case AA:
       i   j   a   b              i   j   a   b              i   j   a   b           
    --------------------------------------------------------------------------------
    [  2  16   2  17]-0.048873 [  2  14   2  15]-0.048873 [ 14  16  15  16]-0.047866 
    [ 14  16  14  17]-0.047866 [  7  16   8  16]-0.046265 [  5  14   6  14]-0.046265 
    [  5  14   5  15]-0.043412 [  7  16   7  17]-0.043412 [  2  10   2  11]-0.043060 
    [  2   7   2   8]-0.042237 [  2   5   2   6]-0.042237 [  2   7  12  14] 0.041102 
    [  2   5  12  16] 0.041102 [ 11  16  13  16]-0.037656 [ 11  14  13  14]-0.037656 
    --------------------------------------------------------------------------------
    Norm of T2AA vector: (nonzero elements: 2136)                 0.597895593164615.
    --------------------------------------------------------------------------------
    Largest T2 amplitudes for spin case AB:
           _       _                  _       _                  _       _           
       i   j   a   b              i   j   a   b              i   j   a   b           
    --------------------------------------------------------------------------------
    [ 10  14   2   7]-0.067991 [ 10  16   2   5]-0.067991 [  2   2   2   4]-0.065560 
    [ 10  10   5   5]-0.061766 [ 10  10   7   7]-0.061766 [  7  14   8  14]-0.057807 
    [  5  16   6  16]-0.057807 [  2  16   2  17]-0.056321 [  2  14   2  15]-0.056321 
    [  7  14   7  15]-0.054934 [  5  16   5  17]-0.054934 [ 14  14  14  15]-0.054040 
    [ 16  16  16  17]-0.054040 [  2  10   2  12] 0.053068 [  7  16   8  16]-0.050882 
    --------------------------------------------------------------------------------
    Norm of T2AB vector: (nonzero elements: 2608)                 0.672236917704712.
    --------------------------------------------------------------------------------
    Largest T2 amplitudes for spin case BB:
       _   _   _   _              _   _   _   _              _   _   _   _           
       i   j   a   b              i   j   a   b              i   j   a   b           
    --------------------------------------------------------------------------------
    [  2  16   2  17]-0.048873 [  2  14   2  15]-0.048873 [ 14  16  15  16]-0.047866 
    [ 14  16  14  17]-0.047866 [  7  16   8  16]-0.046265 [  5  14   6  14]-0.046265 
    [  7  16   7  17]-0.043412 [  5  14   5  15]-0.043412 [  2  10   2  11]-0.043060 
    [  2   7   2   8]-0.042237 [  2   5   2   6]-0.042237 [  2   7  12  14] 0.041102 
    [  2   5  12  16] 0.041102 [ 11  16  13  16]-0.037656 [ 11  14  13  14]-0.037656 
    --------------------------------------------------------------------------------
    Norm of T2BB vector: (nonzero elements: 2136)                 0.597895593164615.
    --------------------------------------------------------------------------------

  ==> Possible Intruders <==

    T1 amplitudes larger than 0.1000 for spin case A: NULL
    T1 amplitudes larger than 0.1000 for spin case B: NULL
    T2 amplitudes larger than 0.1000 for spin case AA: NULL
    T2 amplitudes larger than 0.1000 for spin case AB: NULL
    T2 amplitudes larger than 0.1000 for spin case BB: NULL

  ==> Total Timings (s) for Computing Commutators <==

             [H1, T1]    [H1, T2]    [H2, T1]    [H2, T2]
    -----------------------------------------------------
    -> C0       0.024       0.075       0.254       3.462
    -> C1       0.061       0.329       0.501       6.643
    -> C2                   1.103       2.398      11.269
    -----------------------------------------------------


  Time to prepare integrals:        0.024 seconds
  Time to run job          :       27.024 seconds
  Total                    :       27.024 seconds    MR-LDSRG(2) unrelaxed energy......................................PASSED

    Psi4 stopped on: Tuesday, 30 June 2020 07:09PM
    Psi4 wall time for execution: 0:00:27.24

*** Psi4 exiting successfully. Buy a developer a beer!
