
    -----------------------------------------------------------------------
          Psi4: An Open-Source Ab Initio Electronic Structure Package
                               Psi4 1.10a1.dev48 

                         Git: Rev {master} 1813c0c dirty


    D. G. A. Smith, L. A. Burns, A. C. Simmonett, R. M. Parrish,
    M. C. Schieber, R. Galvelis, P. Kraus, H. Kruse, R. Di Remigio,
    A. Alenaizan, A. M. James, S. Lehtola, J. P. Misiewicz, M. Scheurer,
    R. A. Shaw, J. B. Schriber, Y. Xie, Z. L. Glick, D. A. Sirianni,
    J. S. O'Brien, J. M. Waldrop, A. Kumar, E. G. Hohenstein,
    B. P. Pritchard, B. R. Brooks, H. F. Schaefer III, A. Yu. Sokolov,
    K. Patkowski, A. E. DePrince III, U. Bozkaya, R. A. King,
    F. A. Evangelista, J. M. Turney, T. D. Crawford, C. D. Sherrill,
    J. Chem. Phys. 152(18) 184108 (2020). https://doi.org/10.1063/5.0006002

                            Additional Code Authors
    E. T. Seidl, C. L. Janssen, E. F. Valeev, M. L. Leininger,
    J. F. Gonthier, R. M. Richard, H. R. McAlexander, M. Saitow, X. Wang,
    P. Verma, M. H. Lechner, A. Jiang, S. Behnle, A. G. Heide,
    M. F. Herbst, and D. L. Poole

             Previous Authors, Complete List of Code Contributors,
                       and Citations for Specific Modules
    https://github.com/psi4/psi4/blob/master/codemeta.json
    https://github.com/psi4/psi4/graphs/contributors
    http://psicode.org/psi4manual/master/introduction.html#citing-psifour

    -----------------------------------------------------------------------


    Psi4 started on: Thursday, 08 August 2024 04:49PM

    Process ID: 38119
    Host:       Brian-Zs-MBA.local
    PSIDATADIR: /Users/brianz98/local/psi4/objdir-Release/stage/share/psi4
    Memory:     500.0 MiB
    Threads:    1
    
  ==> Input File <==

--------------------------------------------------------------------------
import forte

refmcscf   = -15.56976136088
refdsrgpt2 = -15.62904156959

molecule {
0 1
Be        0.000000000000     0.000000000000     0.000000000000
H         0.000000000000     1.390000000000     2.500000000000
H         0.000000000000    -1.390000000000     2.500000000000
units bohr
no_reorient
}

basis {
spherical
****
Be     0
S   6   1.00
   1267.070000     0.001940
    190.356000     0.014786
     43.295900     0.071795
     12.144200     0.236348
      3.809230     0.471763
      1.268470     0.355183
S   3   1.00
      5.693880    -0.028876
      1.555630    -0.177565
      0.171855     1.071630
S   1   1.00
      0.057181     1.000000
P   2   1.00
      1.555630     0.144045
      0.171855     0.949692
P   1   1.00
      5.693880     1.000000
****
H      0
S   3   1.00
     19.240600     0.032828
      2.899200     0.231208
      0.653400     0.817238
S   1   1.00
      0.177600     1.000000
****
}

set forte{
   active_space_solver  fci
   correlation_solver   dsrg-mrpt2
   mcscf_reference     true
   mcscf_e_convergence 12
   mcscf_g_convergence 8
   restricted_docc      [2,0,0,0]
   active               [1,0,0,1]
   root_sym             0
   nroot                1
   dsrg_s               1.0e10
   multiplicity         1
   threepdc             zero
}

energy('forte')
compare_values(refdsrgpt2,variable("CURRENT ENERGY"),9,"DSRG-MRPT2 energy")
--------------------------------------------------------------------------

Scratch directory: /tmp/

  Forte
  ----------------------------------------------------------------------------
  A suite of quantum chemistry methods for strongly correlated electrons

    git branch: main - git commit: 757934d4

  Developed by:
    Francesco A. Evangelista, Chenyang Li, Kevin P. Hannon,
    Jeffrey B. Schriber, Tianyuan Zhang, Chenxi Cai,
    Nan He, Nicholas Stair, Shuhe Wang, Renke Huang
  ----------------------------------------------------------------------------


  Preparing forte objects from a Psi4 Wavefunction object
  No reference wave function provided for Forte. Computing SCF orbitals using Psi4 ...
   => Libint2 <=

    Primary   basis highest AM E, G, H:  6, 6, 3
    Auxiliary basis highest AM E, G, H:  7, 7, 4
    Onebody   basis highest AM E, G, H:  -, -, -
    Solid Harmonics ordering:            Gaussian

*** tstart() called on Brian-Zs-MBA.local
*** at Thu Aug  8 16:49:19 2024

   => Loading Basis Set <=

    Name: ANONYMOUSF6D3157D
    Role: ORBITAL
    Keyword: BASIS
    atoms 1   entry BE         line     5 inputblock anonymousf6d3157d 
    atoms 2-3 entry H          line    25 inputblock anonymousf6d3157d 


         ---------------------------------------------------------
                                   SCF
               by Justin Turney, Rob Parrish, Andy Simmonett
                          and Daniel G. A. Smith
                              RHF Reference
                        1 Threads,    500 MiB Core
         ---------------------------------------------------------

  ==> Geometry <==

    Molecular point group: c2v
    Full point group: C2v

    Geometry (in Bohr), charge = 0, multiplicity = 1:

       Center              X                  Y                   Z               Mass       
    ------------   -----------------  -----------------  -----------------  -----------------
         BE           0.000000000000     0.000000000000    -0.456946083786     9.012183065000
         H           -0.000000000000     1.390000000000     2.043053916214     1.007825032230
         H            0.000000000000    -1.390000000000     2.043053916214     1.007825032230

  Running in c2v symmetry.

  Rotational constants: A =     15.45786  B =      5.84735  C =      4.24251 [cm^-1]
  Rotational constants: A = 463415.11676  B = 175299.21065  C = 127187.22704 [MHz]
  Nuclear repulsion =    3.156487659063052

  Charge       = 0
  Multiplicity = 1
  Electrons    = 6
  Nalpha       = 3
  Nbeta        = 3

  ==> Algorithm <==

  SCF Algorithm Type is PK.
  DIIS enabled.
  MOM disabled.
  Fractional occupation disabled.
  Guess Type is SAD.
  Energy threshold   = 1.00e-08
  Density threshold  = 1.00e-08
  Integral threshold = 1.00e-12

  ==> Primary Basis <==

  Basis Set: ANONYMOUSF6D3157D
    Blend: ANONYMOUSF6D3157D
    Number of shells: 9
    Number of basis functions: 13
    Number of Cartesian functions: 13
    Spherical Harmonics?: true
    Max angular momentum: 1

  ==> Integral Setup <==

  Using in-core PK algorithm.
   Calculation information:
      Number of atoms:                   3
      Number of AO shells:               9
      Number of primitives:             21
      Number of atomic orbitals:        13
      Number of basis functions:        13

      Integral cutoff                 1.00e-12
      Number of threads:                 1

  Performing in-core PK
  Using 8372 doubles for integral storage.
  We computed 1035 shell quartets total.
  Whereas there are 1035 unique shell quartets.

  ==> DiskJK: Disk-Based J/K Matrices <==

    J tasked:                  Yes
    K tasked:                  Yes
    wK tasked:                  No
    Memory [MiB]:              375
    Schwarz Cutoff:          1E-12

    OpenMP threads:              1

  Minimum eigenvalue in the overlap matrix is 9.9525368827E-02.
  Reciprocal condition number of the overlap matrix is 3.4316955989E-02.
    Using symmetric orthogonalization.

  ==> Pre-Iterations <==

  SCF Guess: Superposition of Atomic Densities via on-the-fly atomic UHF (no occupation information).

   -------------------------
    Irrep   Nso     Nmo    
   -------------------------
     A1         7       7 
     A2         0       0 
     B1         2       2 
     B2         4       4 
   -------------------------
    Total      13      13
   -------------------------

  ==> Iterations <==

                        Total Energy        Delta E     RMS |[F,P]|

   @RHF iter SAD:   -14.50760914137800   -1.45076e+01   0.00000e+00 
   @RHF iter   1:   -15.26444038552562   -7.56831e-01   3.72383e-02 ADIIS/DIIS
   @RHF iter   2:   -15.42572352864834   -1.61283e-01   7.76912e-03 ADIIS/DIIS
   @RHF iter   3:   -15.43524978735653   -9.52626e-03   2.36096e-03 ADIIS/DIIS
   @RHF iter   4:   -15.43647859868010   -1.22881e-03   5.08607e-04 ADIIS/DIIS
   @RHF iter   5:   -15.43653374941492   -5.51507e-05   1.99479e-05 DIIS
   @RHF iter   6:   -15.43653380039834   -5.09834e-08   2.16713e-06 DIIS
   @RHF iter   7:   -15.43653380094228   -5.43935e-10   3.31437e-07 DIIS
   @RHF iter   8:   -15.43653380095089   -8.61000e-12   2.71441e-08 DIIS
   @RHF iter   9:   -15.43653380095097   -8.34888e-14   2.53683e-09 DIIS
  Energy and wave function converged.


  ==> Post-Iterations <==

    Orbital Energies [Eh]
    ---------------------

    Doubly Occupied:                                                      

       1A1    -4.720738     2A1    -0.656696     3A1    -0.206472  

    Virtual:                                                              

       1B2    -0.102290     1B1     0.137603     2B2     0.255776  
       4A1     0.262325     5A1     0.338224     3B2     0.975376  
       6A1     1.080784     2B1     8.985702     4B2     9.030689  
       7A1     9.126047  

    Final Occupation by Irrep:
             A1    A2    B1    B2 
    DOCC [     3,    0,    0,    0 ]
    NA   [     3,    0,    0,    0 ]
    NB   [     3,    0,    0,    0 ]

  @RHF Final Energy:   -15.43653380095097

   => Energetics <=

    Nuclear Repulsion Energy =              3.1564876590630520
    One-Electron Energy =                 -26.0182308506471038
    Two-Electron Energy =                   7.4252093906330785
    Total Energy =                        -15.4365338009509721

Computation Completed


Properties will be evaluated at   0.000000,   0.000000,   0.000000 [a0]

Properties computed using the SCF density matrix


 Multipole Moments:

 ------------------------------------------------------------------------------------
     Multipole            Electronic (a.u.)      Nuclear  (a.u.)        Total (a.u.)
 ------------------------------------------------------------------------------------

 L = 1.  Multiply by 2.5417464519 to convert [e a0] to [Debye]
 Dipole X            :          0.0000000            0.0000000            0.0000000
 Dipole Y            :          0.0000000            0.0000000            0.0000000
 Dipole Z            :          0.0380572            2.2583235            2.2963807
 Magnitude           :                                                    2.2963807

 ------------------------------------------------------------------------------------

*** tstop() called on Brian-Zs-MBA.local at Thu Aug  8 16:49:19 2024
Module time:
	user time   =       0.10 seconds =       0.00 minutes
	system time =       0.01 seconds =       0.00 minutes
	total time  =          0 seconds =       0.00 minutes
Total time:
	user time   =       0.10 seconds =       0.00 minutes
	system time =       0.01 seconds =       0.00 minutes
	total time  =          0 seconds =       0.00 minutes

  Read options for space RESTRICTED_DOCC
  Read options for space ACTIVE
  Read options for space RESTRICTED_DOCC

  ==> MO Space Information <==

  -------------------------------------------------
                       A1    A2    B1    B2   Sum
  -------------------------------------------------
    FROZEN_DOCC         0     0     0     0     0
    RESTRICTED_DOCC     2     0     0     0     2
    GAS1                1     0     0     1     2
    GAS2                0     0     0     0     0
    GAS3                0     0     0     0     0
    GAS4                0     0     0     0     0
    GAS5                0     0     0     0     0
    GAS6                0     0     0     0     0
    RESTRICTED_UOCC     4     0     2     3     9
    FROZEN_UOCC         0     0     0     0     0
    Total               7     0     2     4    13
  -------------------------------------------------   => Loading Basis Set <=

    Name: STO-3G
    Role: ORBITAL
    Keyword: MINAO_BASIS
    atoms 1   entry BE         line    41 file /Users/brianz98/local/psi4/objdir-Release/stage/share/psi4/basis/sto-3g.gbs 
    atoms 2-3 entry H          line    19 file /Users/brianz98/local/psi4/objdir-Release/stage/share/psi4/basis/sto-3g.gbs 


  State Singlet (Ms = 0) A1 GAS min: 0 0 0 0 0 0 ; GAS max: 4 0 0 0 0 0 ; weights:
      1.000000000000
  Forte will use psi4 integrals

  ==> Primary Basis Set Summary <==

  Basis Set: ANONYMOUSF6D3157D
    Blend: ANONYMOUSF6D3157D
    Number of shells: 9
    Number of basis functions: 13
    Number of Cartesian functions: 13
    Spherical Harmonics?: true
    Max angular momentum: 1


  JK created using conventional PK integrals
  Using in-core PK algorithm.
   Calculation information:
      Number of atoms:                   3
      Number of AO shells:               9
      Number of primitives:             21
      Number of atomic orbitals:        13
      Number of basis functions:        13

      Integral cutoff                 1.00e-12
      Number of threads:                 1

  Performing in-core PK
  Using 8372 doubles for integral storage.
  We computed 1035 shell quartets total.
  Whereas there are 1035 unique shell quartets.

  ==> DiskJK: Disk-Based J/K Matrices <==

    J tasked:                  Yes
    K tasked:                  Yes
    wK tasked:                  No
    Memory [MiB]:              400
    Schwarz Cutoff:          1E-12

    OpenMP threads:              1



  ==> Integral Transformation <==

  Number of molecular orbitals:                         13
  Number of correlated molecular orbitals:              13
  Number of frozen occupied orbitals:                    0
  Number of frozen unoccupied orbitals:                  0
  Two-electron integral type:                 Conventional


  Computing Conventional Integrals	Presorting SO-basis two-electron integrals.
	Sorting File: SO Ints (nn|nn) nbuckets = 1
	Constructing frozen core operators
	Starting first half-transformation.
	Sorting half-transformed integrals.
	First half integral transformation complete.
	Starting second half-transformation.
	Two-electron integral transformation complete.

  Integral transformation done. 0.00305325 s
  Reading the two-electron integrals from disk
  Size of two-electron integrals:   0.000638 GB
  Timing for conventional integral transformation:            0.009 s.
  Timing for freezing core and virtual orbitals:              0.000 s.
  Timing for computing conventional integrals:                0.009 s.

          -----------------------------------------------------------
                  Multi-Configurational Self Consistent Field
                Two-Step Approximate Second-Order AO Algorithm
            written by Chenyang Li, Kevin P. Hannon, and Shuhe Wang
          -----------------------------------------------------------


  ==> MCSCF Calculation Information <==

    --------------------------------------------------------
    Print level                                      Default
    Integral type                               CONVENTIONAL
    CI solver type                                       FCI
    Final orbital type                             CANONICAL
    Derivative type                                     NONE
    Optimize orbitals                                   TRUE
    Include internal rotations                         FALSE
    Debug printing                                     FALSE
    Energy convergence                             1.000e-12
    Gradient convergence                           1.000e-08
    Max value for rotation                         2.000e-01
    Max number of macro iter.                            100
    Max number of micro iter. for orbitals                 6
    Max number of micro iter. for CI                      12
    DIIS start                                            15
    Min DIIS vectors                                       3
    Max DIIS vectors                                       8
    Frequency of DIIS extrapolation                        1
    --------------------------------------------------------

  ==> Independent Orbital Rotations <==

    ORBITAL SPACES                        A1     A2     B1     B2
    -------------------------------------------------------------
             ACTIVE / RESTRICTED_DOCC      2      0      0      0
    RESTRICTED_UOCC /          ACTIVE      4      0      0      3
    RESTRICTED_UOCC / RESTRICTED_DOCC      8      0      0      0
    -------------------------------------------------------------

  ==> String Lists <==

    --------------------------------------------------------
    number of alpha electrons                              1
    number of beta electrons                               1
    number of alpha strings                                2
    number of beta strings                                 2
    --------------------------------------------------------

  ==> FCI Solver <==

    --------------------------------------------------------
    Spin adapt                                         FALSE
    Number of determinants                                 2
    Symmetry                                               0
    Multiplicity                                           1
    Number of roots                                        1
    Target root                                            0
    --------------------------------------------------------

  ==> Initial Guess <==

  Initial guess determinants:         2

  Classification of the initial guess solutions

  Number   2S+1   Selected
  ------------------------
     2       1       *
  ------------------------

    Spin    Root           Energy        <S^2>    Status
  -------------------------------------------------------
   singlet    0      -15.473280278514  +0.000000  added
  -------------------------------------------------------

  ==> Davidson-Liu Solver <==

    --------------------------------------------------------
    Print level                                      Default
    Energy convergence threshold                   1.000e-12
    Residual convergence threshold                 1.000e-06
    Schmidt orthogonality threshold                1.000e-12
    Schmidt discard threshold                      1.000e-07
    Size of the space                                      2
    Number of roots                                        1
    Maximum number of iterations                         100
    Collapse subspace size                                 2
    Maximum subspace size                                  2
    --------------------------------------------------------

  Davidson-Liu solver: adding 1 guess vectors
  Iteration     Average Energy            max(∆E)            max(Residual)  Vectors
  ---------------------------------------------------------------------------------
       0      -15.473280278514       15.473280278514        0.000000000000      1
       1      -15.473280278514        0.000000000000        0.000000000000      2
  ---------------------------------------------------------------------------------

  ==> Root No. 0 <==

    0 2      0.93064471
    2 0     -0.36592406

    Total Energy:     -15.473280278514, <S^2>: 0.000000
    Time for FCI:       0.001143125000

  ==> Energy Summary <==

    Multi.(2ms)  Irrep.  No.               Energy      <S^2>
    --------------------------------------------------------
       1  (  0)    A1     0      -15.473280278514   0.000000
    --------------------------------------------------------

  ==> Natural Orbitals <==

        1B2     1.732199      3A1     0.267801  


  ==> Dipole Moments [e a0] (Nuclear + Electronic) for Singlet (Ms = 0) A1 <==

       State           DM_X           DM_Y           DM_Z           |DM|
    --------------------------------------------------------------------
         0A1    -0.00000000     0.00000000    -2.81793899     2.81793899
    --------------------------------------------------------------------
     Nuclear     0.00000000     0.00000000     2.25832350     2.25832350
    --------------------------------------------------------------------

  ==> Natural Orbitals <==

        1B2     1.732199      3A1     0.267801  


  ==> Quadrupole Moments [e a0^2] (Nuclear + Electronic) for Singlet (Ms = 0) A1 <==

       State          QM_XX          QM_XY          QM_XZ          QM_YY          QM_YZ          QM_ZZ
    --------------------------------------------------------------------------------------------------
         0A1    -4.87416425     0.00000000    -0.00000000    -8.63783244     0.00000000    -8.22175226
    --------------------------------------------------------------------------------------------------
     Nuclear     0.00000000    -0.00000000     0.00000000     3.86420000     0.00000000     9.18333750
    --------------------------------------------------------------------------------------------------

  ==> Natural Orbitals <==

        1B2     1.732199      3A1     0.267801  


  ==> MCSCF Iterations <==

                      Energy CI                    Energy Orbital
           ------------------------------  ------------------------------
    Iter.        Total Energy       Delta        Total Energy       Delta  Orb. Grad.  Micro
    ----------------------------------------------------------------------------------------
       1     -15.473280278514 -1.5473e+01    -15.565277409310 -1.5565e+01  1.5847e-01    6/N
       2     -15.569273714479 -9.5993e-02    -15.569713273454 -4.4359e-03  4.2752e-04    6/N
       3     -15.569750940988 -4.7723e-04    -15.569759118663 -4.5845e-05  3.3743e-05    6/N
       4     -15.569760830380 -9.8894e-06    -15.569761235584 -2.1169e-06  2.2226e-06    6/N
       5     -15.569761330664 -5.0028e-07    -15.569761353601 -1.1802e-07  4.2813e-07    6/N <- added 1 random vector
       6     -15.569761359119 -2.8455e-08    -15.569761360456 -6.8553e-09  9.8124e-08    6/N
       7     -15.569761360780 -1.6608e-09    -15.569761360858 -4.0211e-10  2.3478e-08    6/N
       8     -15.569761360878 -9.7534e-11    -15.569761360882 -2.3642e-11  5.6761e-09    5/Y <- added 1 random vector
       9     -15.569761360883 -5.7359e-12    -15.569761360884 -1.3927e-12  1.0294e-09    4/Y
      10     -15.569761360884 -3.3751e-13    -15.569761360884 -8.5265e-14  2.8688e-09    2/Y
    ----------------------------------------------------------------------------------------

  A miracle has come to pass: MCSCF iterations have converged!

  Performing final CI Calculation using converged orbitals

  ==> String Lists <==

    --------------------------------------------------------
    number of alpha electrons                              1
    number of beta electrons                               1
    number of alpha strings                                2
    number of beta strings                                 2
    --------------------------------------------------------

  ==> FCI Solver <==

    --------------------------------------------------------
    Spin adapt                                         FALSE
    Number of determinants                                 2
    Symmetry                                               0
    Multiplicity                                           1
    Number of roots                                        1
    Target root                                            0
    --------------------------------------------------------

  ==> Initial Guess <==

  Initial guess determinants:         2

  Classification of the initial guess solutions

  Number   2S+1   Selected
  ------------------------
     2       1       *
  ------------------------

    Spin    Root           Energy        <S^2>    Status
  -------------------------------------------------------
   singlet    0      -15.569761360884  +0.000000  added
  -------------------------------------------------------

  ==> Davidson-Liu Solver <==

    --------------------------------------------------------
    Print level                                      Default
    Energy convergence threshold                   1.000e-12
    Residual convergence threshold                 1.000e-06
    Schmidt orthogonality threshold                1.000e-12
    Schmidt discard threshold                      1.000e-07
    Size of the space                                      2
    Number of roots                                        1
    Maximum number of iterations                         100
    Collapse subspace size                                 2
    Maximum subspace size                                  2
    --------------------------------------------------------

  Davidson-Liu solver: adding 1 guess vectors
  Iteration     Average Energy            max(∆E)            max(Residual)  Vectors
  ---------------------------------------------------------------------------------
       0      -15.569761360884        0.000000000000        0.000000000000      1
  ---------------------------------------------------------------------------------

  ==> Root No. 0 <==

    0 2     -0.98110295
    2 0      0.19348642

    Total Energy:     -15.569761360884, <S^2>: 0.000000
    Time for FCI:       0.000136416000

  ==> Energy Summary <==

    Multi.(2ms)  Irrep.  No.               Energy      <S^2>
    --------------------------------------------------------
       1  (  0)    A1     0      -15.569761360884   0.000000
    --------------------------------------------------------

  ==> Natural Orbitals <==

        1B2     1.925126      3A1     0.074874  


  ==> Dipole Moments [e a0] (Nuclear + Electronic) for Singlet (Ms = 0) A1 <==

       State           DM_X           DM_Y           DM_Z           |DM|
    --------------------------------------------------------------------
         0A1    -0.00000000     0.00000000    -3.38755570     3.38755570
    --------------------------------------------------------------------
     Nuclear     0.00000000     0.00000000     2.25832350     2.25832350
    --------------------------------------------------------------------

  ==> Natural Orbitals <==

        1B2     1.925126      3A1     0.074874  


  ==> Quadrupole Moments [e a0^2] (Nuclear + Electronic) for Singlet (Ms = 0) A1 <==

       State          QM_XX          QM_XY          QM_XZ          QM_YY          QM_YZ          QM_ZZ
    --------------------------------------------------------------------------------------------------
         0A1    -4.45202918     0.00000000    -0.00000000    -8.86111356     0.00000000    -8.14727746
    --------------------------------------------------------------------------------------------------
     Nuclear     0.00000000    -0.00000000     0.00000000     3.86420000     0.00000000     9.18333750
    --------------------------------------------------------------------------------------------------

  ==> Natural Orbitals <==

        1B2     1.925126      3A1     0.074874  

  Canonicalizing final MCSCF orbitals

  ==> Semicanonicalize Orbitals <==

    MIX INACTIVE ORBITALS          TRUE
    MIX GAS ACTIVE ORBITALS       FALSE
    GAS1                          CANONICAL
    INACTIVE_DOCC                 CANONICAL
    INACTIVE_UOCC                 CANONICAL

    Off-Diag. Elements       Max           2-Norm
    ------------------------------------------------
    GAS1                 0.0000000000   0.0000000000
    INACTIVE_DOCC        0.0044603705   0.0063079165
    INACTIVE_UOCC        0.0516870865   0.1067328045
    ------------------------------------------------

    Canonicalization test failed

  Timing for orbital canonicalization:                        0.000 s.
  Integrals are about to be updated.
  Computing Conventional Integrals	Presorting SO-basis two-electron integrals.
	Sorting File: SO Ints (nn|nn) nbuckets = 1
	Constructing frozen core operators
	Starting first half-transformation.
	Sorting half-transformed integrals.
	First half integral transformation complete.
	Starting second half-transformation.
	Two-electron integral transformation complete.

  Integral transformation done. 0.00248471 s
  Reading the two-electron integrals from disk
  Size of two-electron integrals:   0.000638 GB
  Timing for conventional integral transformation:            0.008 s.
  Timing for freezing core and virtual orbitals:              0.000 s.
  Integrals update took     0.008 s.

  The integrals are not consistent with the orbitals. Re-transforming them.


  ==> String Lists <==

    --------------------------------------------------------
    number of alpha electrons                              1
    number of beta electrons                               1
    number of alpha strings                                2
    number of beta strings                                 2
    --------------------------------------------------------

  ==> FCI Solver <==

    --------------------------------------------------------
    Spin adapt                                         FALSE
    Number of determinants                                 2
    Symmetry                                               0
    Multiplicity                                           1
    Number of roots                                        1
    Target root                                            0
    --------------------------------------------------------

  ==> Initial Guess <==

  Initial guess determinants:         2

  Classification of the initial guess solutions

  Number   2S+1   Selected
  ------------------------
     2       1       *
  ------------------------

    Spin    Root           Energy        <S^2>    Status
  -------------------------------------------------------
   singlet    0      -15.569761360884  +0.000000  added
  -------------------------------------------------------

  ==> Davidson-Liu Solver <==

    --------------------------------------------------------
    Print level                                      Default
    Energy convergence threshold                   1.000e-06
    Residual convergence threshold                 1.000e-06
    Schmidt orthogonality threshold                1.000e-12
    Schmidt discard threshold                      1.000e-07
    Size of the space                                      2
    Number of roots                                        1
    Maximum number of iterations                         100
    Collapse subspace size                                 2
    Maximum subspace size                                  2
    --------------------------------------------------------

  Davidson-Liu solver: adding 1 guess vectors
  Iteration     Average Energy            max(∆E)            max(Residual)  Vectors
  ---------------------------------------------------------------------------------
       0      -15.569761360884       15.569761360884        0.000000000000      1
       1      -15.569761360884        0.000000000000        0.000000000000      2
  ---------------------------------------------------------------------------------

  ==> Root No. 0 <==

    0 2      0.98110295
    2 0     -0.19348642

    Total Energy:     -15.569761360884, <S^2>: 0.000000
    Time for FCI:       0.000154667000

  ==> Energy Summary <==

    Multi.(2ms)  Irrep.  No.               Energy      <S^2>
    --------------------------------------------------------
       1  (  0)    A1     0      -15.569761360884   0.000000
    --------------------------------------------------------

  ==> Natural Orbitals <==

        1B2     1.925126      3A1     0.074874  


  ==> Dipole Moments [e a0] (Nuclear + Electronic) for Singlet (Ms = 0) A1 <==

       State           DM_X           DM_Y           DM_Z           |DM|
    --------------------------------------------------------------------
         0A1    -0.00000000     0.00000000    -1.55403698     1.55403698
    --------------------------------------------------------------------
     Nuclear     0.00000000     0.00000000     2.25832350     2.25832350
    --------------------------------------------------------------------

  ==> Natural Orbitals <==

        1B2     1.925126      3A1     0.074874  


  ==> Quadrupole Moments [e a0^2] (Nuclear + Electronic) for Singlet (Ms = 0) A1 <==

       State          QM_XX          QM_XY          QM_XZ          QM_YY          QM_YZ          QM_ZZ
    --------------------------------------------------------------------------------------------------
         0A1    -5.18497958     0.00000000     0.00000000    -8.85115814     0.00000000    -4.93277108
    --------------------------------------------------------------------------------------------------
     Nuclear     0.00000000    -0.00000000     0.00000000     3.86420000     0.00000000     9.18333750
    --------------------------------------------------------------------------------------------------

  ==> Natural Orbitals <==

        1B2     1.925126      3A1     0.074874  


  ==> Semicanonicalize Orbitals <==

    MIX INACTIVE ORBITALS         FALSE
    MIX GAS ACTIVE ORBITALS       FALSE
    FROZEN_DOCC                   CANONICAL
    FROZEN_UOCC                   CANONICAL
    GAS1                          CANONICAL
    RESTRICTED_DOCC               CANONICAL
    RESTRICTED_UOCC               CANONICAL

    Off-Diag. Elements       Max           2-Norm
    ------------------------------------------------
    GAS1                 0.0000000000   0.0000000000
    RESTRICTED_DOCC      0.0000000000   0.0000000000
    RESTRICTED_UOCC      0.0000000000   0.0000000000
    ------------------------------------------------

    Canonicalization test passed

  Orbitals are already semicanonicalized.
  Timing for orbital canonicalization:                        0.000 s.

  ==> Multireference Driven Similarity Renormalization Group <==

    Computing Fock matrix and cleaning JK ........... Done
    Reading DSRG options ............................ Done
    Setting ambit MO space .......................... Done
    Preparing tensors for density cumulants ......... Done
    Filling Fock matrix from ForteIntegrals ......... Done

              ----------------------------------------------------
                    MR-DSRG Second-Order Perturbation Theory
                Chenyang Li, Kevin Hannon, Francesco Evangelista
              ----------------------------------------------------

    References:
      u-DSRG-MRPT2:    J. Chem. Theory Comput. 2015, 11, 2097.
      (pr-)DSRG-MRPT2: J. Chem. Phys. 2017, 146, 124132.

  ==> Calculation Information <==

    --------------------------------------------------------
    int_type                                    CONVENTIONAL
    source operator                                 STANDARD
    reference relaxation                                NONE
    state_type                                STATE-SPECIFIC
    form Hbar3                                         FALSE
    flow parameter                                 1.000e+10
    taylor expansion threshold                     1.000e-03
    intruder_tamp                                  1.000e-01
    ntamp                                                 15
    --------------------------------------------------------
  =>** Before self.dsrg_solver.compute_energy() **<=


  ==> Checking Semicanonical Orbitals <==

    Block             Fa Max         Fa Mean           Fb Max         Fb Mean
    -------------------------------------------------------------------------
    CORE        0.0000000000    0.0000000000     0.0000000000    0.0000000000
    VIRTUAL     0.0000000000    0.0000000000     0.0000000000    0.0000000000
    GAS1        0.0000000000    0.0000000000     0.0000000000    0.0000000000
    -------------------------------------------------------------------------
    Orbitals are semi-canonicalized.

  ==> Computing DSRG-MRPT2 ... <==

    Computing T2 amplitudes                  ...  Done. Timing        0.000470 s
    Computing T1 amplitudes                  ...  Done. Timing        0.000611 s
    Renormalizing two-electron integrals     ...  Done. Timing        0.000168 s
    Renormalizing Fock matrix elements       ...  Done. Timing        0.000629 s
    Computing <[F, T1]>                      ...  Done. Timing        0.000294 s
    Computing <[F, T2]>                      ...  Done. Timing        0.000865 s
    Computing <[V, T1]>                      ...  Done. Timing        0.001043 s
    Computing <[V, T2]> (C_2)^4              ...  Done. Timing        0.005852 s
    Computing <[V, T2]> C_4 (C_2)^2 HH       ...  Done. Timing        0.001423 s
    Computing <[V, T2]> C_4 (C_2)^2 PP       ...  Done. Timing        0.001451 s
    Computing <[V, T2]> C_4 (C_2)^2 PH       ...  Done. Timing        0.006092 s

  ==> Excitation Amplitudes Summary <==

    Active Indices:    2    9 
    Largest T1 amplitudes for spin case A:
       i       a                  i       a                  i       a               
    --------------------------------------------------------------------------------
    [  2       4    ]-0.419524 [  2       3    ]-0.240357 [  2       5    ]-0.149094 
    [  1       2    ]-0.010361 [  9      10    ]-0.006691 [  9      11    ]-0.002598 
    [  2       6    ] 0.001953 [  0       2    ]-0.000087 [  9      12    ]-0.000037 
    [  1       4    ] 0.000000 [  1       5    ] 0.000000 [  0       4    ] 0.000000 
    [  1       3    ] 0.000000 [  0       6    ] 0.000000 [  0       3    ]-0.000000 
    --------------------------------------------------------------------------------
    Norm of T1A vector: (nonzero elements: 17)                    0.506125575613630.
    --------------------------------------------------------------------------------
    Largest T1 amplitudes for spin case B:
       _       _                  _       _                  _       _               
       i       a                  i       a                  i       a               
    --------------------------------------------------------------------------------
    [  2       4    ]-0.419524 [  2       3    ]-0.240357 [  2       5    ]-0.149094 
    [  1       2    ]-0.010361 [  9      10    ]-0.006691 [  9      11    ]-0.002598 
    [  2       6    ] 0.001953 [  0       2    ]-0.000087 [  9      12    ]-0.000037 
    [  1       4    ] 0.000000 [  1       5    ] 0.000000 [  0       4    ] 0.000000 
    [  1       3    ] 0.000000 [  0       6    ] 0.000000 [  0       3    ]-0.000000 
    --------------------------------------------------------------------------------
    Norm of T1B vector: (nonzero elements: 17)                    0.506125575613630.
    --------------------------------------------------------------------------------
    Largest T2 amplitudes for spin case AA:
     i   j   a   b              i   j   a   b              i   j   a   b             
    --------------------------------------------------------------------------------
    [  2   9   3   9] -0.175142 [  1   2   9  10] -0.069541 [  2   9   4   9] -0.065079 
    [  1   2   2   4]  0.059606 [  2   9   2  10] -0.040610 [  1   9   3   9] -0.039139 
    [  2   9   4  10]  0.036818 [  1   9   4   9] -0.034582 [  1   2   2   3]  0.029577 
    [  2   9   5   9] -0.028780 [  1   9   2   9]  0.024460 [  1   9   2  10] -0.024323 
    [  2   9   3  10] -0.017722 [  1   2   9  11]  0.012375 [  2   9   2  11] -0.012181 
    --------------------------------------------------------------------------------
    Norm of T2AA vector: (nonzero elements: 440)                  0.460056525183218.
    --------------------------------------------------------------------------------
    Largest T2 amplitudes for spin case AB:
         _       _                  _       _                  _       _             
     i   j   a   b              i   j   a   b              i   j   a   b             
    --------------------------------------------------------------------------------
    [  1   2   9   9] -0.359350 [  2   2   7   7] -0.344787 [  2   2   2   3] -0.266810 
    [  1   1   9   9] -0.207460 [  2   9   3   9] -0.201663 [  2   2  10  10] -0.146511 
    [  1   2   9  10] -0.141350 [  2   9   4   9] -0.100855 [  2   2   4   4] -0.100842 
    [  2   2   2   4]  0.081446 [  2   2   3   3] -0.074732 [  9   9  10  10] -0.074235 
    [  1   9   2   9]  0.058356 [  1   9   2  10] -0.055396 [  2   9   4  10]  0.052945 
    --------------------------------------------------------------------------------
    Norm of T2AB vector: (nonzero elements: 682)                  0.934888228933914.
    --------------------------------------------------------------------------------
    Largest T2 amplitudes for spin case BB:
     _   _   _   _              _   _   _   _              _   _   _   _             
     i   j   a   b              i   j   a   b              i   j   a   b             
    --------------------------------------------------------------------------------
    [  2   9   3   9] -0.175142 [  1   2   9  10] -0.069541 [  2   9   4   9] -0.065079 
    [  1   2   2   4]  0.059606 [  2   9   2  10] -0.040610 [  1   9   3   9] -0.039139 
    [  2   9   4  10]  0.036818 [  1   9   4   9] -0.034582 [  1   2   2   3]  0.029577 
    [  2   9   5   9] -0.028780 [  1   9   2   9]  0.024460 [  1   9   2  10] -0.024323 
    [  2   9   3  10] -0.017722 [  1   2   9  11]  0.012375 [  2   9   2  11] -0.012181 
    --------------------------------------------------------------------------------
    Norm of T2BB vector: (nonzero elements: 440)                  0.460056525183218.
    --------------------------------------------------------------------------------

  ==> Possible Intruders <==

    T1 amplitudes larger than 0.1000 for spin case A:
        Amplitude         Value                  Denominator              
    ----------------------------------------------------------------------
    [  2       4    ]   -0.41952352 (  0.064261 -   0.353880 =  -0.289619)
    [  2       3    ]   -0.24035656 (  0.064261 -   0.264471 =  -0.200210)
    [  2       5    ]   -0.14909447 (  0.064261 -   1.266276 =  -1.202015)
    ----------------------------------------------------------------------
    T1 amplitudes larger than 0.1000 for spin case B:
        Amplitude         Value                  Denominator              
    ----------------------------------------------------------------------
    [  2       4    ]   -0.41952352 (  0.064261 -   0.353880 =  -0.289619)
    [  2       3    ]   -0.24035656 (  0.064261 -   0.264471 =  -0.200210)
    [  2       5    ]   -0.14909447 (  0.064261 -   1.266276 =  -1.202015)
    ----------------------------------------------------------------------
    T2 amplitudes larger than 0.1000 for spin case AA:
        Amplitude         Value                               Denominator                           
    ------------------------------------------------------------------------------------------------
    [  2   9   3   9]   -0.17514192 (  0.064261 +  -0.244890 -   0.264471 -  -0.244890 =  -0.200210)
    ------------------------------------------------------------------------------------------------
    T2 amplitudes larger than 0.1000 for spin case AB:
        Amplitude         Value                               Denominator                           
    ------------------------------------------------------------------------------------------------
    [  1   2   9   9]   -0.35935028 ( -0.500747 +   0.064261 -  -0.244890 -  -0.244890 =   0.053294)
    [  2   2   7   7]   -0.34478654 (  0.064261 +   0.064261 -   0.148361 -   0.148361 =  -0.168200)
    [  2   2   2   3]   -0.26681003 (  0.064261 +   0.064261 -   0.064261 -   0.264471 =  -0.200210)
    [  1   1   9   9]   -0.20745991 ( -0.500747 +  -0.500747 -  -0.244890 -  -0.244890 =  -0.511713)
    [  2   9   3   9]   -0.20166307 (  0.064261 +  -0.244890 -   0.264471 -  -0.244890 =  -0.200210)
    [  2   2  10  10]   -0.14651137 (  0.064261 +   0.064261 -   0.280038 -   0.280038 =  -0.431553)
    [  1   2   9  10]   -0.14135019 ( -0.500747 +   0.064261 -  -0.244890 -   0.280038 =  -0.471633)
    [  2   9   4   9]   -0.10085481 (  0.064261 +  -0.244890 -   0.353880 -  -0.244890 =  -0.289619)
    [  2   2   4   4]   -0.10084179 (  0.064261 +   0.064261 -   0.353880 -   0.353880 =  -0.579237)
    ------------------------------------------------------------------------------------------------
    T2 amplitudes larger than 0.1000 for spin case BB:
        Amplitude         Value                               Denominator                           
    ------------------------------------------------------------------------------------------------
    [  2   9   3   9]   -0.17514192 (  0.064261 +  -0.244890 -   0.264471 -  -0.244890 =  -0.200210)
    ------------------------------------------------------------------------------------------------

  ==> DSRG-MRPT2 Energy Summary <==

    E0 (reference)                 =    -15.569761360883600
    <[F, T1]>                      =     -0.006866404418901
    <[F, T2]>                      =      0.003999652096521
    <[V, T1]>                      =      0.006866407020214
    <[V, T2]> (C_2)^4              =     -0.056789259378301
    <[V, T2]> C_4 (C_2)^2 HH       =      0.002566547182894
    <[V, T2]> C_4 (C_2)^2 PP       =      0.003883715433546
    <[V, T2]> C_4 (C_2)^2 PH       =     -0.012940866639724
    <[V, T2]> C_6 C_2              =      0.000000000000000
    <[V, T2]>                      =     -0.063279863401585
    DSRG-MRPT2 correlation energy  =     -0.059280208703751
    DSRG-MRPT2 total energy        =    -15.629041569587352
    max(T1)                        =      0.419523516043557
    max(T2)                        =      0.359350277892743
    ||T1||                         =      0.715769653296685
    ||T2||                         =      1.979739380606467

  Energy took      0.020 s

  =>** After self.dsrg_solver.compute_energy() **<=

  Semicanonical orbitals must be used!


  ==> Total Timings (s) for Computing Commutators <==

           [H1, T1]    [H1, T2]    [H2, T1]    [H2, T2]  
    -----------------------------------------------------
    -> C0       0.000       0.001       0.001       0.015
    -> C1       0.000       0.000       0.000       0.000
    -> C2                   0.000       0.000       0.000
    -----------------------------------------------------


  Time to prepare integrals:        0.138 seconds
  Time to run job          :        0.073 seconds
  Total                    :        0.211 seconds
    DSRG-MRPT2 energy.....................................................................PASSED

    Psi4 stopped on: Thursday, 08 August 2024 04:49PM
    Psi4 wall time for execution: 0:00:00.66

*** Psi4 exiting successfully. Buy a developer a beer!
