
    -----------------------------------------------------------------------
          Psi4: An Open-Source Ab Initio Electronic Structure Package
                               Psi4 undefined 

                         Git: Rev {master} 70252b7 


    R. M. Parrish, L. A. Burns, D. G. A. Smith, A. C. Simmonett,
    A. E. DePrince III, E. G. Hohenstein, U. Bozkaya, A. Yu. Sokolov,
    R. Di Remigio, R. M. Richard, J. F. Gonthier, A. M. James,
    H. R. McAlexander, A. Kumar, M. Saitow, X. Wang, B. P. Pritchard,
    P. Verma, H. F. Schaefer III, K. Patkowski, R. A. King, E. F. Valeev,
    F. A. Evangelista, J. M. Turney, T. D. Crawford, and C. D. Sherrill,
    J. Chem. Theory Comput. 13(7) pp 3185--3197 (2017).
    (doi: 10.1021/acs.jctc.7b00174)


                         Additional Contributions by
    P. Kraus, H. Kruse, M. H. Lechner, M. C. Schieber, R. A. Shaw,
    A. Alenaizan, R. Galvelis, Z. L. Glick, S. Lehtola, and J. P. Misiewicz

    -----------------------------------------------------------------------


    Psi4 started on: Monday, 24 February 2020 02:29PM

    Process ID: 89223
    Host:       CHE-FEVANGE-01I (2)
    PSIDATADIR: /Users/fevange/Source/psi4/objdir-Debug/stage/share/psi4
    Memory:     500.0 MiB
    Threads:    1
    
  ==> Input File <==

--------------------------------------------------------------------------
#! Generated using commit GITCOMMIT

import forte
memory 1 gb

r_scf = -154.809201458319
r_0ag = -154.847006095903

molecule butadiene{
0 1
H  1.080977 -2.558832  0.000000
H -1.080977  2.558832  0.000000
H  2.103773 -1.017723  0.000000
H -2.103773  1.017723  0.000000
H -0.973565 -1.219040  0.000000
H  0.973565  1.219040  0.000000
C  0.000000  0.728881  0.000000
C  0.000000 -0.728881  0.000000
C  1.117962 -1.474815  0.000000
C -1.117962  1.474815  0.000000

symmetry c1
}

set {
  reference         rhf
  scf_type          pk
  basis             def2-svp
  e_convergence     10
  d_convergence     8
  maxiter           100
}
Escf, wfn = energy('scf', return_wfn=True)
compare_values(r_scf, Escf, 8, "SCF energy")

set forte{
  active_space_solver aci
  rotate_mos          [1,17,20]
  orbital_type        local
  localize_space      [14,17]
  e_convergence       12
  frozen_docc         [4]
  restricted_docc     [9]
  active              [4]
  sigma               0.0001
  ms                  0.0
  multiplicity        1
  nroot               1
  root_sym            0
  charge              0
}
#set cubeprop_tasks ['orbitals']
#set cubeprop_orbitals [14,15,16,17]

E,awfn = energy('forte', ref_wfn=wfn, return_wfn=True)
compare_values(r_0ag, E, 8, "ACI ENERGY")
#cubeprop(awfn)
--------------------------------------------------------------------------

  Memory set to 953.674 MiB by Python driver.

Scratch directory: /tmp/

*** tstart() called on CHE-FEVANGE-01I (2)
*** at Mon Feb 24 14:29:36 2020

   => Loading Basis Set <=

    Name: DEF2-SVP
    Role: ORBITAL
    Keyword: BASIS
    atoms 1-6  entry H          line    15 file /Users/fevange/Source/psi4/objdir-Debug/stage/share/psi4/basis/def2-svp.gbs 
    atoms 7-10 entry C          line    90 file /Users/fevange/Source/psi4/objdir-Debug/stage/share/psi4/basis/def2-svp.gbs 


         ---------------------------------------------------------
                                   SCF
               by Justin Turney, Rob Parrish, Andy Simmonett
                          and Daniel G. A. Smith
                              RHF Reference
                        1 Threads,    953 MiB Core
         ---------------------------------------------------------

  ==> Geometry <==

    Molecular point group: c1
    Full point group: C2h

    Geometry (in Angstrom), charge = 0, multiplicity = 1:

       Center              X                  Y                   Z               Mass       
    ------------   -----------------  -----------------  -----------------  -----------------
         H            1.080977000000    -2.558832000000     0.000000000000     1.007825032230
         H           -1.080977000000     2.558832000000     0.000000000000     1.007825032230
         H            2.103773000000    -1.017723000000     0.000000000000     1.007825032230
         H           -2.103773000000     1.017723000000     0.000000000000     1.007825032230
         H           -0.973565000000    -1.219040000000     0.000000000000     1.007825032230
         H            0.973565000000     1.219040000000     0.000000000000     1.007825032230
         C            0.000000000000     0.728881000000     0.000000000000    12.000000000000
         C            0.000000000000    -0.728881000000     0.000000000000    12.000000000000
         C            1.117962000000    -1.474815000000     0.000000000000    12.000000000000
         C           -1.117962000000     1.474815000000     0.000000000000    12.000000000000

  Running in c1 symmetry.

  Rotational constants: A =      1.39831  B =      0.14741  C =      0.13335 [cm^-1]
  Rotational constants: A =  41920.28303  B =   4419.18036  C =   3997.74357 [MHz]
  Nuclear repulsion =  103.516094180281002

  Charge       = 0
  Multiplicity = 1
  Electrons    = 30
  Nalpha       = 15
  Nbeta        = 15

  ==> Algorithm <==

  SCF Algorithm Type is PK.
  DIIS enabled.
  MOM disabled.
  Fractional occupation disabled.
  Guess Type is SAD.
  Energy threshold   = 1.00e-10
  Density threshold  = 1.00e-08
  Integral threshold = 0.00e+00

  ==> Primary Basis <==

  Basis Set: DEF2-SVP
    Blend: DEF2-SVP
    Number of shells: 42
    Number of basis function: 86
    Number of Cartesian functions: 90
    Spherical Harmonics?: true
    Max angular momentum: 2

  ==> Pre-Iterations <==

   -------------------------------------------------------
    Irrep   Nso     Nmo     Nalpha   Nbeta   Ndocc  Nsocc
   -------------------------------------------------------
     A         86      86       0       0       0       0
   -------------------------------------------------------
    Total      86      86      15      15      15       0
   -------------------------------------------------------

  ==> Integral Setup <==

  Using in-core PK algorithm.
   Calculation information:
      Number of atoms:                  10
      Number of AO shells:              42
      Number of primitives:             78
      Number of atomic orbitals:        90
      Number of basis functions:        86

      Integral cutoff                 1.00e-12
      Number of threads:                 1

  Performing in-core PK
  Using 13998822 doubles for integral storage.
  We computed 385288 shell quartets total.
  Whereas there are 408156 unique shell quartets.

  ==> DiskJK: Disk-Based J/K Matrices <==

    J tasked:                  Yes
    K tasked:                  Yes
    wK tasked:                  No
    Memory [MiB]:              715
    Schwarz Cutoff:          1E-12

    OpenMP threads:              1

  Minimum eigenvalue in the overlap matrix is 1.8516788366E-03.
  Reciprocal condition number of the overlap matrix is 3.3058390505E-04.
    Using symmetric orthogonalization.
  SCF Guess: Superposition of Atomic Densities via on-the-fly atomic UHF.

  ==> Iterations <==

                        Total Energy        Delta E     RMS |[F,P]|

   @RHF iter SAD:  -153.91743954945210   -1.53917e+02   0.00000e+00 
   @RHF iter   1:  -154.72073521706000   -8.03296e-01   4.05929e-03 DIIS
   @RHF iter   2:  -154.79941720605626   -7.86820e-02   1.43480e-03 DIIS
   @RHF iter   3:  -154.80835681627073   -8.93961e-03   3.47161e-04 DIIS
   @RHF iter   4:  -154.80913545803770   -7.78642e-04   1.23792e-04 DIIS
   @RHF iter   5:  -154.80919875052950   -6.32925e-05   1.64070e-05 DIIS
   @RHF iter   6:  -154.80920136757419   -2.61704e-06   2.53574e-06 DIIS
   @RHF iter   7:  -154.80920145383149   -8.62573e-08   6.15428e-07 DIIS
   @RHF iter   8:  -154.80920145855816   -4.72667e-09   1.53544e-07 DIIS
   @RHF iter   9:  -154.80920145879182   -2.33655e-10   4.04060e-08 DIIS
   @RHF iter  10:  -154.80920145880873   -1.69109e-11   9.47541e-09 DIIS
  Energy and wave function converged.


  ==> Post-Iterations <==

    Orbital Energies [Eh]
    ---------------------

    Doubly Occupied:                                                      

       1A    -11.243115     2A    -11.242402     3A    -11.236533  
       4A    -11.236508     5A     -1.078931     6A     -0.987457  
       7A     -0.818069     8A     -0.748132     9A     -0.643715  
      10A     -0.634702    11A     -0.558613    12A     -0.544130  
      13A     -0.495367    14A     -0.443875    15A     -0.322203  

    Virtual:                                                              

      16A      0.114604    17A      0.202404    18A      0.208193  
      19A      0.218272    20A      0.237812    21A      0.269023  
      22A      0.279205    23A      0.295457    24A      0.444533  
      25A      0.459483    26A      0.535098    27A      0.555485  
      28A      0.580928    29A      0.602941    30A      0.625158  
      31A      0.686928    32A      0.724648    33A      0.746358  
      34A      0.756693    35A      0.828068    36A      0.846995  
      37A      0.874224    38A      0.881505    39A      0.900856  
      40A      0.905545    41A      0.918921    42A      0.950799  
      43A      1.022838    44A      1.088126    45A      1.090347  
      46A      1.227137    47A      1.363898    48A      1.392577  
      49A      1.430279    50A      1.457741    51A      1.493521  
      52A      1.526441    53A      1.555811    54A      1.865556  
      55A      1.872195    56A      1.900411    57A      1.926357  
      58A      1.929125    59A      1.996993    60A      2.040038  
      61A      2.049096    62A      2.079197    63A      2.084842  
      64A      2.176176    65A      2.185964    66A      2.317107  
      67A      2.320522    68A      2.361230    69A      2.367522  
      70A      2.438919    71A      2.573505    72A      2.622184  
      73A      2.625461    74A      2.667799    75A      2.737832  
      76A      2.858975    77A      2.862270    78A      2.913273  
      79A      3.057000    80A      3.101298    81A      3.171681  
      82A      3.173502    83A      3.318628    84A      3.380894  
      85A      3.713573    86A      3.734697  

    Final Occupation by Irrep:
              A 
    DOCC [    15 ]

  @RHF Final Energy:  -154.80920145880873

   => Energetics <=

    Nuclear Repulsion Energy =            103.5160941802810015
    One-Electron Energy =                -412.1830893165218868
    Two-Electron Energy =                 153.8577936774321415
    Total Energy =                       -154.8092014588087295

Computation Completed


Properties will be evaluated at   0.000000,   0.000000,   0.000000 [a0]

Properties computed using the SCF density matrix

  Nuclear Dipole Moment: [e a0]
     X:     0.0000      Y:     0.0000      Z:     0.0000

  Electronic Dipole Moment: [e a0]
     X:    -0.0000      Y:    -0.0000      Z:    -0.0000

  Dipole Moment: [e a0]
     X:    -0.0000      Y:    -0.0000      Z:    -0.0000     Total:     0.0000

  Dipole Moment: [D]
     X:    -0.0000      Y:    -0.0000      Z:    -0.0000     Total:     0.0000


*** tstop() called on CHE-FEVANGE-01I (2) at Mon Feb 24 14:29:40 2020
Module time:
	user time   =       3.59 seconds =       0.06 minutes
	system time =       0.07 seconds =       0.00 minutes
	total time  =          4 seconds =       0.07 minutes
Total time:
	user time   =       3.59 seconds =       0.06 minutes
	system time =       0.07 seconds =       0.00 minutes
	total time  =          4 seconds =       0.07 minutes
    SCF energy........................................................PASSED

Scratch directory: /tmp/
   => Loading Basis Set <=

    Name: STO-3G
    Role: ORBITAL
    Keyword: MINAO_BASIS
    atoms 1-6  entry H          line    19 file /Users/fevange/Source/psi4/objdir-Debug/stage/share/psi4/basis/sto-3g.gbs 
    atoms 7-10 entry C          line    61 file /Users/fevange/Source/psi4/objdir-Debug/stage/share/psi4/basis/sto-3g.gbs 


  Forte
  ----------------------------------------------------------------------------
  A suite of quantum chemistry methods for strongly correlated electrons

    git branch: dicto - git commit: 0bb42bf1

  Developed by:
    Francesco A. Evangelista, Chenyang Li, Kevin P. Hannon,
    Jeffrey B. Schriber, Tianyuan Zhang, Chenxi Cai,
    Nan He, Nicholas Stair, Shuhe Wang, Renke Huang
  ----------------------------------------------------------------------------

  Size of Determinant class: 256 bits
  Read options for space FROZEN_DOCC
  Read options for space RESTRICTED_DOCC
  Read options for space ACTIVE

  ==> MO Space Information <==

  -------------------------------
                        A   Sum
  -------------------------------
    FROZEN_DOCC         4     4
    RESTRICTED_DOCC     9     9
    ACTIVE              4     4
    RESTRICTED_UOCC    69    69
    FROZEN_UOCC         0     0
    Total              86    86
  -------------------------------


  ==> ROTATING MOS <==

  IRREP  MO_1  MO_2
   0   16   19


  ==> Integral Transformation <==

  Number of molecular orbitals:                    86
  Number of correlated molecular orbitals:         82
  Number of frozen occupied orbitals:               4
  Number of frozen unoccupied orbitals:             0
  Two-electron integral type:              Conventional


  Overall Conventional Integrals timings

  Using in-core PK algorithm.
   Calculation information:
      Number of atoms:                  10
      Number of AO shells:              42
      Number of primitives:             78
      Number of atomic orbitals:        90
      Number of basis functions:        86

      Integral cutoff                 1.00e-12
      Number of threads:                 1

  Performing in-core PK
  Using 13998822 doubles for integral storage.
  We computed 385288 shell quartets total.
  Whereas there are 408156 unique shell quartets.


  Conventional integrals take 30.35304054 s

  ==> ORBITAL LOCALIZER <==

  Localize method: PIPEK_MEZEY
  Localizing orbitals:  14 15 16 17
  ==> Pipek-Mezey Localizer <==

    Convergence =   1.000E-12
    Maxiter     =        1000

    Iteration                   Metric       Residual
    @PM    0   1.1561554577879056E+00              -
    @PM    1   2.3908332631288740E+00   1.067917E+00
    @PM    2   2.3908818042128113E+00   2.030300E-05
    @PM    3   2.3908840135173950E+00   9.240543E-07
    @PM    4   2.3908840979507779E+00   3.531471E-08
    @PM    5   2.3908841159475847E+00   7.527260E-09
    @PM    6   2.3908841206211919E+00   1.954761E-09
    @PM    7   2.3908841207981224E+00   7.400211E-11
    @PM    8   2.3908841208360077E+00   1.584571E-11
    @PM    9   2.3908841208458691E+00   4.124602E-12
    @PM   10   2.3908841208463238E+00   1.902005E-13

    PM Localizer converged.


 Integrals are about to be computed.
 Integrals are about to be updated.  Using in-core PK algorithm.
   Calculation information:
      Number of atoms:                  10
      Number of AO shells:              42
      Number of primitives:             78
      Number of atomic orbitals:        90
      Number of basis functions:        86

      Integral cutoff                 1.00e-12
      Number of threads:                 1

  Performing in-core PK
  Using 13998822 doubles for integral storage.
  We computed 385288 shell quartets total.
  Whereas there are 408156 unique shell quartets.



  ==> Summary of Active Space Solver Input <==

    Irrep.  Multi.  Nstates
    -------------------------
       A       1        1
    -------------------------
    Total number of states: 1
    -------------------------


-------------------------------------------------------------------------------
               Selected Configuration Interaction Excited States
  written by Jeffrey B. Schriber, Tianyuan Zhang and Francesco A. Evangelista
-------------------------------------------------------------------------------

  ==> Reference Information <==

  ==> Calculation Information <==

  -----------------------------------------------------------------
    Multiplicity                             1    
    Symmetry                                 0    
    Number of roots                          1    
    Ms                                       0
    Excited Algorithm                        NONE
  -----------------------------------------------------------------
  Using 1 threads
  Computing wavefunction for root 0

        ---------------------------------------------------------------
                      Adaptive Configuration Interaction
          written by Jeffrey B. Schriber and Francesco A. Evangelista
        ---------------------------------------------------------------

  ==> Reference Information <==

  There are 13 frozen orbitals.
  There are 4 active orbitals.

  ==> Calculation Information <==

  -----------------------------------------------------------------
    Multiplicity                             1    
    Symmetry                                 0    
    Number of roots                          1    
    Root used for properties                 0    
    Sigma (Eh)                               1.00e-04
    Gamma (Eh^(-1))                          1.00e+00
    Convergence threshold                    1.00e-09
    Ms                                       0
    Diagonalization algorithm                SPARSE
    Excited Algorithm                        NONE
    Project out spin contaminants            True
    Enforce spin completeness of basis       True
    Enforce complete aimed selection         True
  -----------------------------------------------------------------
  Number of active alpha electrons: 2
  Number of active beta electrons: 2
  Maximum reference space size: 1000
  Number of reference determinants: 36
  Reference generated from 4 MOs

  ---------------------------------- Cycle 0 -----------------------------------


  ==> Diagonalizing the Hamiltonian in the P space <==

  Initial P space dimension: 36
  Spin-complete dimension of the P space: 36 determinants

  ==> Computing Coupling Lists <==
  --------------------------------
        α          0.000253 s
        β          0.000197 s
        αα         0.000153 s
        ββ         0.000120 s
        αβ         0.000294 s
  --------------------------------

  Davidson-Liu solver algorithm using SigmaVectorSparseList sigma algorithm
  Time spent diagonalizing H:   0.007023 s

    P-space  CI Energy Root   0        = -154.847006096286 Eh =   0.0000 eV, S^2 = 0.000000


  ==> Finding the Q space <==

  Using SR screening algorithm
  Time spent forming F space:             0.000921
  Time spent merging thread F spaces:             0.000039
  size of hash: 0
  Time spent building sorting list: 0.000009
  Size of F space: 0
  Time spent building the model space: 0.001092
  Spin-complete dimension of the PQ space: 36

  ==> Diagonalizing the Hamiltonian in the P + Q space <==

  Number of reference roots: 1

  ==> Computing Coupling Lists <==
  --------------------------------
        α          0.000191 s
        β          0.000186 s
        αα         0.000113 s
        ββ         0.000104 s
        αβ         0.000277 s
  --------------------------------

  Davidson-Liu solver algorithm using SigmaVectorSparseList sigma algorithm
  Total time spent diagonalizing H:   0.006220 s

    PQ-space CI Energy Root   0        = -154.847006096286 Eh =   0.0000 eV, S^2 = 0.000000
    PQ-space CI Energy + EPT2 Root   0 = -154.847006096286 Eh =   0.0000 eV


  ==> Pruning the Q space <==


  Most important contributions to root   0:
    0  -0.377732 0.142681317          34 |2+-0>
    1  -0.377732 0.142681317          29 |2-+0>
    2   0.349592 0.122214835          22 |20-+>
    3   0.349592 0.122214835          27 |20+->
    4  -0.349592 0.122214774          33 |2+0->
    5  -0.349592 0.122214774          23 |2-0+>
    6   0.321173 0.103151815          21 |2002>
    7   0.207940 0.043238946          28 |2020>
    8   0.207940 0.043238896          35 |2200>
    9   0.047595 0.002265249          15 |-++->

  Spin state for root 0: S^2 = 0.000000, S = 0.000, singlet
  Cycle 0 took: 0.015209 s

  ---------------------------------- Cycle 1 -----------------------------------


  ==> Diagonalizing the Hamiltonian in the P space <==

  Initial P space dimension: 36
  Spin-complete dimension of the P space: 36 determinants

  ==> Computing Coupling Lists <==
  --------------------------------
        α          0.000186 s
        β          0.000182 s
        αα         0.000107 s
        ββ         0.000104 s
        αβ         0.000269 s
  --------------------------------

  Davidson-Liu solver algorithm using SigmaVectorSparseList sigma algorithm
  Time spent diagonalizing H:   0.006317 s

    P-space  CI Energy Root   0        = -154.847006096286 Eh =   0.0000 eV, S^2 = -0.000000


  ==> Finding the Q space <==

  Using SR screening algorithm
  Time spent forming F space:             0.000858
  Time spent merging thread F spaces:             0.000031
  size of hash: 0
  Time spent building sorting list: 0.000007
  Size of F space: 0
  Time spent building the model space: 0.000973
  Spin-complete dimension of the PQ space: 36

  ==> Diagonalizing the Hamiltonian in the P + Q space <==

  Number of reference roots: 1

  ==> Computing Coupling Lists <==
  --------------------------------
        α          0.000186 s
        β          0.000182 s
        αα         0.000109 s
        ββ         0.000129 s
        αβ         0.000275 s
  --------------------------------

  Davidson-Liu solver algorithm using SigmaVectorSparseList sigma algorithm
  Total time spent diagonalizing H:   0.005978 s

    PQ-space CI Energy Root   0        = -154.847006096286 Eh =   0.0000 eV, S^2 = -0.000000
    PQ-space CI Energy + EPT2 Root   0 = -154.847006096286 Eh =   0.0000 eV

  ***** Calculation Converged *****

  ==> ACI Natural Orbitals <==


  ==> Computing Coupling Lists <==
  --------------------------------
        α          0.000166 s
        β          0.000164 s
        1A      1.953369      2A      1.908184      3A      0.095604  
        4A      0.042843  

  ==> Excited state solver summary <==

  Iterations required:                         1
  Dimension of optimized determinant space:    36

  * Selected-CI Energy Root   0        = -154.847006096286 Eh =   0.0000 eV
  * Selected-CI Energy Root   0 + EPT2 = -154.847006096286 Eh =   0.0000 eV

  ==> Wavefunction Information <==

  Most important contributions to root   0:
    0   0.377732 0.142681317          35 |2+-0>
    1   0.377732 0.142681317          34 |2-+0>
    2  -0.349592 0.122214835          32 |20+->
    3  -0.349592 0.122214835          33 |20-+>
    4   0.349592 0.122214774          31 |2+0->
    5   0.349592 0.122214774          30 |2-0+>
    6  -0.321173 0.103151815          29 |2002>
    7  -0.207940 0.043238946          28 |2020>
    8  -0.207940 0.043238896          27 |2200>
    9  -0.047595 0.002265249          26 |-++->

  Saving information for root: 0

  ==> Energy Summary <==

    Multi.  Irrep.  No.               Energy
    -----------------------------------------
       1       A     0      -154.847006096286
    -----------------------------------------

  Time to prepare integrals: 30.38181710243225 seconds
  Time to run job          : 27.29582118988037 seconds
  Total                    : 27.29582118988037 seconds    ACI ENERGY........................................................PASSED

    Psi4 stopped on: Monday, 24 February 2020 02:30PM
    Psi4 wall time for execution: 0:01:03.36

*** Psi4 exiting successfully. Buy a developer a beer!
