    -----------------------------------------------------------------------
          Psi4: An Open-Source Ab Initio Electronic Structure Package
                              Psi4 (no tag) Driver

                          Git: Rev {master} d8d4a3e 

    J. M. Turney, A. C. Simmonett, R. M. Parrish, E. G. Hohenstein,
    F. A. Evangelista, J. T. Fermann, B. J. Mintz, L. A. Burns, J. J. Wilke,
    M. L. Abrams, N. J. Russ, M. L. Leininger, C. L. Janssen, E. T. Seidl,
    W. D. Allen, H. F. Schaefer, R. A. King, E. F. Valeev, C. D. Sherrill,
    and T. D. Crawford, WIREs Comput. Mol. Sci. 2, 556-565 (2012)
    (doi: 10.1002/wcms.93)

                         Additional Contributions by
    A. E. DePrince, M. Saitow, U. Bozkaya, A. Yu. Sokolov
    -----------------------------------------------------------------------


    Psi4 started on: Sat Oct  3 22:12:41 2015

    Process ID:  52408
    PSI4DATADIR: /Users/jeffschriber/Source/psi4/lib
    Memory level set to 256.000 MB

  ==> Input File <==

--------------------------------------------------------------------------
#! This tests the Adaptive-CI procedure using energy selection
#! Generated using commit GITCOMMIT
#

import forte

refscf = -14.839846512738 #TEST
refaci = -14.889029534777 #TEST
refacipt2 = -14.890144527518 #TEST

molecule li2{
   Li
   Li 1 2.0000
}

set {
  basis DZ
  e_convergence 10
  d_convergence 10
  r_convergence 10
}

set mcscf {
  reference rhf
  docc = [2,0,0,0,0,1,0,0]
}

set forte {
  job_type = aci
  frozen_docc = [0,0,0,0,0,0,0,0]
  SELECT_TYPE amp
  TAUP 0.01000
  TAUQ 0.001000
  nroot 1
  charge 0
}

energy('mcscf')

compare_values(refscf, get_variable("CURRENT ENERGY"),9, "SCF energy") #TEST

energy('forte')
compare_values(refaci, get_variable("ACI ENERGY"),9, "ACI energy") #TEST
compare_values(refacipt2, get_variable("ACI+PT2 ENERGY"),8, "ACI+PT2 energy") #TEST
--------------------------------------------------------------------------
/Users/jeffschriber/Source/forte/forte.so loaded.

         ------------------------------------------
           MCSCF: a self-consistent field program
            written by Francesco A. Evangelista
         ------------------------------------------ MINTS: Wrapper to libmints.
   by Justin Turney

   Calculation information:
      Number of atoms:                   2
      Number of AO shells:              12
      Number of SO shells:               6
      Number of primitives:             26
      Number of atomic orbitals:        20
      Number of basis functions:        20

      Number of irreps:                  8
      Integral cutoff                 1.00e-12
      Number of functions per irrep: [   6    0    2    2    0    6    2    2 ]

 OEINTS: Overlap, kinetic, potential, dipole, and quadrupole integrals
         stored in file 35.

      Computing two-electron integrals...done
      Computed 3747 non-zero two-electron integrals.
        Stored in file 33.



  MOs per irrep:                  Ag  B1g  B2g  B3g  Au  B1u  B2u  B3u Total
  ----------------------------------------------------------------------------
  Total                            6    0    2    2    0    6    2    2    20
  Doubly Occupied                  2    0    0    0    0    1    0    0     3
  Active/Singly Occupied           0    0    0    0    0    0    0    0     0
  ----------------------------------------------------------------------------

  Running an SCF calculation

  Generated 210 pairs
  Distributed as [54 Ag][8 B1g][24 B2g][24 B3g][8 Au][44 B1u][24 B2u][24 B3u]
  batch   0 pq = [       0,      54] index = [               0,            1485]

  Allocated the PK matrix (1485 elements) 
  Reading the two-electron integrals to form PK ... 
  batch   0 ... done.


  =========================================================================================
         Cycle          Energy               D(Energy)            D(Density)            DIIS
  ===========================================================================================
  Setting level shift to 0.000 S
  @SCF    0      -14.136059311230     -14.136059311230       0.095337958030
  Setting level shift to 0.000 S
  @SCF    1      -14.828675458728      -0.692616147499       0.058753904394
  Setting level shift to 0.000 S
  @SCF    2      -14.838795458849      -0.010120000120       0.006460980121
  Setting level shift to 0.000 S
  @SCF    3      -14.839682630439      -0.000887171590       0.002036669603
  Setting level shift to 0.000 S
  @SCF    4      -14.839815951879      -0.000133321440       0.000719150681
  Setting level shift to 0.000 S
  @SCF    5      -14.839840228698      -0.000024276819       0.000294864044
  Setting level shift to 0.000 S
  @SCF    6      -14.839845149434      -0.000004920736       0.000137859860
  Setting level shift to 0.000 S/E
  @SCF    7      -14.839846208598      -0.000001059164       0.000067970841
  Setting level shift to 0.000 S/E
  @SCF    8      -14.839846512738      -0.000000304140       0.000066215673
  Setting level shift to 0.000 S/E
  @SCF    9      -14.839846512738      -0.000000000000       0.000000051860
  Setting level shift to 0.000 S/E
  @SCF   10      -14.839846512738      -0.000000000000       0.000000002206
  Setting level shift to 0.000 S/E
  @SCF   11      -14.839846512738       0.000000000000       0.000000000181
  Setting level shift to 0.000 S/E
  @SCF   12      -14.839846512738       0.000000000000       0.000000000007
  Setting level shift to 0.000 S/E
  @SCF   13      -14.839846512738      -0.000000000000       0.000000000001
  Setting level shift to 0.000 S/E
  @SCF   14      -14.839846512738       0.000000000000       0.000000000000
  Setting level shift to 0.000 S/E
  @SCF   15      -14.839846512738       0.000000000000       0.000000000000
  Setting level shift to 0.000 S/E
  @SCF   16      -14.839846512738      -0.000000000000       0.000000000000
  =========================================================================================

      * SCF total energy   =     -14.839846512738


  End of SCF
  MOs orthonormality check passed.

  Orbitals are canonicalized as:
  inactive (docc + uocc) : Fock(core)
  active   (actv)        : Fock(core)

  =========================================================================
  Eigenvalues (Eh)
  -------------------------------------------------------------------------
  Doubly occupied orbitals
      1     -2.470948  Ag      2     -2.465815 B1u      3     -0.194380  Ag
  Unoccupied orbitals
      4      0.012721 B1u      5      0.026034 B2u      6      0.026034 B3u
      7      0.049075  Ag      8      0.069563 B2g      9      0.069563 B3g
     10      0.080420 B1u     11      0.130086  Ag     12      0.137741 B2u
     13      0.137741 B3u     14      0.171764  Ag     15      0.242777 B2g
     16      0.242777 B3g     17      0.246004 B1u     18      0.480486 B1u
     19      1.695539  Ag     20      1.801802 B1u
  =========================================================================


  MCSCF Execution Completed.


*** tstop() called on Jeffs-MacBook-Pro.local at Sat Oct  3 22:12:41 2015
Module time:
	user time   =       0.19 seconds =       0.00 minutes
	system time =       0.07 seconds =       0.00 minutes
	total time  = 1443924761 seconds = 24065412.68 minutes
Total time:
	user time   =       0.19 seconds =       0.00 minutes
	system time =       0.07 seconds =       0.00 minutes
	total time  = 1443924761 seconds = 24065412.68 minutes
Reading options from the FORTE block
Calling plugin /Users/jeffschriber/Source/forte/forte.so.


  ==> MO Space Information <==

  Read options for space FROZEN_DOCC
  -------------------------------------------------------------------------
                       Ag   B1g   B2g   B3g    Au   B1u   B2u   B3u   Sum
  -------------------------------------------------------------------------
    FROZEN_DOCC         0     0     0     0     0     0     0     0     0
    RESTRICTED_DOCC     0     0     0     0     0     0     0     0     0
    ACTIVE              6     0     2     2     0     6     2     2    20
    RESTRICTED_UOCC     0     0     0     0     0     0     0     0     0
    FROZEN_UOCC         0     0     0     0     0     0     0     0     0
    Total               6     0     2     2     0     6     2     2    20
  -------------------------------------------------------------------------

  ==> Integral Transformation <==

  Number of molecular orbitals:               20
  Number of correlated molecular orbitals:    20
  Number of frozen occupied orbitals:          0
  Number of frozen unoccupied orbitals:        0


 Overall Conventional Integrals timings	Presorting SO-basis two-electron integrals.
	Sorting File: SO Ints (nn|nn) nbuckets = 1
	Transforming the one-electron integrals and constructing Fock matrices
	Starting first half-transformation.
	Sorting half-transformed integrals.
	First half integral transformation complete.
	Starting second half-transformation.
	Two-electron integral transformation complete.

  Integral transformation done. 0.00792700 s
  Reading the two-electron integrals from disk
  Size of two-electron integrals:   0.003576 GB
 Conventional integrals take 0.01103000 s
  Total electrons: 6
  Number of active electrons: 6
  nalpha: 3
  nbeta:  3 

  There are 0 frozen orbitals.
  There are 20 active orbitals.
  Using RHF reference.

  Electron removed from 1, out of 6
  Need orbital of symmetry 0
  Added electron to 1
  The reference determinant is:

  |1100000000100000000011000000001000000000>
  The reference energy is -14.83984651

  ==> Calculation Information <==

  ----------------------------------------------------
    Symmetry                                       0
    Number of roots                                1
    Root used for properties                       0
    P-threshold                             1.00e-02
    Q-threshold                             1.00e-03
    Convergence threshold                   1.00e-10
    Determinant selection criterion         First-order Coefficients
    Selection criterion                     Threshold
    PQ Function                             AVERAGE
    Q Type                                  Absolute Energy
    PT2 Parameters                          False
  ----------------------------------------------------

  Iterative Adaptive CI
  The model space contains 1 determinants

  ==> Cycle 0 <==

  Initial P space dimension: 1
 Not checking for spin-completeness.
  Time spent diagonalizing H using Full: 0.000008 s
  Not performing spin projection.

    P-space  CI Energy Root   1        = -14.839846512738 Eh =   0.0000 eV

  Dimension of the SD space: 687 determinants
  Time spent building the model space: 0.000239 s

  Using non-perturbative energy estimates
  Dimension of the P + Q space: 223 determinants
  Time spent screening the model space: 0.000989 s

  Davidson-liu sparse algorithm
  Building H using OpenMP-take2
  The sparse Hamiltonian matrix contains 10185 nonzero elements out of 49729 (0.204810)
  Time spent building H (openmp): 0.005803 s
  The Davidson-Liu algorithm converged in 14 iterations.
  Time spent diagonalizing H: 0.001054 s
  Not performing spin projection.

    PQ-space CI Energy Root   1        = -14.887793710112 Eh =   0.0000 eV
    PQ-space CI Energy + EPT2 Root   1 = -14.888142689412 Eh =   0.0000 eV


  Most important contributions to root   0:
    0   0.945198 0.893399715           0 |11000000001000000000|11000000001000000000>
    1  -0.141633 0.020060042         213 |10000000001000000010|10000000001000000010>
    2  -0.141633 0.020060042          54 |10000000001000001000|10000000001000001000>
    3  -0.096283 0.009270399         221 |10000000001000000001|10000000001000000010>
    4  -0.096283 0.009270399         222 |10000000001000000100|10000000001000001000>
    5  -0.096283 0.009270399         167 |10000000001000001000|10000000001000000100>
    6  -0.096283 0.009270399          52 |10000000001000000010|10000000001000000001>
    7  -0.067948 0.004616873         178 |10000000001000000001|10000000001000000001>
    8  -0.067948 0.004616873         177 |10000000001000000100|10000000001000000100>
    9  -0.056086 0.003145691          74 |10010000001000000000|10010000001000000000>

 Spin state for root 0: S^2 = 0.000, S = 0.000, singlet (from 221 determinants, 95.99)

  ==> Cycle 1 <==

  Initial P space dimension: 38
 Not checking for spin-completeness.

  Davidson-liu sparse algorithm
  Building H using OpenMP-take2
  The sparse Hamiltonian matrix contains 972 nonzero elements out of 1444 (0.673130)
  Time spent building H (openmp): 0.000382 s
  The Davidson-Liu algorithm converged in 14 iterations.
  Time spent diagonalizing H: 0.000207 s
  Not performing spin projection.

    P-space  CI Energy Root   1        = -14.883654851818 Eh =   0.0000 eV

  Dimension of the SD space: 11465 determinants
  Time spent building the model space: 0.007332 s

  Using non-perturbative energy estimates
  Dimension of the P + Q space: 256 determinants
  Time spent screening the model space: 0.015784 s

  Davidson-liu sparse algorithm
  Building H using OpenMP-take2
  The sparse Hamiltonian matrix contains 11580 nonzero elements out of 65536 (0.176697)
  Time spent building H (openmp): 0.006948 s
  The Davidson-Liu algorithm converged in 16 iterations.
  Time spent diagonalizing H: 0.001336 s
  Not performing spin projection.

    PQ-space CI Energy Root   1        = -14.889007943485 Eh =   0.0000 eV
    PQ-space CI Energy + EPT2 Root   1 = -14.890147346953 Eh =   0.0000 eV


  Most important contributions to root   0:
    0  -0.939997 0.883594235           0 |11000000001000000000|11000000001000000000>
    1   0.150092 0.022527655          32 |10000000001000000010|10000000001000000010>
    2   0.150092 0.022527655           3 |10000000001000001000|10000000001000001000>
    3   0.102045 0.010413217          37 |10000000001000000100|10000000001000001000>
    4   0.102045 0.010413217          36 |10000000001000000001|10000000001000000010>
    5   0.102045 0.010413217          22 |10000000001000001000|10000000001000000100>
    6   0.102045 0.010413217           2 |10000000001000000010|10000000001000000001>
    7   0.069611 0.004845675          26 |10000000001000000001|10000000001000000001>
    8   0.069611 0.004845675          25 |10000000001000000100|10000000001000000100>
    9   0.054595 0.002980566          10 |10010000001000000000|10010000001000000000>

 Spin state for root 0: S^2 = 0.000, S = 0.000, singlet (from 256 determinants, 100.00)

  ==> Cycle 2 <==

  Initial P space dimension: 41
 Not checking for spin-completeness.

  Davidson-liu sparse algorithm
  Building H using OpenMP-take2
  The sparse Hamiltonian matrix contains 1157 nonzero elements out of 1681 (0.688281)
  Time spent building H (openmp): 0.000455 s
  The Davidson-Liu algorithm converged in 14 iterations.
  Time spent diagonalizing H: 0.000210 s
  Not performing spin projection.

    P-space  CI Energy Root   1        = -14.883751524570 Eh =   0.0000 eV

  Dimension of the SD space: 11820 determinants
  Time spent building the model space: 0.007492 s

  Using non-perturbative energy estimates
  Dimension of the P + Q space: 260 determinants
  Time spent screening the model space: 0.016210 s

  Davidson-liu sparse algorithm
  Building H using OpenMP-take2
  The sparse Hamiltonian matrix contains 11822 nonzero elements out of 67600 (0.174882)
  Time spent building H (openmp): 0.007410 s
  The Davidson-Liu algorithm converged in 16 iterations.
  Time spent diagonalizing H: 0.001350 s
  Not performing spin projection.

    PQ-space CI Energy Root   1        = -14.889029534777 Eh =   0.0000 eV
    PQ-space CI Energy + EPT2 Root   1 = -14.890144527518 Eh =   0.0000 eV


  Most important contributions to root   0:
    0  -0.939963 0.883530182           0 |11000000001000000000|11000000001000000000>
    1   0.150057 0.022517052           3 |10000000001000001000|10000000001000001000>
    2   0.150057 0.022517052          32 |10000000001000000010|10000000001000000010>
    3   0.102074 0.010419057          36 |10000000001000000001|10000000001000000010>
    4   0.102074 0.010419057          37 |10000000001000000100|10000000001000001000>
    5   0.102074 0.010419057          22 |10000000001000001000|10000000001000000100>
    6   0.102074 0.010419057           2 |10000000001000000010|10000000001000000001>
    7   0.069870 0.004881798          25 |10000000001000000100|10000000001000000100>
    8   0.069870 0.004881798          26 |10000000001000000001|10000000001000000001>
    9   0.054574 0.002978298          10 |10010000001000000000|10010000001000000000>

 Spin state for root 0: S^2 = 0.000, S = 0.000, singlet (from 260 determinants, 100.00)

  ==> Cycle 3 <==

  Initial P space dimension: 41
 Not checking for spin-completeness.

  Davidson-liu sparse algorithm
  Building H using OpenMP-take2
  The sparse Hamiltonian matrix contains 1157 nonzero elements out of 1681 (0.688281)
  Time spent building H (openmp): 0.000469 s
  The Davidson-Liu algorithm converged in 14 iterations.
  Time spent diagonalizing H: 0.000208 s
  Not performing spin projection.

    P-space  CI Energy Root   1        = -14.883751524570 Eh =   0.0000 eV

  Dimension of the SD space: 11820 determinants
  Time spent building the model space: 0.007369 s

  Using non-perturbative energy estimates
  Dimension of the P + Q space: 260 determinants
  Time spent screening the model space: 0.016250 s

  Davidson-liu sparse algorithm
  Building H using OpenMP-take2
  The sparse Hamiltonian matrix contains 11822 nonzero elements out of 67600 (0.174882)
  Time spent building H (openmp): 0.007322 s
  The Davidson-Liu algorithm converged in 16 iterations.
  Time spent diagonalizing H: 0.001361 s
  Not performing spin projection.

    PQ-space CI Energy Root   1        = -14.889029534777 Eh =   0.0000 eV
    PQ-space CI Energy + EPT2 Root   1 = -14.890144527518 Eh =   0.0000 eV


  ==> Post-Iterations <==

  Not performing spin projection.
  Printing Wavefunction Information

  Most important contributions to root   0:
    0  -0.939963 0.883530182           0 |11000000001000000000|11000000001000000000>
    1   0.150057 0.022517052           3 |10000000001000001000|10000000001000001000>
    2   0.150057 0.022517052          32 |10000000001000000010|10000000001000000010>
    3   0.102074 0.010419057          36 |10000000001000000001|10000000001000000010>
    4   0.102074 0.010419057          37 |10000000001000000100|10000000001000001000>
    5   0.102074 0.010419057          22 |10000000001000001000|10000000001000000100>
    6   0.102074 0.010419057           2 |10000000001000000010|10000000001000000001>
    7   0.069870 0.004881798          25 |10000000001000000100|10000000001000000100>
    8   0.069870 0.004881798          26 |10000000001000000001|10000000001000000001>
    9   0.054574 0.002978298          10 |10010000001000000000|10010000001000000000>

 Spin state for root 0: S^2 = 0.000, S = 0.000, singlet (from 260 determinants, 100.00)

     Order		 # of Dets        Total |c^2|   
  __________ 	____________   ________________ 
      0			      10		0.88379013888
      1			     195		0.11604821437
      2			      55		0.00016164674

 Highest-order excitation searched:     8  

  * Adaptive-CI Energy Root   1        = -14.889029534777 Eh =   0.0000 eV
  * Adaptive-CI Energy Root   1 + EPT2 = -14.890144527518 Eh =   0.0000 eV

  Adaptive-CI (bitset) ran in : 0.141519 s

  Saving information for root: 1
 Your calculation took 0.25611400 seconds
*** PSI4 exiting successfully. Buy a developer a beer!
