
    -----------------------------------------------------------------------
          Psi4: An Open-Source Ab Initio Electronic Structure Package
                               Psi4 1.2a1.dev939 

                         Git: Rev {master} b05c0bb 


    R. M. Parrish, L. A. Burns, D. G. A. Smith, A. C. Simmonett,
    A. E. DePrince III, E. G. Hohenstein, U. Bozkaya, A. Yu. Sokolov,
    R. Di Remigio, R. M. Richard, J. F. Gonthier, A. M. James,
    H. R. McAlexander, A. Kumar, M. Saitow, X. Wang, B. P. Pritchard,
    P. Verma, H. F. Schaefer III, K. Patkowski, R. A. King, E. F. Valeev,
    F. A. Evangelista, J. M. Turney, T. D. Crawford, and C. D. Sherrill,
    J. Chem. Theory Comput. 13(7) pp 3185--3197 (2017).
    (doi: 10.1021/acs.jctc.7b00174)

    -----------------------------------------------------------------------


    Psi4 started on: Sunday, 01 April 2018 07:34PM

    Process ID:  25023
    PSIDATADIR: /Users/york/src/psi4new/psi4/share/psi4
    Memory:     500.0 MiB
    Threads:    1
    
  ==> Input File <==

--------------------------------------------------------------------------
#! Generated using commit GITCOMMIT

import forte

Emcscf_avg = -106.75288506058001

molecule {
  0 1
  Li
  F  1 R
  R = 10.000

  units bohr
}

basis {
  assign Li Li-cc-pvdz
  assign F  aug-cc-pvdz
[ Li-cc-pvdz ]
spherical
****
Li     0
S   8   1.00
   1469.0000000              0.0007660
    220.5000000              0.0058920
     50.2600000              0.0296710
     14.2400000              0.1091800
      4.5810000              0.2827890
      1.5800000              0.4531230
      0.5640000              0.2747740
      0.0734500              0.0097510
S   8   1.00
   1469.0000000             -0.0001200
    220.5000000             -0.0009230
     50.2600000             -0.0046890
     14.2400000             -0.0176820
      4.5810000             -0.0489020
      1.5800000             -0.0960090
      0.5640000             -0.1363800
      0.0734500              0.5751020
S   1   1.00
      0.0280500              1.0000000
P   3   1.00
      1.5340000              0.0227840
      0.2749000              0.1391070
      0.0736200              0.5003750
P   1   1.00
      0.0240300              1.0000000
D   1   1.00
      0.1239000              1.0000000
****
}

set globals{
  reference           rhf
  scf_type            out_of_core
  maxiter             300
  e_convergence       10
  d_convergence       10
  docc                [4,0,1,1]
  restricted_docc     [3,0,1,1]
  active              [2,0,0,0]
  mcscf_r_convergence 7
  mcscf_e_convergence 10
  mcscf_maxiter       250
  mcscf_diis_start    6
  num_roots           2
  follow_root         2
  avg_states          [0,1]
}

set forte{
  job_type           dwms-dsrgpt2
  frozen_docc        [3,0,0,0]
  restricted_docc    [0,0,1,1]
  active             [2,0,0,0]
  dsrg_s             0.5
  maxiter            50
  e_convergence      10
  cas_type           cas
  avg_state          [[0,1,2]]
  dwms_zeta          100.0
  dwms_algorithm     sh-0
}

Emcscf, wfn = energy('casscf', return_wfn=True)
compare_values(Emcscf_avg,get_variable("CURRENT ENERGY"),8,"SA-CASSCF energy")

Ept2_root0 = -106.93005699411140
Ept2_root1 = -106.91457748207812
energy('forte',ref_wfn=wfn)
compare_values(Ept2_root0,get_variable("ENERGY ROOT 0"),8,"CASCI/DWMS(sH0)-DSRG-PT2 energy on root 0")
compare_values(Ept2_root1,get_variable("ENERGY ROOT 1"),8,"CASCI/DWMS(sH0)-DSRG-PT2 energy on root 1")

set forte{
  dwms_algorithm sh-1
}
Ept2_root0 = -106.93005699410999
Ept2_root1 = -106.91457784175027
energy('forte',ref_wfn=wfn)
compare_values(Ept2_root0,get_variable("ENERGY ROOT 0"),8,"CASCI/DWMS(sH1)-DSRG-PT2 energy on root 0")
compare_values(Ept2_root1,get_variable("ENERGY ROOT 1"),8,"CASCI/DWMS(sH1)-DSRG-PT2 energy on root 1")

set forte{
  dwms_algorithm sh-0
  dwms_reference pt2
}
Ept2_root0 = -106.92994534239719
Ept2_root1 = -106.91463499737895
energy('forte',ref_wfn=wfn)
compare_values(Ept2_root0,get_variable("ENERGY ROOT 0"),8,"PT2/DWMS(sH0)-DSRG-PT2 energy on root 0")
compare_values(Ept2_root1,get_variable("ENERGY ROOT 1"),8,"PT2/DWMS(sH0)-DSRG-PT2 energy on root 1")

set forte{
  dwms_algorithm sh-1
  dwms_reference pt2
}
Ept2_root0 = -106.92994534239851
Ept2_root1 = -106.91463499781882
energy('forte',ref_wfn=wfn)
compare_values(Ept2_root0,get_variable("ENERGY ROOT 0"),8,"PT2/DWMS(sH1)-DSRG-PT2 energy on root 0")
compare_values(Ept2_root1,get_variable("ENERGY ROOT 1"),8,"PT2/DWMS(sH1)-DSRG-PT2 energy on root 1")
--------------------------------------------------------------------------

*** tstart() called on dhcp189-132.emerson.emory.edu
*** at Sun Apr  1 19:34:18 2018

   => Loading Basis Set <=

    Name: ANONYMOUS25DF1A5B
    Role: ORBITAL
    Keyword: BASIS
    atoms 1 entry LI         line     5 inputblock li-cc-pvdz 
    atoms 2 entry F          line   286 file /Users/york/src/psi4new/psi4/share/psi4/basis/aug-cc-pvdz.gbs 


         ---------------------------------------------------------
                                   SCF
            by Justin Turney, Rob Parrish, Andy Simmonett
                             and Daniel Smith
                              RHF Reference
                        1 Threads,    500 MiB Core
         ---------------------------------------------------------

  ==> Geometry <==

    Molecular point group: c2v
    Full point group: C_inf_v

    Geometry (in Bohr), charge = 0, multiplicity = 1:

       Center              X                  Y                   Z               Mass       
    ------------   -----------------  -----------------  -----------------  -----------------
          LI          0.000000000000     0.000000000000    -7.303031224277     7.016004548000
           F          0.000000000000     0.000000000000     2.696968775723    18.998403224000

  Running in c2v symmetry.

  Rotational constants: A = ************  B =      0.11749  C =      0.11749 [cm^-1]
  Rotational constants: A = ************  B =   3522.26409  C =   3522.26409 [MHz]
  Nuclear repulsion =    2.700000000000000

  Charge       = 0
  Multiplicity = 1
  Electrons    = 12
  Nalpha       = 6
  Nbeta        = 6

  ==> Algorithm <==

  SCF Algorithm Type is OUT_OF_CORE.
  DIIS enabled.
  MOM disabled.
  Fractional occupation disabled.
  Guess Type is SAD.
  Energy threshold   = 1.00e-10
  Density threshold  = 1.00e-10
  Integral threshold = 0.00e+00

  ==> Primary Basis <==

  Basis Set: ANONYMOUS25DF1A5B
    Blend: AUG-CC-PVDZ + LI-CC-PVDZ
    Number of shells: 15
    Number of basis function: 37
    Number of Cartesian functions: 40
    Spherical Harmonics?: true
    Max angular momentum: 2

  ==> Pre-Iterations <==

   -------------------------------------------------------
    Irrep   Nso     Nmo     Nalpha   Nbeta   Ndocc  Nsocc
   -------------------------------------------------------
     A1        18      18       4       4       4       0
     A2         3       3       0       0       0       0
     B1         8       8       1       1       1       0
     B2         8       8       1       1       1       0
   -------------------------------------------------------
    Total      37      37       6       6       6       0
   -------------------------------------------------------

  ==> Integral Setup <==

  ==> DiskJK: Disk-Based J/K Matrices <==

    J tasked:                  Yes
    K tasked:                  Yes
    wK tasked:                  No
    Memory (MB):               375
    Schwarz Cutoff:          1E-12

  Minimum eigenvalue in the overlap matrix is 8.8020111411E-02.
  Using Symmetric Orthogonalization.

  SCF Guess: Superposition of Atomic Densities via on-the-fly atomic UHF.

  ==> Iterations <==

                        Total Energy        Delta E     RMS |[F,P]|

   @RHF iter   0:  -106.46629982219142   -1.06466e+02   4.32681e-03 
   @RHF iter   1:  -106.67409764913646   -2.07798e-01   2.16236e-02 
   @RHF iter   2:  -105.52704242274716    1.14706e+00   6.05206e-02 DIIS
   @RHF iter   3:  -106.74559059579316   -1.21855e+00   9.34588e-03 DIIS
   @RHF iter   4:  -106.76361235466850   -1.80218e-02   1.98973e-03 DIIS
   @RHF iter   5:  -106.76470687941064   -1.09452e-03   6.54783e-04 DIIS
   @RHF iter   6:  -106.76484240087180   -1.35521e-04   2.01429e-04 DIIS
   @RHF iter   7:  -106.76485561897466   -1.32181e-05   4.24278e-05 DIIS
   @RHF iter   8:  -106.76485633713969   -7.18165e-07   4.20165e-06 DIIS
   @RHF iter   9:  -106.76485635100305   -1.38634e-08   1.56161e-06 DIIS
   @RHF iter  10:  -106.76485635164579   -6.42743e-10   5.38256e-07 DIIS
   @RHF iter  11:  -106.76485635173147   -8.56772e-11   1.27445e-07 DIIS
   @RHF iter  12:  -106.76485635173810   -6.63647e-12   6.54154e-09 DIIS
   @RHF iter  13:  -106.76485635173809    1.42109e-14   1.19194e-09 DIIS
   @RHF iter  14:  -106.76485635173826   -1.70530e-13   3.49205e-10 DIIS
   @RHF iter  15:  -106.76485635173815    1.13687e-13   8.49745e-11 DIIS

  ==> Post-Iterations <==

    Orbital Energies (a.u.)
    -----------------------

    Doubly Occupied:                                                      

       1A1   -25.949822     2A1    -2.691664     3A1    -1.181713  
       1B1    -0.282869     1B2    -0.282869     4A1    -0.281733  

    Virtual:                                                              

       5A1    -0.102315     2B1    -0.034308     2B2    -0.034308  
       6A1    -0.017926     7A1     0.059038     3B1     0.069758  
       3B2     0.069758     8A1     0.115169     1A2     0.230550  
       9A1     0.230550    10A1     0.235491     4B1     0.236544  
       4B2     0.236544     5B1     0.414969     5B2     0.414969  
      11A1     0.434294    12A1     0.463808    13A1     1.634017  
       6B2     1.634417     6B1     1.634417     2A2     1.636003  
      14A1     1.636003     7B1     1.968778     7B2     1.968778  
      15A1     1.981773    16A1     2.604672    17A1     5.197522  
       8B2     5.197552     8B1     5.197552     3A2     5.198222  
      18A1     5.198222  

    Final Occupation by Irrep:
             A1    A2    B1    B2 
    DOCC [     4,    0,    1,    1 ]

  Energy converged.

  @RHF Final Energy:  -106.76485635173815

   => Energetics <=

    Nuclear Repulsion Energy =              2.7000000000000002
    One-Electron Energy =                -157.5883761461954577
    Two-Electron Energy =                  48.1235197944573230
    PCM Polarization Energy =               0.0000000000000000
    Total Energy =                       -106.7648563517381461

    Alert: EFP and PCM quantities not currently incorporated into SCF psivars.

Properties will be evaluated at   0.000000,   0.000000,   0.000000 Bohr

Properties computed using the SCF density matrix

  Nuclear Dipole Moment: (a.u.)
     X:     0.0000      Y:     0.0000      Z:     2.3636

  Electronic Dipole Moment: (a.u.)
     X:     0.0000      Y:     0.0000      Z:   -12.2800

  Dipole Moment: (a.u.)
     X:     0.0000      Y:     0.0000      Z:    -9.9163     Total:     9.9163

  Dipole Moment: (Debye)
     X:     0.0000      Y:     0.0000      Z:   -25.2048     Total:    25.2048


*** tstop() called on dhcp189-132.emerson.emory.edu at Sun Apr  1 19:34:19 2018
Module time:
	user time   =       0.77 seconds =       0.01 minutes
	system time =       0.09 seconds =       0.00 minutes
	total time  =          1 seconds =       0.02 minutes
Total time:
	user time   =       0.77 seconds =       0.01 minutes
	system time =       0.09 seconds =       0.00 minutes
	total time  =          1 seconds =       0.02 minutes
 MINTS: Wrapper to libmints.
   by Justin Turney

   Calculation information:
      Number of threads:                 1
      Number of atoms:                   2
      Number of AO shells:              15
      Number of SO shells:              15
      Number of primitives:             47
      Number of atomic orbitals:        40
      Number of basis functions:        37

      Number of irreps:                  4
      Integral cutoff                 1.00e-12
      Number of functions per irrep: [  18    3    8    8 ]

 OEINTS: Overlap, kinetic, potential, dipole, and quadrupole integrals
         stored in file 35.

      Computing two-electron integrals...done
      Computed 54201 non-zero two-electron integrals.
        Stored in file 33.


         ---------------------------------------------------------
                Multi-Configurational Self-Consistent Field
                            (a 'D E T C I' module)

                 Daniel G. A. Smith, C. David Sherrill, and
                              Matt L. Leininger
         ---------------------------------------------------------


   ==> Parameters <==

    EX LEVEL       =        2      H0 BLOCKSIZE  =     1000
    VAL EX LEVEL   =        0      H0 GUESS SIZE =     1000
    H0COUPLINGSIZE =        0      H0 COUPLING   =       NO
    MAXITER        =       12      NUM PRINT     =       20
    NUM ROOTS      =        2      ICORE         =        1
    PRINT LVL      =        1      FCI           =      YES
    R CONV         = 1.00e-07      MIXED         =      YES
    E CONV         = 1.00e-10      MIXED4        =      YES
    R4S            =       NO      REPL OTF      =       NO
    DIAG METHOD    =      SEM      FOLLOW ROOT   =        2
    PRECONDITIONER = DAVIDSON      UPDATE        = DAVIDSON
    S              =   0.0000      Ms0           =      YES
    GUESS VECTOR   =  H0BLOCK      OPENTYPE      =     NONE
    COLLAPSE SIZE  =        1      HD AVG        = EVANGELISTI
    MAX NUM VECS   =       26      REF SYM       =     AUTO
    IOPEN        =       NO

    EX ALLOW       =  1  1 
    STATE AVERAGE  =  0(0.50)  1(0.50) 

   ==> CI Orbital and Space information <==

   ------------------------------------------------------
               Space    Total    A1    A2    B1    B2
   ------------------------------------------------------
                 Nso       37    18     3     8     8
                 Nmo       37    18     3     8     8
               Ndocc        6     4     0     1     1
               Nsocc        0     0     0     0     0
   ------------------------------------------------------
                        MCSCF Spaces
   ------------------------------------------------------
         Frozen DOCC        0     0     0     0     0
     Restricted DOCC        5     3     0     1     1
              Active        2     2     0     0     0
     Restricted UOCC       30    13     3     7     7
         Frozen UOCC        0     0     0     0     0
   ------------------------------------------------------

   ==> Setting up CI strings <==

    There are 2 alpha and 2 beta strings
    The CI space requires 4 (4.00E+00) determinants and 1 blocks

   ==> Setting up MCSCF integrals <==

  ==> DiskJK: Disk-Based J/K Matrices <==

    J tasked:                  Yes
    K tasked:                  Yes
    wK tasked:                  No
    Memory (MB):              3200
    Schwarz Cutoff:          1E-12


   ==> Starting MCSCF iterations <==

        Iter         Total Energy       Delta E   Orb RMS    CI RMS  NCI NORB
(sem_iter): H0block_->H0b_diag[1][1] - H0block_->H0b_diag[2][1] = -0.707107 - 0.707107 = -1.414214 > 1.0E-8
   @MCSCF  1:   -106.719655499341    4.5201e-02  7.73e-02  3.64e-09    1    1  Initial CI
   @MCSCF  2:   -106.743591142898   -2.3936e-02  4.80e-02  7.54e-11    1    1  TS
   @MCSCF  3:   -106.749720768365   -6.1296e-03  2.62e-02  2.03e-10    1    1  TS
   @MCSCF  4:   -106.751831447990   -2.1107e-03  1.47e-02  1.48e-10    1    1  TS
   @MCSCF  5:   -106.752507378695   -6.7593e-04  8.16e-03  1.64e-10    1    1  TS
   @MCSCF  6:   -106.752745372417   -2.3799e-04  4.54e-03  1.56e-10    1    1  TS
   @MCSCF  7:   -106.752830377448   -8.5005e-05  2.53e-03  1.61e-10    1    1  TS, DIIS
   @MCSCF  8:   -106.752862680423   -3.2303e-05  1.41e-03  1.59e-10    1    1  TS, DIIS
   @MCSCF  9:   -106.752859178503    3.5019e-06  2.51e-03  1.61e-10    1    1  TS, DIIS
   @MCSCF 10:   -106.752877029776   -1.7851e-05  1.46e-03  1.59e-10    2    1  TS, DIIS
   @MCSCF 11:   -106.752884414799   -7.3850e-06  4.11e-04  1.60e-10    1    1  TS, DIIS
   @MCSCF 12:   -106.752885011841   -5.9704e-07  1.12e-04  1.60e-10    1    1  TS, DIIS
   @MCSCF 13:   -106.752885060436   -4.8595e-08  7.10e-07  1.60e-10    1    1  TS, DIIS
   @MCSCF 14:   -106.752885060433    2.6432e-12  1.11e-06  1.60e-10    1    1  TS, DIIS
   @MCSCF 15:   -106.752885060438   -4.5759e-12  3.42e-09  1.60e-10    1    1  TS, DIIS

          @MCSCF has converged!

   @MCSCF Final Energy: -106.752885060437961

   Computing CI Semicanonical Orbitals

   ==> Energetics <==

    SCF energy =         -106.764856351738146
    Total MCSCF energy = -106.752885060437961

   ==> MCSCF root 0 information <==

    MCSCF Root 0 energy =  -106.772344530931491

   Active Space Natural occupation numbers:

        A1   1.177995        A1   0.822005

   The 4 most important determinants:

    *   1   -0.699843  (    0,    1)  4A1A 5A1B 
    *   2   -0.699843  (    1,    0)  4A1B 5A1A 
    *   3   -0.142097  (    0,    0)  4A1X 
    *   4    0.015730  (    1,    1)  5A1X 


   ==> MCSCF root 1 information <==

    MCSCF Root 1 energy =  -106.733425589945085

   Active Space Natural occupation numbers:

        A1   1.999870        A1   0.000130

   The 4 most important determinants:

    *   1   -0.989853  (    0,    0)  4A1X 
    *   2    0.100467  (    0,    1)  4A1A 5A1B 
    *   3    0.100467  (    1,    0)  4A1B 5A1A 
    *   4   -0.002053  (    1,    1)  5A1X 



Properties will be evaluated at   0.000000,   0.000000,   0.000000 Bohr

Properties computed using the CASSCF density matrix

  Nuclear Dipole Moment: (a.u.)
     X:     0.0000      Y:     0.0000      Z:     2.3636

  Electronic Dipole Moment: (a.u.)
     X:     0.0000      Y:     0.0000      Z:    -7.3349

  Dipole Moment: (a.u.)
     X:     0.0000      Y:     0.0000      Z:    -4.9713     Total:     4.9713

  Dipole Moment: (Debye)
     X:     0.0000      Y:     0.0000      Z:   -12.6357     Total:    12.6357

	SA-CASSCF energy..................................................PASSED
   => Loading Basis Set <=

    Name: STO-3G
    Role: ORBITAL
    Keyword: MINAO_BASIS
    atoms 1 entry LI         line    31 file /Users/york/src/psi4new/psi4/share/psi4/basis/sto-3g.gbs 
    atoms 2 entry F          line    91 file /Users/york/src/psi4new/psi4/share/psi4/basis/sto-3g.gbs 


Reading options from the FORTE block
Calling plugin forte.so.



  Forte
  ----------------------------------------------------------------------------
  A suite of quantum chemistry methods for strongly correlated electrons

    git branch: dwsa-dsrg-pt - git commit: 5258b91f

  Developed by:
    Francesco A. Evangelista, Chenyang Li, Kevin P. Hannon,
    Jeffrey B. Schriber, Tianyuan Zhang, Chenxi Cai
  ----------------------------------------------------------------------------

  Size of Determinant class: 32

  ==> MO Space Information <==

  Read options for space FROZEN_DOCC
  Read options for space RESTRICTED_DOCC
  Read options for space ACTIVE
 Removing orbital 0
 Removing orbital 1
 Removing orbital 2
  -------------------------------------------------
                       A1    A2    B1    B2   Sum
  -------------------------------------------------
    FROZEN_DOCC         3     0     0     0     3
    RESTRICTED_DOCC     0     0     1     1     2
    ACTIVE              2     0     0     0     2
    RESTRICTED_UOCC    13     3     7     7    30
    FROZEN_UOCC         0     0     0     0     0
    Total              18     3     8     8    37
  -------------------------------------------------

  ==> Integral Transformation <==

  Number of molecular orbitals:               37
  Number of correlated molecular orbitals:    34
  Number of frozen occupied orbitals:          3
  Number of frozen unoccupied orbitals:        0


  Overall Conventional Integrals timings

	Presorting SO-basis two-electron integrals.
	Sorting File: SO Ints (nn|nn) nbuckets = 1
	Transforming the one-electron integrals and constructing Fock matrices
	Starting first half-transformation.
	Sorting half-transformed integrals.
	First half integral transformation complete.
	Starting second half-transformation.
	Two-electron integral transformation complete.

  Integral transformation done. 0.09523800 s
  Reading the two-electron integrals from disk
  Size of two-electron integrals:   0.041891 GB
  Frozen-core energy            -96.836564420721 a.u.

  FrozenOneBody Operator takes  0.27088700 s
  Resorting integrals after freezing core.
  Conventional integrals take 0.84392300 s

        ----------------------------------------------------------------
          Dynamically Weighted Driven Similarity Renormalization Group
                        Multi-State Perturbation Theory
                                  Chenyang Li
        ----------------------------------------------------------------


  ==> DWMS-DSRG Options <==

    CORRELATION LEVEL         PT2
    ZETA VALUE           1.00e+02
    REFERENCE               CASCI
    ALGORITHM                SH-0

  ==> Implementation Note on SH-0 <==

  - Perform CASCI using user-defined weights. (*)
  - Perform SA-DSRG-PT2 using user-defined weights.
  - Loop over averaged states:
      - Compute new density weights using energies of (*).
      - Semicanonicalize orbitals.
      - Form DSRG-PT2 transformed Hamiltonian.
      - Perform CASCI on DSRG-PT2 Hamiltonian. (#)
  - Test orthogonality for CI vectors of (#) between states.
  - Collect and print excitation energies.

  Additional note on step (#):
  - CI vectors will NOT be orthogonal between states.

              ---------------------------------------------------
                Complete Active Space Configuration Interaction
                                  Chenyang Li
              ---------------------------------------------------


  ==> Input Summary <==

    No. a electrons in active      =     1
    No. b electrons in active      =     1
    multiplicity                   =     1
    spin ms (2 * Sz)               =     0

  ==> Orbital Spaces <==

    TOTAL MO                      [   18     3     8     8 ]
    FROZEN CORE                   [    3     0     0     0 ]
    FROZEN VIRTUAL                [    0     0     0     0 ]
    CORRELATED MO                 [   15     3     8     8 ]
    CORE                          [    0     0     1     1 ]
    ACTIVE                        [    2     0     0     0 ]
    VIRTUAL                       [   13     3     7     7 ]

  ==> State Averaging Summary <==

    Irrep.  Multi.  Nstates      Weights
    ------------------------------------
      A1       1        2    0.500 0.500
    ------------------------------------
    Total number of states: 2
    ------------------------------------

  Forming alpha and beta strings      ...  Done. Timing        0.000055 s
  Forming determinants                ...  Done. Timing        0.000016 s

  ==> Determinants Summary <==

    number of alpha active electrons         =     1
    number of beta active electrons          =     1
    root symmetry (zero based)               =     0
    number of determinants                   =     4

  Diagonalizing Hamiltonian           ...
  Found 3 roots with 2S+1 = 1 *
  Found 1 roots with 2S+1 = 3  Done. Timing        0.000363 s

  * * * * * * * * * * * * * * * * *
  *  CI Vectors & Configurations  *
  * * * * * * * * * * * * * * * * *

  ==> Root No. 0 <==

    ba         -0.6998431885
    ab         -0.6998431885
    20         -0.1420971205

    Total Energy:   -106.772344531212042


  ==> Root No. 1 <==

    20         -0.9898526998
    ba          0.1004674493
    ab          0.1004674493

    Total Energy:   -106.733425589948311



  ==> Permanent Dipole Moments (A1) <==

  Only print nonzero (> 1.0e-5) elements.
  Permanent dipole moments (a.u.) 0 -> 0:  X:  0.0000  Y:  0.0000  Z: -0.1343  Total:  0.1343
  Permanent dipole moments (a.u.) 1 -> 1:  X:  0.0000  Y:  0.0000  Z: -9.8082  Total:  9.8082


  ==> Transition Dipole Moments (A1 -> A1) <==

  Only print nonzero (> 1.0e-5) elements.
  Transition dipole moments (a.u.) 0 -> 1:  X:  0.0000  Y:  0.0000  Z: -1.2681  Total:  1.2681


  ==> Oscillator Strength (A1 -> A1) <==

  Only print nonzero (> 1.0e-5) elements.
  Oscillator strength (a.u.) 0 -> 1:  X:  0.0000  Y:  0.0000  Z:  0.0417  Total:  0.0417

  Total Energy (averaged over 2 states): -106.752885060580184


  ===============================
  Current Job: Singlet A1, root 0
  ===============================


  ==> Original State Averaging Summary <==

    Irrep.  Multi.  Nroots       Weights
    ------------------------------------
      A1       1       2     0.500 0.500
    ------------------------------------

  ==> Reweighted State Averaging Summary <==

    Irrep.  Multi.  Nroots       Weights
    ------------------------------------
      A1       1       2     0.538 0.462
    ------------------------------------

  ==> Compute State-Averaged Cumulants <==

  Computing  1RDM (0-0) of Singlet A1 ... Writing ... Done. Timing        0.000588 s
  Computing  2RDM (0-0) of Singlet A1 ... Writing ... Done. Timing        0.000684 s
  Computing  3RDM (0-0) of Singlet A1 ... Writing ... Done. Timing        0.000821 s
  Computing  1RDM (1-1) of Singlet A1 ... Writing ... Done. Timing        0.000542 s
  Computing  2RDM (1-1) of Singlet A1 ... Writing ... Done. Timing        0.000677 s
  Computing  3RDM (1-1) of Singlet A1 ... Writing ... Done. Timing        0.001093 s
  Adding wedge product for 2-cumulants ... Done. Timing        0.001320 s
  Adding wedge product for 3-cumulants ... Done. Timing        0.016446 s

  ==> Multireference Driven Similarity Renormalization Group <==

    Reading DSRG options ............................ Done
    Setting ambit MO space .......................... Done
    Preparing tensors for density cumulants ......... Done
    Building Fock matrix ............................ Done
    Checking reference energy ....................... Done

              ----------------------------------------------------
                    MR-DSRG Second-Order Perturbation Theory
                Chenyang Li, Kevin Hannon, Francesco Evangelista
              ----------------------------------------------------

    References:
      u-DSRG-MRPT2:    J. Chem. Theory Comput. 2015, 11, 2097.
      (pr-)DSRG-MRPT2: J. Chem. Phys. 2017, 146, 124132.

  ==> Calculation Information <==

    ntamp                                                 15
    flow parameter                                 5.000e-01
    taylor expansion threshold                     1.000e-03
    intruder_tamp                                  1.000e-01
    int_type                                    CONVENTIONAL
    source operator                                 STANDARD
    reference relaxation                                NONE
    state_type                                   MULTI-STATE
    multi-state type                                 SA_FULL
    form Hbar3                                         FALSE

  ==> Checking Semicanonical Orbitals <==

    Abs. max of Fock core, active, virtual blocks (Fij, i != j)
                  core          active         virtual
    --------------------------------------------------
    Fα    0.0000000000    0.0004711275    0.0043354005
    Fβ    0.0000000000    0.0004711275    0.0043354005
    --------------------------------------------------

    1-Norm of Fock core, active, virtual blocks (Fij, i != j)
                  core          active         virtual
    --------------------------------------------------
    Fα    0.0000000000    0.0009422549    0.1423610963
    Fβ    0.0000000000    0.0009422549    0.1423610963
    --------------------------------------------------

    Warning! Orbitals are not semi-canonicalized!
    Orbital invariant formalism will be employed for DSRG-MRPT2.

  ==> Computing DSRG-MRPT2 ... <==

    Computing T2 amplitudes                  ...  Done. Timing        0.409635 s
    Computing T1 amplitudes                  ...  Done. Timing        0.026906 s
    Renormalizing two-electron integrals     ...  Done. Timing        0.427035 s
    Renormalizing Fock matrix elements       ...  Done. Timing        0.031494 s
    Computing <[F, T1]>                      ...  Done. Timing        0.001885 s
    Computing <[F, T2]>                      ...  Done. Timing        0.004702 s
    Computing <[V, T1]>                      ...  Done. Timing        0.005220 s
    Computing <[V, T2]> (C_2)^4              ...  Done. Timing        0.033024 s
    Computing <[V, T2]> C_4 (C_2)^2 HH       ...  Done. Timing        0.007687 s
    Computing <[V, T2]> C_4 (C_2)^2 PP       ...  Done. Timing        0.006232 s
    Computing <[V, T2]> C_4 (C_2)^2 PH       ...  Done. Timing        0.026656 s
    Computing <[V, T2]> C_6 C_2              ...  Done. Timing        0.012864 s

  ==> Excitation Amplitudes Summary <==

    Active Indices:    0    1 
    Largest T1 amplitudes for spin case A:
       i       a                  i       a                  i       a               
    --------------------------------------------------------------------------------
    [  0      11    ] 0.005415 [ 18      24    ]-0.002619 [ 26      32    ]-0.002619 
    [  0       7    ] 0.001923 [  0       8    ] 0.001720 [ 18      22    ] 0.001373 
    [ 26      30    ] 0.001373 [  0       5    ]-0.001148 [  1       4    ] 0.001118 
    [  1      11    ] 0.000965 [  1       3    ]-0.000737 [  1       5    ] 0.000680 
    [  1       2    ]-0.000598 [  0       9    ]-0.000508 [ 18      21    ]-0.000400 
    --------------------------------------------------------------------------------
    Norm of T1A vector: (nonzero elements: 40)                    0.007699077669557.
    --------------------------------------------------------------------------------
    Largest T1 amplitudes for spin case B:
       _       _                  _       _                  _       _               
       i       a                  i       a                  i       a               
    --------------------------------------------------------------------------------
    [  0      11    ] 0.005415 [ 18      24    ]-0.002619 [ 26      32    ]-0.002619 
    [  0       7    ] 0.001923 [  0       8    ] 0.001720 [ 18      22    ] 0.001373 
    [ 26      30    ] 0.001373 [  0       5    ]-0.001148 [  1       4    ] 0.001118 
    [  1      11    ] 0.000965 [  1       3    ]-0.000737 [  1       5    ] 0.000680 
    [  1       2    ]-0.000598 [  0       9    ]-0.000508 [ 18      21    ]-0.000400 
    --------------------------------------------------------------------------------
    Norm of T1B vector: (nonzero elements: 40)                    0.007699077669557.
    --------------------------------------------------------------------------------
    Largest T2 amplitudes for spin case AA:
       i   j   a   b              i   j   a   b              i   j   a   b           
    --------------------------------------------------------------------------------
    [  0  26   0  32] 0.069243 [  0  18   0  24] 0.069243 [  0  26   0  30]-0.036103 
    [  0  18   0  22]-0.036103 [  0  26  11  32]-0.024249 [  0  18  11  24]-0.024249 
    [ 18  26  24  32]-0.023588 [ 18  26  10  16]-0.015391 [  0  26  11  30] 0.014558 
    [  0  18  11  22] 0.014558 [  0  18   9  23] 0.014210 [  0  26   9  31] 0.014210 
    [ 18  26  24  30] 0.014044 [ 18  26  22  32] 0.014044 [  0  26   8  32]-0.010855 
    --------------------------------------------------------------------------------
    Norm of T2AA vector: (nonzero elements: 3024)                 0.267611533017360.
    --------------------------------------------------------------------------------
    Largest T2 amplitudes for spin case AB:
           _       _                  _       _                  _       _           
       i   j   a   b              i   j   a   b              i   j   a   b           
    --------------------------------------------------------------------------------
    [  0   0   0  11] 0.083721 [  0  26   0  32] 0.073260 [  0  18   0  24] 0.073260 
    [  0  26   0  30]-0.038917 [  0  18   0  22]-0.038917 [  0   0  11  11]-0.037849 
    [ 26  26  32  32]-0.035614 [ 18  18  24  24]-0.035614 [  0   0   0   8] 0.029451 
    [  0  18  11  24]-0.028394 [  0  26  11  32]-0.028394 [ 18  26  24  32]-0.027597 
    [  0   0   0   7] 0.026580 [  0   0   9   9]-0.019734 [ 26  26  30  32] 0.019007 
    --------------------------------------------------------------------------------
    Norm of T2AB vector: (nonzero elements: 4368)                 0.270137142976321.
    --------------------------------------------------------------------------------
    Largest T2 amplitudes for spin case BB:
       _   _   _   _              _   _   _   _              _   _   _   _           
       i   j   a   b              i   j   a   b              i   j   a   b           
    --------------------------------------------------------------------------------
    [  0  26   0  32] 0.069243 [  0  18   0  24] 0.069243 [  0  26   0  30]-0.036103 
    [  0  18   0  22]-0.036103 [  0  18  11  24]-0.024249 [  0  26  11  32]-0.024249 
    [ 18  26  24  32]-0.023588 [ 18  26  10  16]-0.015391 [  0  26  11  30] 0.014558 
    [  0  18  11  22] 0.014558 [  0  18   9  23] 0.014210 [  0  26   9  31] 0.014210 
    [ 18  26  22  32] 0.014044 [ 18  26  24  30] 0.014044 [  0  26   8  32]-0.010855 
    --------------------------------------------------------------------------------
    Norm of T2BB vector: (nonzero elements: 3024)                 0.267611533017360.
    --------------------------------------------------------------------------------

  ==> Possible Intruders <==

    T1 amplitudes larger than 0.1000 for spin case A: NULL
    T1 amplitudes larger than 0.1000 for spin case B: NULL
    T2 amplitudes larger than 0.1000 for spin case AA: NULL
    T2 amplitudes larger than 0.1000 for spin case AB: NULL
    T2 amplitudes larger than 0.1000 for spin case BB: NULL

  ==> DSRG-MRPT2 Energy Summary <==

    E0 (reference)                 =   -106.754355996817281
    <[F, T1]>                      =     -0.000327693619332
    <[F, T2]>                      =      0.000309201423548
    <[V, T1]>                      =      0.000308964621828
    <[V, T2]> (C_2)^4              =     -0.179863119130513
    <[V, T2]> C_4 (C_2)^2 HH       =      0.000085055254441
    <[V, T2]> C_4 (C_2)^2 PP       =      0.003024622606616
    <[V, T2]> C_4 (C_2)^2 PH       =      0.008860508468893
    <[V, T2]> C_6 C_2              =     -0.000026097063360
    <[V, T2]>                      =     -0.167919029863923
    DSRG-MRPT2 correlation energy  =     -0.167628557437879
    DSRG-MRPT2 total energy        =   -106.921984554255161
    max(T1)                        =      0.005415387810863
    max(T2)                        =      0.083720637071231
    ||T1||                         =      0.010888140058052
    ||T2||                         =      0.659642455629898

  Energy took      1.016 s


  ==> De-Normal-Order DSRG Transformed Hamiltonian <==

    Computing the scalar term                ... Done. Timing    0.003 s
    Computing the 1-body term                ... Done. Timing    0.001 s

  ==> Rotate DSRG Transformed Hamiltonian back to Original Basis <==

    Rotating 1-body term to original basis   ... Done. Timing    0.001 s
    Rotating 2-body term to original basis   ... Done. Timing    0.019 s

  ==> Diagonalize DWMS(sH)-DSRG Active Hamiltonian <==

  Forming alpha and beta strings      ...  Done. Timing        0.000037 s
  Forming determinants                ...  Done. Timing        0.000018 s

  ==> Determinants Summary <==

    number of alpha active electrons         =     1
    number of beta active electrons          =     1
    root symmetry (zero based)               =     0
    number of determinants                   =     4

  Diagonalizing Hamiltonian           ...
  Found 3 roots with 2S+1 = 1 *
  Found 1 roots with 2S+1 = 3  Done. Timing        0.000296 s

  * * * * * * * * * * * * * * * * *
  *  CI Vectors & Configurations  *
  * * * * * * * * * * * * * * * * *

  ==> Root No. 0 <==

    20          0.9603183020
    ba          0.1971902227
    ab          0.1971902227

    Total Energy:   -106.930056994107488


  ==> Root No. 1 <==

    ba         -0.6789653879
    ab         -0.6789653879
    20          0.2789062823

    Total Energy:   -106.914678928526854



  ==> Permanent Dipole Moments (A1) <==

  Only print nonzero (> 1.0e-5) elements.
  Permanent dipole moments (a.u.) 0 -> 0:  X:  0.0000  Y:  0.0000  Z: -9.1149  Total:  9.1149
  Permanent dipole moments (a.u.) 1 -> 1:  X:  0.0000  Y:  0.0000  Z: -0.8276  Total:  0.8276


  ==> Transition Dipole Moments (A1 -> A1) <==

  Only print nonzero (> 1.0e-5) elements.
  Transition dipole moments (a.u.) 0 -> 1:  X:  0.0000  Y:  0.0000  Z: -2.7989  Total:  2.7989


  ==> Oscillator Strength (A1 -> A1) <==

  Only print nonzero (> 1.0e-5) elements.
  Oscillator strength (a.u.) 0 -> 1:  X:  0.0000  Y:  0.0000  Z:  0.0803  Total:  0.0803


  ===============================
  Current Job: Singlet A1, root 1
  ===============================


  ==> Original State Averaging Summary <==

    Irrep.  Multi.  Nroots       Weights
    ------------------------------------
      A1       1       2     0.538 0.462
    ------------------------------------

  ==> Reweighted State Averaging Summary <==

    Irrep.  Multi.  Nroots       Weights
    ------------------------------------
      A1       1       2     0.462 0.538
    ------------------------------------

  ==> Compute State-Averaged Cumulants <==

  Computing  1RDM (0-0) of Singlet A1 ... Reading ... Done. Timing        0.000137 s
  Computing  2RDM (0-0) of Singlet A1 ... Reading ... Done. Timing        0.000088 s
  Computing  3RDM (0-0) of Singlet A1 ... Reading ... Done. Timing        0.000107 s
  Computing  1RDM (1-1) of Singlet A1 ... Reading ... Done. Timing        0.000100 s
  Computing  2RDM (1-1) of Singlet A1 ... Reading ... Done. Timing        0.000130 s
  Computing  3RDM (1-1) of Singlet A1 ... Reading ... Done. Timing        0.000165 s
  Adding wedge product for 2-cumulants ... Done. Timing        0.001153 s
  Adding wedge product for 3-cumulants ... Done. Timing        0.013064 s

  ==> Multireference Driven Similarity Renormalization Group <==

    Reading DSRG options ............................ Done
    Setting ambit MO space .......................... Done
    Preparing tensors for density cumulants ......... Done
    Building Fock matrix ............................ Done
    Checking reference energy ....................... Done

              ----------------------------------------------------
                    MR-DSRG Second-Order Perturbation Theory
                Chenyang Li, Kevin Hannon, Francesco Evangelista
              ----------------------------------------------------

    References:
      u-DSRG-MRPT2:    J. Chem. Theory Comput. 2015, 11, 2097.
      (pr-)DSRG-MRPT2: J. Chem. Phys. 2017, 146, 124132.

  ==> Calculation Information <==

    ntamp                                                 15
    flow parameter                                 5.000e-01
    taylor expansion threshold                     1.000e-03
    intruder_tamp                                  1.000e-01
    int_type                                    CONVENTIONAL
    source operator                                 STANDARD
    reference relaxation                                NONE
    state_type                                   MULTI-STATE
    multi-state type                                 SA_FULL
    form Hbar3                                         FALSE

  ==> Total Timings (s) for Computing Commutators <==

             [H1, T1]    [H1, T2]    [H2, T1]    [H2, T2]
    -----------------------------------------------------
    -> C0       0.002       0.005       0.005       0.087
    -> C1       0.002       0.013       0.009       0.169
    -> C2                   0.008       0.009       0.062
    -----------------------------------------------------


  ==> Checking Semicanonical Orbitals <==

    Abs. max of Fock core, active, virtual blocks (Fij, i != j)
                  core          active         virtual
    --------------------------------------------------
    Fα    0.0000000000    0.0004711275    0.0043354005
    Fβ    0.0000000000    0.0004711275    0.0043354005
    --------------------------------------------------

    1-Norm of Fock core, active, virtual blocks (Fij, i != j)
                  core          active         virtual
    --------------------------------------------------
    Fα    0.0000000000    0.0009422549    0.1423610968
    Fβ    0.0000000000    0.0009422549    0.1423610968
    --------------------------------------------------

    Warning! Orbitals are not semi-canonicalized!
    Orbital invariant formalism will be employed for DSRG-MRPT2.

  ==> Computing DSRG-MRPT2 ... <==

    Computing T2 amplitudes                  ...  Done. Timing        0.410928 s
    Computing T1 amplitudes                  ...  Done. Timing        0.027457 s
    Renormalizing two-electron integrals     ...  Done. Timing        0.415278 s
    Renormalizing Fock matrix elements       ...  Done. Timing        0.027894 s
    Computing <[F, T1]>                      ...  Done. Timing        0.002618 s
    Computing <[F, T2]>                      ...  Done. Timing        0.004571 s
    Computing <[V, T1]>                      ...  Done. Timing        0.005294 s
    Computing <[V, T2]> (C_2)^4              ...  Done. Timing        0.028660 s
    Computing <[V, T2]> C_4 (C_2)^2 HH       ...  Done. Timing        0.006617 s
    Computing <[V, T2]> C_4 (C_2)^2 PP       ...  Done. Timing        0.008025 s
    Computing <[V, T2]> C_4 (C_2)^2 PH       ...  Done. Timing        0.025672 s
    Computing <[V, T2]> C_6 C_2              ...  Done. Timing        0.011130 s

  ==> Excitation Amplitudes Summary <==

    Active Indices:    0    1 
    Largest T1 amplitudes for spin case A:
       i       a                  i       a                  i       a               
    --------------------------------------------------------------------------------
    [  0      11    ] 0.008489 [  0       8    ] 0.002832 [  0       7    ] 0.002817 
    [ 26      32    ] 0.002626 [ 18      24    ] 0.002626 [  0       5    ]-0.001805 
    [ 26      30    ]-0.001337 [ 18      22    ]-0.001337 [  1       4    ] 0.000965 
    [  1      11    ] 0.000914 [  1       5    ] 0.000827 [  1       2    ]-0.000645 
    [  1       3    ]-0.000575 [  1       8    ]-0.000390 [ 26      29    ] 0.000389 
    --------------------------------------------------------------------------------
    Norm of T1A vector: (nonzero elements: 40)                    0.010617046252956.
    --------------------------------------------------------------------------------
    Largest T1 amplitudes for spin case B:
       _       _                  _       _                  _       _               
       i       a                  i       a                  i       a               
    --------------------------------------------------------------------------------
    [  0      11    ] 0.008489 [  0       8    ] 0.002832 [  0       7    ] 0.002817 
    [ 26      32    ] 0.002626 [ 18      24    ] 0.002626 [  0       5    ]-0.001805 
    [ 26      30    ]-0.001337 [ 18      22    ]-0.001337 [  1       4    ] 0.000965 
    [  1      11    ] 0.000914 [  1       5    ] 0.000827 [  1       2    ]-0.000645 
    [  1       3    ]-0.000575 [  1       8    ]-0.000390 [ 26      29    ] 0.000389 
    --------------------------------------------------------------------------------
    Norm of T1B vector: (nonzero elements: 40)                    0.010617046252956.
    --------------------------------------------------------------------------------
    Largest T2 amplitudes for spin case AA:
       i   j   a   b              i   j   a   b              i   j   a   b           
    --------------------------------------------------------------------------------
    [  0  26   0  32] 0.069416 [  0  18   0  24] 0.069416 [  0  26   0  30]-0.035157 
    [  0  18   0  22]-0.035157 [  0  18  11  24]-0.024156 [  0  26  11  32]-0.024156 
    [ 18  26  24  32]-0.023623 [ 18  26  10  16]-0.015501 [  0  26  11  30] 0.014565 
    [  0  18  11  22] 0.014565 [  0  18   9  23] 0.014222 [  0  26   9  31] 0.014222 
    [ 18  26  24  30] 0.014148 [ 18  26  22  32] 0.014148 [  0  26   8  32]-0.010866 
    --------------------------------------------------------------------------------
    Norm of T2AA vector: (nonzero elements: 3024)                 0.266837034734364.
    --------------------------------------------------------------------------------
    Largest T2 amplitudes for spin case AB:
           _       _                  _       _                  _       _           
       i   j   a   b              i   j   a   b              i   j   a   b           
    --------------------------------------------------------------------------------
    [  0   0   0  11] 0.083506 [  0  26   0  32] 0.073445 [  0  18   0  24] 0.073445 
    [  0  26   0  30]-0.037897 [  0  18   0  22]-0.037897 [  0   0  11  11]-0.037500 
    [ 26  26  32  32]-0.035674 [ 18  18  24  24]-0.035674 [  0   0   0   8] 0.029225 
    [  0  18  11  24]-0.028288 [  0  26  11  32]-0.028288 [ 18  26  24  32]-0.027640 
    [  0   0   0   7] 0.026398 [  0   0   9   9]-0.019623 [ 26  26  30  32] 0.019139 
    --------------------------------------------------------------------------------
    Norm of T2AB vector: (nonzero elements: 4368)                 0.269275818486610.
    --------------------------------------------------------------------------------
    Largest T2 amplitudes for spin case BB:
       _   _   _   _              _   _   _   _              _   _   _   _           
       i   j   a   b              i   j   a   b              i   j   a   b           
    --------------------------------------------------------------------------------
    [  0  26   0  32] 0.069416 [  0  18   0  24] 0.069416 [  0  26   0  30]-0.035157 
    [  0  18   0  22]-0.035157 [  0  18  11  24]-0.024156 [  0  26  11  32]-0.024156 
    [ 18  26  24  32]-0.023623 [ 18  26  10  16]-0.015501 [  0  26  11  30] 0.014565 
    [  0  18  11  22] 0.014565 [  0  18   9  23] 0.014222 [  0  26   9  31] 0.014222 
    [ 18  26  24  30] 0.014148 [ 18  26  22  32] 0.014148 [  0  18   8  24]-0.010866 
    --------------------------------------------------------------------------------
    Norm of T2BB vector: (nonzero elements: 3024)                 0.266837034734364.
    --------------------------------------------------------------------------------

  ==> Possible Intruders <==

    T1 amplitudes larger than 0.1000 for spin case A: NULL
    T1 amplitudes larger than 0.1000 for spin case B: NULL
    T2 amplitudes larger than 0.1000 for spin case AA: NULL
    T2 amplitudes larger than 0.1000 for spin case AB: NULL
    T2 amplitudes larger than 0.1000 for spin case BB: NULL

  ==> DSRG-MRPT2 Energy Summary <==

    E0 (reference)                 =   -106.751414124343114
    <[F, T1]>                      =     -0.000606843662635
    <[F, T2]>                      =      0.000347454077301
    <[V, T1]>                      =      0.000347364256378
    <[V, T2]> (C_2)^4              =     -0.179881708396583
    <[V, T2]> C_4 (C_2)^2 HH       =      0.000055707658030
    <[V, T2]> C_4 (C_2)^2 PP       =      0.002115479736519
    <[V, T2]> C_4 (C_2)^2 PH       =      0.006460030508191
    <[V, T2]> C_6 C_2              =     -0.000017318546518
    <[V, T2]>                      =     -0.171267809040361
    DSRG-MRPT2 correlation energy  =     -0.171179834369317
    DSRG-MRPT2 total energy        =   -106.922593958712426
    max(T1)                        =      0.008488900721142
    max(T2)                        =      0.083505594704471
    ||T1||                         =      0.015014770803273
    ||T2||                         =      0.657603126435840

  Energy took      0.992 s


  ==> De-Normal-Order DSRG Transformed Hamiltonian <==

    Computing the scalar term                ... Done. Timing    0.002 s
    Computing the 1-body term                ... Done. Timing    0.001 s

  ==> Rotate DSRG Transformed Hamiltonian back to Original Basis <==

    Rotating 1-body term to original basis   ... Done. Timing    0.001 s
    Rotating 2-body term to original basis   ... Done. Timing    0.023 s

  ==> Diagonalize DWMS(sH)-DSRG Active Hamiltonian <==

  Forming alpha and beta strings      ...  Done. Timing        0.000055 s
  Forming determinants                ...  Done. Timing        0.000015 s

  ==> Determinants Summary <==

    number of alpha active electrons         =     1
    number of beta active electrons          =     1
    root symmetry (zero based)               =     0
    number of determinants                   =     4

  Diagonalizing Hamiltonian           ...
  Found 3 roots with 2S+1 = 1 *
  Found 1 roots with 2S+1 = 3  Done. Timing        0.000363 s

  * * * * * * * * * * * * * * * * *
  *  CI Vectors & Configurations  *
  * * * * * * * * * * * * * * * * *

  ==> Root No. 0 <==

    20          0.9589538170
    ba          0.2004824336
    ab          0.2004824336

    Total Energy:   -106.929857096378612


  ==> Root No. 1 <==

    ba         -0.6780013584
    ab         -0.6780013584
    20          0.2835622288

    Total Energy:   -106.914577482073383



  ==> Permanent Dipole Moments (A1) <==

  Only print nonzero (> 1.0e-5) elements.
  Permanent dipole moments (a.u.) 0 -> 0:  X:  0.0000  Y:  0.0000  Z: -9.0876  Total:  9.0876
  Permanent dipole moments (a.u.) 1 -> 1:  X:  0.0000  Y:  0.0000  Z: -0.8550  Total:  0.8550


  ==> Transition Dipole Moments (A1 -> A1) <==

  Only print nonzero (> 1.0e-5) elements.
  Transition dipole moments (a.u.) 0 -> 1:  X:  0.0000  Y:  0.0000  Z: -2.8390  Total:  2.8390


  ==> Oscillator Strength (A1 -> A1) <==

  Only print nonzero (> 1.0e-5) elements.
  Oscillator strength (a.u.) 0 -> 1:  X:  0.0000  Y:  0.0000  Z:  0.0821  Total:  0.0821


  ==> Overlap of Singlet A1 <==

  ## S (Symmetry 0) ##
  Irrep: 1 Size: 2 x 2

                 1                   2

    1     1.00000000000000     0.00485176921217
    2     0.00485176921217     1.00000000000000





  ==> Total Timings (s) for Computing Commutators <==

             [H1, T1]    [H1, T2]    [H2, T1]    [H2, T2]
    -----------------------------------------------------
    -> C0       0.003       0.005       0.005       0.080
    -> C1       0.001       0.012       0.008       0.165
    -> C2                   0.009       0.009       0.062
    -----------------------------------------------------


  ==> Dynamically Weighted Driven Similarity Renormalization Group Energy Summary <==

    Multi.  Irrep.  No.                   CASCI
    -------------------------------------------
       1      A1     0      -106.77234453121204
       1      A1     1      -106.73342558994831
    -------------------------------------------

    Multi.  Irrep.  No.       DWMS(sH)-DSRG-PT2
    -------------------------------------------
       1      A1     0      -106.93005699410749
       1      A1     1      -106.91457748207338
    -------------------------------------------
	CASCI/DWMS(sH0)-DSRG-PT2 energy on root 0.........................PASSED
	CASCI/DWMS(sH0)-DSRG-PT2 energy on root 1.........................PASSED
   => Loading Basis Set <=

    Name: STO-3G
    Role: ORBITAL
    Keyword: MINAO_BASIS
    atoms 1 entry LI         line    31 file /Users/york/src/psi4new/psi4/share/psi4/basis/sto-3g.gbs 
    atoms 2 entry F          line    91 file /Users/york/src/psi4new/psi4/share/psi4/basis/sto-3g.gbs 


Reading options from the FORTE block
Calling plugin forte.so.



  Forte
  ----------------------------------------------------------------------------
  A suite of quantum chemistry methods for strongly correlated electrons

    git branch: dwsa-dsrg-pt - git commit: 5258b91f

  Developed by:
    Francesco A. Evangelista, Chenyang Li, Kevin P. Hannon,
    Jeffrey B. Schriber, Tianyuan Zhang, Chenxi Cai
  ----------------------------------------------------------------------------

  Size of Determinant class: 32

  ==> MO Space Information <==

  Read options for space FROZEN_DOCC
  Read options for space RESTRICTED_DOCC
  Read options for space ACTIVE
 Removing orbital 0
 Removing orbital 1
 Removing orbital 2
  -------------------------------------------------
                       A1    A2    B1    B2   Sum
  -------------------------------------------------
    FROZEN_DOCC         3     0     0     0     3
    RESTRICTED_DOCC     0     0     1     1     2
    ACTIVE              2     0     0     0     2
    RESTRICTED_UOCC    13     3     7     7    30
    FROZEN_UOCC         0     0     0     0     0
    Total              18     3     8     8    37
  -------------------------------------------------

  ==> Integral Transformation <==

  Number of molecular orbitals:               37
  Number of correlated molecular orbitals:    34
  Number of frozen occupied orbitals:          3
  Number of frozen unoccupied orbitals:        0


  Overall Conventional Integrals timings

	Presorting SO-basis two-electron integrals.
	Sorting File: SO Ints (nn|nn) nbuckets = 1
	Transforming the one-electron integrals and constructing Fock matrices
	Starting first half-transformation.
	Sorting half-transformed integrals.
	First half integral transformation complete.
	Starting second half-transformation.
	Two-electron integral transformation complete.

  Integral transformation done. 0.08254300 s
  Reading the two-electron integrals from disk
  Size of two-electron integrals:   0.041891 GB
  Frozen-core energy            -96.836564420721 a.u.

  FrozenOneBody Operator takes  0.27136800 s
  Resorting integrals after freezing core.
  Conventional integrals take 0.79435300 s

        ----------------------------------------------------------------
          Dynamically Weighted Driven Similarity Renormalization Group
                        Multi-State Perturbation Theory
                                  Chenyang Li
        ----------------------------------------------------------------


  ==> DWMS-DSRG Options <==

    CORRELATION LEVEL         PT2
    ZETA VALUE           1.00e+02
    REFERENCE               CASCI
    ALGORITHM                SH-1

  ==> Implementation Note on SH-1 <==

  - Perform CASCI using user-defined weights. (*)
  - Perform SA-DSRG-PT2 using user-defined weights.
  - Loop over averaged states:
      - Compute new density weights using energies of (*).
      - Semicanonicalize orbitals.
      - Form DSRG-PT2 transformed Hamiltonian.
      - Perform CASCI on DSRG-PT2 Hamiltonian. (#)
  - Test orthogonality for CI vectors of (#) between states.
  - Collect and print excitation energies.

  Additional note on step (#):
  - Initial guess from SA-DSRG-PT2/CASCI for Davidson-Liu solver.
  - CI vectors of previous roots are projected out from current root.
  - CI vectors should be orthogonal between states.

              ---------------------------------------------------
                Complete Active Space Configuration Interaction
                                  Chenyang Li
              ---------------------------------------------------


  ==> Input Summary <==

    No. a electrons in active      =     1
    No. b electrons in active      =     1
    multiplicity                   =     1
    spin ms (2 * Sz)               =     0

  ==> Orbital Spaces <==

    TOTAL MO                      [   18     3     8     8 ]
    FROZEN CORE                   [    3     0     0     0 ]
    FROZEN VIRTUAL                [    0     0     0     0 ]
    CORRELATED MO                 [   15     3     8     8 ]
    CORE                          [    0     0     1     1 ]
    ACTIVE                        [    2     0     0     0 ]
    VIRTUAL                       [   13     3     7     7 ]

  ==> State Averaging Summary <==

    Irrep.  Multi.  Nstates      Weights
    ------------------------------------
      A1       1        2    0.500 0.500
    ------------------------------------
    Total number of states: 2
    ------------------------------------

  Forming alpha and beta strings      ...  Done. Timing        0.000032 s
  Forming determinants                ...  Done. Timing        0.000011 s

  ==> Determinants Summary <==

    number of alpha active electrons         =     1
    number of beta active electrons          =     1
    root symmetry (zero based)               =     0
    number of determinants                   =     4

  Diagonalizing Hamiltonian           ...
  Found 3 roots with 2S+1 = 1 *
  Found 1 roots with 2S+1 = 3  Done. Timing        0.000397 s

  * * * * * * * * * * * * * * * * *
  *  CI Vectors & Configurations  *
  * * * * * * * * * * * * * * * * *

  ==> Root No. 0 <==

    ba         -0.6998431885
    ab         -0.6998431885
    20         -0.1420971205

    Total Energy:   -106.772344531212042


  ==> Root No. 1 <==

    20         -0.9898526998
    ba          0.1004674493
    ab          0.1004674493

    Total Energy:   -106.733425589948311



  ==> Permanent Dipole Moments (A1) <==

  Only print nonzero (> 1.0e-5) elements.
  Permanent dipole moments (a.u.) 0 -> 0:  X:  0.0000  Y:  0.0000  Z: -0.1343  Total:  0.1343
  Permanent dipole moments (a.u.) 1 -> 1:  X:  0.0000  Y:  0.0000  Z: -9.8082  Total:  9.8082


  ==> Transition Dipole Moments (A1 -> A1) <==

  Only print nonzero (> 1.0e-5) elements.
  Transition dipole moments (a.u.) 0 -> 1:  X:  0.0000  Y:  0.0000  Z: -1.2681  Total:  1.2681


  ==> Oscillator Strength (A1 -> A1) <==

  Only print nonzero (> 1.0e-5) elements.
  Oscillator strength (a.u.) 0 -> 1:  X:  0.0000  Y:  0.0000  Z:  0.0417  Total:  0.0417

  Total Energy (averaged over 2 states): -106.752885060580184


  ===============================
  Current Job: Singlet A1, root 0
  ===============================


  ==> Original State Averaging Summary <==

    Irrep.  Multi.  Nroots       Weights
    ------------------------------------
      A1       1       2     0.500 0.500
    ------------------------------------

  ==> Reweighted State Averaging Summary <==

    Irrep.  Multi.  Nroots       Weights
    ------------------------------------
      A1       1       2     0.538 0.462
    ------------------------------------

  ==> Compute State-Averaged Cumulants <==

  Computing  1RDM (0-0) of Singlet A1 ... Writing ... Done. Timing        0.000627 s
  Computing  2RDM (0-0) of Singlet A1 ... Writing ... Done. Timing        0.000702 s
  Computing  3RDM (0-0) of Singlet A1 ... Writing ... Done. Timing        0.000772 s
  Computing  1RDM (1-1) of Singlet A1 ... Writing ... Done. Timing        0.000350 s
  Computing  2RDM (1-1) of Singlet A1 ... Writing ... Done. Timing        0.000610 s
  Computing  3RDM (1-1) of Singlet A1 ... Writing ... Done. Timing        0.000962 s
  Adding wedge product for 2-cumulants ... Done. Timing        0.001053 s
  Adding wedge product for 3-cumulants ... Done. Timing        0.017245 s

  ==> Multireference Driven Similarity Renormalization Group <==

    Reading DSRG options ............................ Done
    Setting ambit MO space .......................... Done
    Preparing tensors for density cumulants ......... Done
    Building Fock matrix ............................ Done
    Checking reference energy ....................... Done

              ----------------------------------------------------
                    MR-DSRG Second-Order Perturbation Theory
                Chenyang Li, Kevin Hannon, Francesco Evangelista
              ----------------------------------------------------

    References:
      u-DSRG-MRPT2:    J. Chem. Theory Comput. 2015, 11, 2097.
      (pr-)DSRG-MRPT2: J. Chem. Phys. 2017, 146, 124132.

  ==> Calculation Information <==

    ntamp                                                 15
    flow parameter                                 5.000e-01
    taylor expansion threshold                     1.000e-03
    intruder_tamp                                  1.000e-01
    int_type                                    CONVENTIONAL
    source operator                                 STANDARD
    reference relaxation                                NONE
    state_type                                   MULTI-STATE
    multi-state type                                 SA_FULL
    form Hbar3                                         FALSE

  ==> Checking Semicanonical Orbitals <==

    Abs. max of Fock core, active, virtual blocks (Fij, i != j)
                  core          active         virtual
    --------------------------------------------------
    Fα    0.0000000000    0.0004711275    0.0043354005
    Fβ    0.0000000000    0.0004711275    0.0043354005
    --------------------------------------------------

    1-Norm of Fock core, active, virtual blocks (Fij, i != j)
                  core          active         virtual
    --------------------------------------------------
    Fα    0.0000000000    0.0009422549    0.1423610963
    Fβ    0.0000000000    0.0009422549    0.1423610963
    --------------------------------------------------

    Warning! Orbitals are not semi-canonicalized!
    Orbital invariant formalism will be employed for DSRG-MRPT2.

  ==> Computing DSRG-MRPT2 ... <==

    Computing T2 amplitudes                  ...  Done. Timing        0.418141 s
    Computing T1 amplitudes                  ...  Done. Timing        0.026149 s
    Renormalizing two-electron integrals     ...  Done. Timing        0.415407 s
    Renormalizing Fock matrix elements       ...  Done. Timing        0.027341 s
    Computing <[F, T1]>                      ...  Done. Timing        0.002470 s
    Computing <[F, T2]>                      ...  Done. Timing        0.004923 s
    Computing <[V, T1]>                      ...  Done. Timing        0.004504 s
    Computing <[V, T2]> (C_2)^4              ...  Done. Timing        0.029816 s
    Computing <[V, T2]> C_4 (C_2)^2 HH       ...  Done. Timing        0.007312 s
    Computing <[V, T2]> C_4 (C_2)^2 PP       ...  Done. Timing        0.006122 s
    Computing <[V, T2]> C_4 (C_2)^2 PH       ...  Done. Timing        0.027581 s
    Computing <[V, T2]> C_6 C_2              ...  Done. Timing        0.011800 s

  ==> Excitation Amplitudes Summary <==

    Active Indices:    0    1 
    Largest T1 amplitudes for spin case A:
       i       a                  i       a                  i       a               
    --------------------------------------------------------------------------------
    [  0      11    ] 0.005415 [ 18      24    ]-0.002619 [ 26      32    ]-0.002619 
    [  0       7    ] 0.001923 [  0       8    ] 0.001720 [ 18      22    ] 0.001373 
    [ 26      30    ] 0.001373 [  0       5    ]-0.001148 [  1       4    ] 0.001118 
    [  1      11    ] 0.000965 [  1       3    ]-0.000737 [  1       5    ] 0.000680 
    [  1       2    ]-0.000598 [  0       9    ]-0.000508 [ 18      21    ]-0.000400 
    --------------------------------------------------------------------------------
    Norm of T1A vector: (nonzero elements: 40)                    0.007699077669557.
    --------------------------------------------------------------------------------
    Largest T1 amplitudes for spin case B:
       _       _                  _       _                  _       _               
       i       a                  i       a                  i       a               
    --------------------------------------------------------------------------------
    [  0      11    ] 0.005415 [ 18      24    ]-0.002619 [ 26      32    ]-0.002619 
    [  0       7    ] 0.001923 [  0       8    ] 0.001720 [ 18      22    ] 0.001373 
    [ 26      30    ] 0.001373 [  0       5    ]-0.001148 [  1       4    ] 0.001118 
    [  1      11    ] 0.000965 [  1       3    ]-0.000737 [  1       5    ] 0.000680 
    [  1       2    ]-0.000598 [  0       9    ]-0.000508 [ 18      21    ]-0.000400 
    --------------------------------------------------------------------------------
    Norm of T1B vector: (nonzero elements: 40)                    0.007699077669557.
    --------------------------------------------------------------------------------
    Largest T2 amplitudes for spin case AA:
       i   j   a   b              i   j   a   b              i   j   a   b           
    --------------------------------------------------------------------------------
    [  0  26   0  32] 0.069243 [  0  18   0  24] 0.069243 [  0  26   0  30]-0.036103 
    [  0  18   0  22]-0.036103 [  0  26  11  32]-0.024249 [  0  18  11  24]-0.024249 
    [ 18  26  24  32]-0.023588 [ 18  26  10  16]-0.015391 [  0  26  11  30] 0.014558 
    [  0  18  11  22] 0.014558 [  0  18   9  23] 0.014210 [  0  26   9  31] 0.014210 
    [ 18  26  24  30] 0.014044 [ 18  26  22  32] 0.014044 [  0  26   8  32]-0.010855 
    --------------------------------------------------------------------------------
    Norm of T2AA vector: (nonzero elements: 3024)                 0.267611533017360.
    --------------------------------------------------------------------------------
    Largest T2 amplitudes for spin case AB:
           _       _                  _       _                  _       _           
       i   j   a   b              i   j   a   b              i   j   a   b           
    --------------------------------------------------------------------------------
    [  0   0   0  11] 0.083721 [  0  26   0  32] 0.073260 [  0  18   0  24] 0.073260 
    [  0  26   0  30]-0.038917 [  0  18   0  22]-0.038917 [  0   0  11  11]-0.037849 
    [ 26  26  32  32]-0.035614 [ 18  18  24  24]-0.035614 [  0   0   0   8] 0.029451 
    [  0  18  11  24]-0.028394 [  0  26  11  32]-0.028394 [ 18  26  24  32]-0.027597 
    [  0   0   0   7] 0.026580 [  0   0   9   9]-0.019734 [ 26  26  30  32] 0.019007 
    --------------------------------------------------------------------------------
    Norm of T2AB vector: (nonzero elements: 4368)                 0.270137142976321.
    --------------------------------------------------------------------------------
    Largest T2 amplitudes for spin case BB:
       _   _   _   _              _   _   _   _              _   _   _   _           
       i   j   a   b              i   j   a   b              i   j   a   b           
    --------------------------------------------------------------------------------
    [  0  26   0  32] 0.069243 [  0  18   0  24] 0.069243 [  0  26   0  30]-0.036103 
    [  0  18   0  22]-0.036103 [  0  18  11  24]-0.024249 [  0  26  11  32]-0.024249 
    [ 18  26  24  32]-0.023588 [ 18  26  10  16]-0.015391 [  0  26  11  30] 0.014558 
    [  0  18  11  22] 0.014558 [  0  18   9  23] 0.014210 [  0  26   9  31] 0.014210 
    [ 18  26  22  32] 0.014044 [ 18  26  24  30] 0.014044 [  0  26   8  32]-0.010855 
    --------------------------------------------------------------------------------
    Norm of T2BB vector: (nonzero elements: 3024)                 0.267611533017360.
    --------------------------------------------------------------------------------

  ==> Possible Intruders <==

    T1 amplitudes larger than 0.1000 for spin case A: NULL
    T1 amplitudes larger than 0.1000 for spin case B: NULL
    T2 amplitudes larger than 0.1000 for spin case AA: NULL
    T2 amplitudes larger than 0.1000 for spin case AB: NULL
    T2 amplitudes larger than 0.1000 for spin case BB: NULL

  ==> DSRG-MRPT2 Energy Summary <==

    E0 (reference)                 =   -106.754355996817281
    <[F, T1]>                      =     -0.000327693619332
    <[F, T2]>                      =      0.000309201423548
    <[V, T1]>                      =      0.000308964621828
    <[V, T2]> (C_2)^4              =     -0.179863119130513
    <[V, T2]> C_4 (C_2)^2 HH       =      0.000085055254441
    <[V, T2]> C_4 (C_2)^2 PP       =      0.003024622606616
    <[V, T2]> C_4 (C_2)^2 PH       =      0.008860508468893
    <[V, T2]> C_6 C_2              =     -0.000026097063360
    <[V, T2]>                      =     -0.167919029863923
    DSRG-MRPT2 correlation energy  =     -0.167628557437879
    DSRG-MRPT2 total energy        =   -106.921984554255161
    max(T1)                        =      0.005415387810863
    max(T2)                        =      0.083720637071231
    ||T1||                         =      0.010888140058052
    ||T2||                         =      0.659642455629898

  Energy took      1.002 s


  ==> De-Normal-Order DSRG Transformed Hamiltonian <==

    Computing the scalar term                ... Done. Timing    0.002 s
    Computing the 1-body term                ... Done. Timing    0.001 s

  ==> Rotate DSRG Transformed Hamiltonian back to Original Basis <==

    Rotating 1-body term to original basis   ... Done. Timing    0.001 s
    Rotating 2-body term to original basis   ... Done. Timing    0.020 s

  ==> Diagonalize DWMS(sH)-DSRG Active Hamiltonian <==

  Forming alpha and beta strings      ...  Done. Timing        0.000055 s
  Forming determinants                ...  Done. Timing        0.000015 s

  ==> Determinants Summary <==

    number of alpha active electrons         =     1
    number of beta active electrons          =     1
    root symmetry (zero based)               =     0
    number of determinants                   =     4

  Diagonalizing Hamiltonian           ...
  Found 3 roots with 2S+1 = 1 *
  Found 1 roots with 2S+1 = 3  Done. Timing        0.000569 s

  * * * * * * * * * * * * * * * * *
  *  CI Vectors & Configurations  *
  * * * * * * * * * * * * * * * * *

  ==> Root No. 0 <==

    20          0.9603183020
    ba          0.1971902227
    ab          0.1971902227

    Total Energy:   -106.930056994107488


  ==> Root No. 1 <==

    ba         -0.6789653879
    ab         -0.6789653879
    20          0.2789062823

    Total Energy:   -106.914678928526854



  ==> Permanent Dipole Moments (A1) <==

  Only print nonzero (> 1.0e-5) elements.
  Permanent dipole moments (a.u.) 0 -> 0:  X:  0.0000  Y:  0.0000  Z: -9.1149  Total:  9.1149
  Permanent dipole moments (a.u.) 1 -> 1:  X:  0.0000  Y:  0.0000  Z: -0.8276  Total:  0.8276


  ==> Transition Dipole Moments (A1 -> A1) <==

  Only print nonzero (> 1.0e-5) elements.
  Transition dipole moments (a.u.) 0 -> 1:  X:  0.0000  Y:  0.0000  Z: -2.7989  Total:  2.7989


  ==> Oscillator Strength (A1 -> A1) <==

  Only print nonzero (> 1.0e-5) elements.
  Oscillator strength (a.u.) 0 -> 1:  X:  0.0000  Y:  0.0000  Z:  0.0803  Total:  0.0803


  ===============================
  Current Job: Singlet A1, root 1
  ===============================


  ==> Original State Averaging Summary <==

    Irrep.  Multi.  Nroots       Weights
    ------------------------------------
      A1       1       2     0.538 0.462
    ------------------------------------

  ==> Reweighted State Averaging Summary <==

    Irrep.  Multi.  Nroots       Weights
    ------------------------------------
      A1       1       2     0.462 0.538
    ------------------------------------

  ==> Compute State-Averaged Cumulants <==

  Computing  1RDM (0-0) of Singlet A1 ... Reading ... Done. Timing        0.000101 s
  Computing  2RDM (0-0) of Singlet A1 ... Reading ... Done. Timing        0.000089 s
  Computing  3RDM (0-0) of Singlet A1 ... Reading ... Done. Timing        0.000107 s
  Computing  1RDM (1-1) of Singlet A1 ... Reading ... Done. Timing        0.000062 s
  Computing  2RDM (1-1) of Singlet A1 ... Reading ... Done. Timing        0.000083 s
  Computing  3RDM (1-1) of Singlet A1 ... Reading ... Done. Timing        0.000251 s
  Adding wedge product for 2-cumulants ... Done. Timing        0.000655 s
  Adding wedge product for 3-cumulants ... Done. Timing        0.014226 s

  ==> Multireference Driven Similarity Renormalization Group <==

    Reading DSRG options ............................ Done
    Setting ambit MO space .......................... Done
    Preparing tensors for density cumulants ......... Done
    Building Fock matrix ............................ Done
    Checking reference energy ....................... Done

              ----------------------------------------------------
                    MR-DSRG Second-Order Perturbation Theory
                Chenyang Li, Kevin Hannon, Francesco Evangelista
              ----------------------------------------------------

    References:
      u-DSRG-MRPT2:    J. Chem. Theory Comput. 2015, 11, 2097.
      (pr-)DSRG-MRPT2: J. Chem. Phys. 2017, 146, 124132.

  ==> Calculation Information <==

    ntamp                                                 15
    flow parameter                                 5.000e-01
    taylor expansion threshold                     1.000e-03
    intruder_tamp                                  1.000e-01
    int_type                                    CONVENTIONAL
    source operator                                 STANDARD
    reference relaxation                                NONE
    state_type                                   MULTI-STATE
    multi-state type                                 SA_FULL
    form Hbar3                                         FALSE

  ==> Total Timings (s) for Computing Commutators <==

             [H1, T1]    [H1, T2]    [H2, T1]    [H2, T2]
    -----------------------------------------------------
    -> C0       0.003       0.005       0.005       0.083
    -> C1       0.001       0.013       0.008       0.169
    -> C2                   0.008       0.009       0.063
    -----------------------------------------------------


  ==> Checking Semicanonical Orbitals <==

    Abs. max of Fock core, active, virtual blocks (Fij, i != j)
                  core          active         virtual
    --------------------------------------------------
    Fα    0.0000000000    0.0004711275    0.0043354005
    Fβ    0.0000000000    0.0004711275    0.0043354005
    --------------------------------------------------

    1-Norm of Fock core, active, virtual blocks (Fij, i != j)
                  core          active         virtual
    --------------------------------------------------
    Fα    0.0000000000    0.0009422549    0.1423610968
    Fβ    0.0000000000    0.0009422549    0.1423610968
    --------------------------------------------------

    Warning! Orbitals are not semi-canonicalized!
    Orbital invariant formalism will be employed for DSRG-MRPT2.

  ==> Computing DSRG-MRPT2 ... <==

    Computing T2 amplitudes                  ...  Done. Timing        0.408924 s
    Computing T1 amplitudes                  ...  Done. Timing        0.028141 s
    Renormalizing two-electron integrals     ...  Done. Timing        0.421337 s
    Renormalizing Fock matrix elements       ...  Done. Timing        0.030176 s
    Computing <[F, T1]>                      ...  Done. Timing        0.001959 s
    Computing <[F, T2]>                      ...  Done. Timing        0.004014 s
    Computing <[V, T1]>                      ...  Done. Timing        0.004462 s
    Computing <[V, T2]> (C_2)^4              ...  Done. Timing        0.028970 s
    Computing <[V, T2]> C_4 (C_2)^2 HH       ...  Done. Timing        0.005920 s
    Computing <[V, T2]> C_4 (C_2)^2 PP       ...  Done. Timing        0.006710 s
    Computing <[V, T2]> C_4 (C_2)^2 PH       ...  Done. Timing        0.028732 s
    Computing <[V, T2]> C_6 C_2              ...  Done. Timing        0.011679 s

  ==> Excitation Amplitudes Summary <==

    Active Indices:    0    1 
    Largest T1 amplitudes for spin case A:
       i       a                  i       a                  i       a               
    --------------------------------------------------------------------------------
    [  0      11    ] 0.008489 [  0       8    ] 0.002832 [  0       7    ] 0.002817 
    [ 26      32    ] 0.002626 [ 18      24    ] 0.002626 [  0       5    ]-0.001805 
    [ 26      30    ]-0.001337 [ 18      22    ]-0.001337 [  1       4    ] 0.000965 
    [  1      11    ] 0.000914 [  1       5    ] 0.000827 [  1       2    ]-0.000645 
    [  1       3    ]-0.000575 [  1       8    ]-0.000390 [ 26      29    ] 0.000389 
    --------------------------------------------------------------------------------
    Norm of T1A vector: (nonzero elements: 40)                    0.010617046252956.
    --------------------------------------------------------------------------------
    Largest T1 amplitudes for spin case B:
       _       _                  _       _                  _       _               
       i       a                  i       a                  i       a               
    --------------------------------------------------------------------------------
    [  0      11    ] 0.008489 [  0       8    ] 0.002832 [  0       7    ] 0.002817 
    [ 26      32    ] 0.002626 [ 18      24    ] 0.002626 [  0       5    ]-0.001805 
    [ 26      30    ]-0.001337 [ 18      22    ]-0.001337 [  1       4    ] 0.000965 
    [  1      11    ] 0.000914 [  1       5    ] 0.000827 [  1       2    ]-0.000645 
    [  1       3    ]-0.000575 [  1       8    ]-0.000390 [ 26      29    ] 0.000389 
    --------------------------------------------------------------------------------
    Norm of T1B vector: (nonzero elements: 40)                    0.010617046252956.
    --------------------------------------------------------------------------------
    Largest T2 amplitudes for spin case AA:
       i   j   a   b              i   j   a   b              i   j   a   b           
    --------------------------------------------------------------------------------
    [  0  26   0  32] 0.069416 [  0  18   0  24] 0.069416 [  0  26   0  30]-0.035157 
    [  0  18   0  22]-0.035157 [  0  18  11  24]-0.024156 [  0  26  11  32]-0.024156 
    [ 18  26  24  32]-0.023623 [ 18  26  10  16]-0.015501 [  0  26  11  30] 0.014565 
    [  0  18  11  22] 0.014565 [  0  18   9  23] 0.014222 [  0  26   9  31] 0.014222 
    [ 18  26  24  30] 0.014148 [ 18  26  22  32] 0.014148 [  0  26   8  32]-0.010866 
    --------------------------------------------------------------------------------
    Norm of T2AA vector: (nonzero elements: 3024)                 0.266837034734364.
    --------------------------------------------------------------------------------
    Largest T2 amplitudes for spin case AB:
           _       _                  _       _                  _       _           
       i   j   a   b              i   j   a   b              i   j   a   b           
    --------------------------------------------------------------------------------
    [  0   0   0  11] 0.083506 [  0  26   0  32] 0.073445 [  0  18   0  24] 0.073445 
    [  0  26   0  30]-0.037897 [  0  18   0  22]-0.037897 [  0   0  11  11]-0.037500 
    [ 26  26  32  32]-0.035674 [ 18  18  24  24]-0.035674 [  0   0   0   8] 0.029225 
    [  0  18  11  24]-0.028288 [  0  26  11  32]-0.028288 [ 18  26  24  32]-0.027640 
    [  0   0   0   7] 0.026398 [  0   0   9   9]-0.019623 [ 26  26  30  32] 0.019139 
    --------------------------------------------------------------------------------
    Norm of T2AB vector: (nonzero elements: 4368)                 0.269275818486610.
    --------------------------------------------------------------------------------
    Largest T2 amplitudes for spin case BB:
       _   _   _   _              _   _   _   _              _   _   _   _           
       i   j   a   b              i   j   a   b              i   j   a   b           
    --------------------------------------------------------------------------------
[...]
    [ 18  26  24  30] 0.014102 [ 18  26  22  32] 0.014102 [  0  18   8  24]-0.010861 
    --------------------------------------------------------------------------------
    Norm of T2AA vector: (nonzero elements: 3024)                 0.267173468131355.
    --------------------------------------------------------------------------------
    Largest T2 amplitudes for spin case AB:
           _       _                  _       _                  _       _           
       i   j   a   b              i   j   a   b              i   j   a   b           
    --------------------------------------------------------------------------------
    [  0   0   0  11] 0.083600 [  0  26   0  32] 0.073364 [  0  18   0  24] 0.073364 
    [  0  26   0  30]-0.038345 [  0  18   0  22]-0.038345 [  0   0  11  11]-0.037651 
    [ 18  18  24  24]-0.035648 [ 26  26  32  32]-0.035648 [  0   0   0   8] 0.029324 
    [  0  18  11  24]-0.028334 [  0  26  11  32]-0.028334 [ 18  26  24  32]-0.027621 
    [  0   0   0   7] 0.026478 [  0   0   9   9]-0.019671 [ 26  26  30  32] 0.019081 
    --------------------------------------------------------------------------------
    Norm of T2AB vector: (nonzero elements: 4368)                 0.269649578380634.
    --------------------------------------------------------------------------------
    Largest T2 amplitudes for spin case BB:
       _   _   _   _              _   _   _   _              _   _   _   _           
       i   j   a   b              i   j   a   b              i   j   a   b           
    --------------------------------------------------------------------------------
    [  0  26   0  32] 0.069340 [  0  18   0  24] 0.069340 [  0  26   0  30]-0.035573 
    [  0  18   0  22]-0.035573 [  0  18  11  24]-0.024197 [  0  26  11  32]-0.024197 
    [ 18  26  24  32]-0.023608 [ 18  26  10  16]-0.015453 [  0  26  11  30] 0.014562 
    [  0  18  11  22] 0.014562 [  0  18   9  23] 0.014217 [  0  26   9  31] 0.014217 
    [ 18  26  24  30] 0.014102 [ 18  26  22  32] 0.014102 [  0  26   8  32]-0.010861 
    --------------------------------------------------------------------------------
    Norm of T2BB vector: (nonzero elements: 3024)                 0.267173468131355.
    --------------------------------------------------------------------------------

  ==> Possible Intruders <==

    T1 amplitudes larger than 0.1000 for spin case A: NULL
    T1 amplitudes larger than 0.1000 for spin case B: NULL
    T2 amplitudes larger than 0.1000 for spin case AA: NULL
    T2 amplitudes larger than 0.1000 for spin case AB: NULL
    T2 amplitudes larger than 0.1000 for spin case BB: NULL

  ==> DSRG-MRPT2 Energy Summary <==

    E0 (reference)                 =   -106.752735049969644
    <[F, T1]>                      =     -0.000357384491511
    <[F, T2]>                      =      0.000339194921819
    <[V, T1]>                      =      0.000338968627630
    <[V, T2]> (C_2)^4              =     -0.179943048941015
    <[V, T2]> C_4 (C_2)^2 HH       =      0.000067525631811
    <[V, T2]> C_4 (C_2)^2 PP       =      0.002485952966106
    <[V, T2]> C_4 (C_2)^2 PH       =      0.007451390578220
    <[V, T2]> C_6 C_2              =     -0.000022246556027
    <[V, T2]>                      =     -0.169960426320907
    DSRG-MRPT2 correlation energy  =     -0.169639647262969
    DSRG-MRPT2 total energy        =   -106.922374697232613
    max(T1)                        =      0.007151976206302
    max(T2)                        =      0.083599611371153
    ||T1||                         =      0.011755288026978
    ||T2||                         =      0.658488348135400

  Energy took      1.018 s


  ==> De-Normal-Order DSRG Transformed Hamiltonian <==

    Computing the scalar term                ... Done. Timing    0.002 s
    Computing the 1-body term                ... Done. Timing    0.001 s

  ==> Rotate DSRG Transformed Hamiltonian back to Original Basis <==

    Rotating 1-body term to original basis   ... Done. Timing    0.001 s
    Rotating 2-body term to original basis   ... Done. Timing    0.022 s

  ==> Diagonalize DWMS(sH)-DSRG Active Hamiltonian <==

  Forming alpha and beta strings      ...  Done. Timing        0.000035 s
  Forming determinants                ...  Done. Timing        0.000009 s

  ==> Determinants Summary <==

    number of alpha active electrons         =     1
    number of beta active electrons          =     1
    root symmetry (zero based)               =     0
    number of determinants                   =     4

  Diagonalizing Hamiltonian           ...
  Found 3 roots with 2S+1 = 1 *
  Found 1 roots with 2S+1 = 3  Done. Timing        0.000434 s

  * * * * * * * * * * * * * * * * *
  *  CI Vectors & Configurations  *
  * * * * * * * * * * * * * * * * *

  ==> Root No. 0 <==

    20          0.9596242263
    ba          0.1988722527
    ab          0.1988722527

    Total Energy:   -106.929945342398440


  ==> Root No. 1 <==

    ba         -0.6784750422
    ab         -0.6784750422
    20          0.2812850893

    Total Energy:   -106.914624046832770



  ==> Permanent Dipole Moments (A1) <==

  Only print nonzero (> 1.0e-5) elements.
  Permanent dipole moments (a.u.) 0 -> 0:  X:  0.0000  Y:  0.0000  Z: -9.1010  Total:  9.1010
  Permanent dipole moments (a.u.) 1 -> 1:  X:  0.0000  Y:  0.0000  Z: -0.8415  Total:  0.8415


  ==> Transition Dipole Moments (A1 -> A1) <==

  Only print nonzero (> 1.0e-5) elements.
  Transition dipole moments (a.u.) 0 -> 1:  X:  0.0000  Y:  0.0000  Z: -2.8194  Total:  2.8194


  ==> Oscillator Strength (A1 -> A1) <==

  Only print nonzero (> 1.0e-5) elements.
  Oscillator strength (a.u.) 0 -> 1:  X:  0.0000  Y:  0.0000  Z:  0.0812  Total:  0.0812


  ===============================
  Current Job: Singlet A1, root 1
  ===============================


  ==> Original State Averaging Summary <==

    Irrep.  Multi.  Nroots       Weights
    ------------------------------------
      A1       1       2     0.506 0.494
    ------------------------------------

  ==> Reweighted State Averaging Summary <==

    Irrep.  Multi.  Nroots       Weights
    ------------------------------------
      A1       1       2     0.494 0.506
    ------------------------------------

  ==> Compute State-Averaged Cumulants <==

  Computing  1RDM (0-0) of Singlet A1 ... Reading ... Done. Timing        0.000104 s
  Computing  2RDM (0-0) of Singlet A1 ... Reading ... Done. Timing        0.000090 s
  Computing  3RDM (0-0) of Singlet A1 ... Reading ... Done. Timing        0.000110 s
  Computing  1RDM (1-1) of Singlet A1 ... Reading ... Done. Timing        0.000137 s
  Computing  2RDM (1-1) of Singlet A1 ... Reading ... Done. Timing        0.000108 s
  Computing  3RDM (1-1) of Singlet A1 ... Reading ... Done. Timing        0.000107 s
  Adding wedge product for 2-cumulants ... Done. Timing        0.000705 s
  Adding wedge product for 3-cumulants ... Done. Timing        0.012889 s

  ==> Multireference Driven Similarity Renormalization Group <==

    Reading DSRG options ............................ Done
    Setting ambit MO space .......................... Done
    Preparing tensors for density cumulants ......... Done
    Building Fock matrix ............................ Done
    Checking reference energy ....................... Done

              ----------------------------------------------------
                    MR-DSRG Second-Order Perturbation Theory
                Chenyang Li, Kevin Hannon, Francesco Evangelista
              ----------------------------------------------------

    References:
      u-DSRG-MRPT2:    J. Chem. Theory Comput. 2015, 11, 2097.
      (pr-)DSRG-MRPT2: J. Chem. Phys. 2017, 146, 124132.

  ==> Calculation Information <==

    ntamp                                                 15
    flow parameter                                 5.000e-01
    taylor expansion threshold                     1.000e-03
    intruder_tamp                                  1.000e-01
    int_type                                    CONVENTIONAL
    source operator                                 STANDARD
    reference relaxation                                NONE
    state_type                                   MULTI-STATE
    multi-state type                                 SA_FULL
    form Hbar3                                         FALSE

  ==> Total Timings (s) for Computing Commutators <==

             [H1, T1]    [H1, T2]    [H2, T1]    [H2, T2]
    -----------------------------------------------------
    -> C0       0.002       0.005       0.005       0.084
    -> C1       0.001       0.012       0.007       0.165
    -> C2                   0.009       0.009       0.060
    -----------------------------------------------------


  ==> Checking Semicanonical Orbitals <==

    Abs. max of Fock core, active, virtual blocks (Fij, i != j)
                  core          active         virtual
    --------------------------------------------------
    Fα    0.0000000000    0.0002525789    0.0005753170
    Fβ    0.0000000000    0.0002525789    0.0005753170
    --------------------------------------------------

    1-Norm of Fock core, active, virtual blocks (Fij, i != j)
                  core          active         virtual
    --------------------------------------------------
    Fα    0.0000000000    0.0005051578    0.0185879892
    Fβ    0.0000000000    0.0005051578    0.0185879892
    --------------------------------------------------

    Warning! Orbitals are not semi-canonicalized!
    Orbital invariant formalism will be employed for DSRG-MRPT2.

  ==> Computing DSRG-MRPT2 ... <==

    Computing T2 amplitudes                  ...  Done. Timing        0.411122 s
    Computing T1 amplitudes                  ...  Done. Timing        0.028403 s
    Renormalizing two-electron integrals     ...  Done. Timing        0.407482 s
    Renormalizing Fock matrix elements       ...  Done. Timing        0.029253 s
    Computing <[F, T1]>                      ...  Done. Timing        0.001906 s
    Computing <[F, T2]>                      ...  Done. Timing        0.005199 s
    Computing <[V, T1]>                      ...  Done. Timing        0.004359 s
    Computing <[V, T2]> (C_2)^4              ...  Done. Timing        0.029526 s
    Computing <[V, T2]> C_4 (C_2)^2 HH       ...  Done. Timing        0.006891 s
    Computing <[V, T2]> C_4 (C_2)^2 PP       ...  Done. Timing        0.008633 s
    Computing <[V, T2]> C_4 (C_2)^2 PH       ...  Done. Timing        0.029017 s
    Computing <[V, T2]> C_6 C_2              ...  Done. Timing        0.013118 s

  ==> Excitation Amplitudes Summary <==

    Active Indices:    0    1 
    Largest T1 amplitudes for spin case A:
       i       a                  i       a                  i       a               
    --------------------------------------------------------------------------------
    [  0      11    ] 0.006756 [  0       7    ] 0.002315 [  0       8    ] 0.002202 
    [  0       5    ]-0.001427 [  1       4    ] 0.001052 [  1      11    ] 0.000942 
    [  1       5    ] 0.000744 [  1       3    ]-0.000666 [  1       2    ]-0.000618 
    [  0       9    ]-0.000393 [  1       7    ] 0.000354 [ 18      24    ]-0.000340 
    [ 26      32    ]-0.000340 [  1       8    ]-0.000331 [  0       4    ] 0.000209 
    --------------------------------------------------------------------------------
    Norm of T1A vector: (nonzero elements: 40)                    0.007880314603867.
    --------------------------------------------------------------------------------
    Largest T1 amplitudes for spin case B:
       _       _                  _       _                  _       _               
       i       a                  i       a                  i       a               
    --------------------------------------------------------------------------------
    [  0      11    ] 0.006756 [  0       7    ] 0.002315 [  0       8    ] 0.002202 
    [  0       5    ]-0.001427 [  1       4    ] 0.001052 [  1      11    ] 0.000942 
    [  1       5    ] 0.000744 [  1       3    ]-0.000666 [  1       2    ]-0.000618 
    [  0       9    ]-0.000393 [  1       7    ] 0.000354 [ 18      24    ]-0.000340 
    [ 26      32    ]-0.000340 [  1       8    ]-0.000331 [  0       4    ] 0.000209 
    --------------------------------------------------------------------------------
    Norm of T1B vector: (nonzero elements: 40)                    0.007880314603867.
    --------------------------------------------------------------------------------
    Largest T2 amplitudes for spin case AA:
       i   j   a   b              i   j   a   b              i   j   a   b           
    --------------------------------------------------------------------------------
    [  0  26   0  32] 0.069317 [  0  18   0  24] 0.069317 [  0  26   0  30]-0.035696 
    [  0  18   0  22]-0.035696 [  0  26  11  32]-0.024209 [  0  18  11  24]-0.024209 
    [ 18  26  24  32]-0.023604 [ 18  26  10  16]-0.015439 [  0  26  11  30] 0.014561 
    [  0  18  11  22] 0.014561 [  0  18   9  23] 0.014216 [  0  26   9  31] 0.014216 
    [ 18  26  22  32] 0.014089 [ 18  26  24  30] 0.014089 [  0  26   8  32]-0.010860 
    --------------------------------------------------------------------------------
    Norm of T2AA vector: (nonzero elements: 3024)                 0.267274633834994.
    --------------------------------------------------------------------------------
    Largest T2 amplitudes for spin case AB:
           _       _                  _       _                  _       _           
       i   j   a   b              i   j   a   b              i   j   a   b           
    --------------------------------------------------------------------------------
    [  0   0   0  11] 0.083628 [  0  26   0  32] 0.073340 [  0  18   0  24] 0.073340 
    [  0  26   0  30]-0.038478 [  0  18   0  22]-0.038478 [  0   0  11  11]-0.037697 
    [ 26  26  32  32]-0.035640 [ 18  18  24  24]-0.035640 [  0   0   0   8] 0.029353 
    [  0  18  11  24]-0.028348 [  0  26  11  32]-0.028348 [ 18  26  24  32]-0.027616 
    [  0   0   0   7] 0.026501 [  0   0   9   9]-0.019686 [ 26  26  30  32] 0.019064 
    --------------------------------------------------------------------------------
    Norm of T2AB vector: (nonzero elements: 4368)                 0.269763305755485.
    --------------------------------------------------------------------------------
    Largest T2 amplitudes for spin case BB:
       _   _   _   _              _   _   _   _              _   _   _   _           
       i   j   a   b              i   j   a   b              i   j   a   b           
    --------------------------------------------------------------------------------
    [  0  26   0  32] 0.069317 [  0  18   0  24] 0.069317 [  0  26   0  30]-0.035696 
    [  0  18   0  22]-0.035696 [  0  18  11  24]-0.024209 [  0  26  11  32]-0.024209 
    [ 18  26  24  32]-0.023604 [ 18  26  10  16]-0.015439 [  0  26  11  30] 0.014561 
    [  0  18  11  22] 0.014561 [  0  18   9  23] 0.014216 [  0  26   9  31] 0.014216 
    [ 18  26  24  30] 0.014089 [ 18  26  22  32] 0.014089 [  0  26   8  32]-0.010860 
    --------------------------------------------------------------------------------
    Norm of T2BB vector: (nonzero elements: 3024)                 0.267274633834994.
    --------------------------------------------------------------------------------

  ==> Possible Intruders <==

    T1 amplitudes larger than 0.1000 for spin case A: NULL
    T1 amplitudes larger than 0.1000 for spin case B: NULL
    T2 amplitudes larger than 0.1000 for spin case AA: NULL
    T2 amplitudes larger than 0.1000 for spin case AB: NULL
    T2 amplitudes larger than 0.1000 for spin case BB: NULL

  ==> DSRG-MRPT2 Energy Summary <==

    E0 (reference)                 =   -106.753035008049523
    <[F, T1]>                      =     -0.000320123224939
    <[F, T2]>                      =      0.000334200178622
    <[V, T1]>                      =      0.000334054820016
    <[V, T2]> (C_2)^4              =     -0.179945094779748
    <[V, T2]> C_4 (C_2)^2 HH       =      0.000071314874275
    <[V, T2]> C_4 (C_2)^2 PP       =      0.002602994542885
    <[V, T2]> C_4 (C_2)^2 PH       =      0.007765277326099
    <[V, T2]> C_6 C_2              =     -0.000021082291283
    <[V, T2]>                      =     -0.169526590327772
    DSRG-MRPT2 correlation energy  =     -0.169178458554074
    DSRG-MRPT2 total energy        =   -106.922213466603594
    max(T1)                        =      0.006756104885233
    max(T2)                        =      0.083628283622820
    ||T1||                         =      0.011144447788556
    ||T2||                         =      0.658756726198503

  Energy took      0.995 s


  ==> De-Normal-Order DSRG Transformed Hamiltonian <==

    Computing the scalar term                ... Done. Timing    0.002 s
    Computing the 1-body term                ... Done. Timing    0.001 s

  ==> Rotate DSRG Transformed Hamiltonian back to Original Basis <==

    Rotating 1-body term to original basis   ... Done. Timing    0.001 s
    Rotating 2-body term to original basis   ... Done. Timing    0.020 s

  ==> Diagonalize DWMS(sH)-DSRG Active Hamiltonian <==


  Project out previous DWMS-DSRG-PT2 roots.

  Forming alpha and beta strings      ...  Done. Timing        0.000036 s
  Forming determinants                ...  Done. Timing        0.000010 s

  ==> Determinants Summary <==

    number of alpha active electrons         =     1
    number of beta active electrons          =     1
    root symmetry (zero based)               =     0
    number of determinants                   =     4

  Diagonalizing Hamiltonian           ...
  Found 3 roots with 2S+1 = 1 *
  Found 1 roots with 2S+1 = 3  Done. Timing        0.000440 s

  * * * * * * * * * * * * * * * * *
  *  CI Vectors & Configurations  *
  * * * * * * * * * * * * * * * * *

  ==> Root No. 0 <==

    ba          0.6784749811
    ab          0.6784749811
    20         -0.2812850904

    Total Energy:   -106.914634997818695



  ==> Permanent Dipole Moments (A1) <==

  Only print nonzero (> 1.0e-5) elements.
  Permanent dipole moments (a.u.) 0 -> 0:  X:  0.0000  Y:  0.0000  Z: -0.8415  Total:  0.8415


  ==> Overlap of Singlet A1 <==

  ## S (Symmetry 0) ##
  Irrep: 1 Size: 2 x 2

                 1                   2

    1     1.00000000000000     0.00000000000000
    2     0.00000000000000     1.00000000000000





  ==> Total Timings (s) for Computing Commutators <==

             [H1, T1]    [H1, T2]    [H2, T1]    [H2, T2]
    -----------------------------------------------------
    -> C0       0.002       0.005       0.004       0.087
    -> C1       0.001       0.011       0.009       0.163
    -> C2                   0.009       0.008       0.060
    -----------------------------------------------------


  ==> Dynamically Weighted Driven Similarity Renormalization Group Energy Summary <==

    Multi.  Irrep.  No.                   CASCI
    -------------------------------------------
       1      A1     0      -106.77234453121204
       1      A1     1      -106.73342558994831
    -------------------------------------------

    Multi.  Irrep.  No.             SA-DSRG-PT2
    -------------------------------------------
       1      A1     0      -106.92995881089684
       1      A1     1      -106.91462959920791
    -------------------------------------------

    Multi.  Irrep.  No.       DWMS(sH)-DSRG-PT2
    -------------------------------------------
       1      A1     0      -106.92994534239844
       1      A1     1      -106.91463499781869
    -------------------------------------------
	PT2/DWMS(sH1)-DSRG-PT2 energy on root 0...........................PASSED
	PT2/DWMS(sH1)-DSRG-PT2 energy on root 1...........................PASSED

*** Psi4 exiting successfully. Buy a developer a beer!
