
    -----------------------------------------------------------------------
          Psi4: An Open-Source Ab Initio Electronic Structure Package
                               Psi4 undefined 

                         Git: Rev {master} 3c26e8e 


    R. M. Parrish, L. A. Burns, D. G. A. Smith, A. C. Simmonett,
    A. E. DePrince III, E. G. Hohenstein, U. Bozkaya, A. Yu. Sokolov,
    R. Di Remigio, R. M. Richard, J. F. Gonthier, A. M. James,
    H. R. McAlexander, A. Kumar, M. Saitow, X. Wang, B. P. Pritchard,
    P. Verma, H. F. Schaefer III, K. Patkowski, R. A. King, E. F. Valeev,
    F. A. Evangelista, J. M. Turney, T. D. Crawford, and C. D. Sherrill,
    J. Chem. Theory Comput. 13(7) pp 3185--3197 (2017).
    (doi: 10.1021/acs.jctc.7b00174)


                         Additional Contributions by
    P. Kraus, H. Kruse, M. H. Lechner, M. C. Schieber, and R. A. Shaw

    -----------------------------------------------------------------------


    Psi4 started on: Thursday, 25 October 2018 04:04PM

    Process ID: 92948
    Host:       jeffschriber
    PSIDATADIR: /Users/jeffschriber/src/psi4-debug-install/share/psi4
    Memory:     500.0 MiB
    Threads:    1
    
  ==> Input File <==

--------------------------------------------------------------------------
#! This tests the Adaptive-CI procedure using energy selection
#! Generated using commit GITCOMMIT
#

import forte

refscf = -38.1399142745935720 #TEST
refaci = -38.177267178244 #TEST
refacipt2 = -38.179461430923  #TEST

molecule li2{
0 2
   C
   H 1 2.0000
}

set {
  basis DZ
  e_convergence 10
  d_convergence 10
  r_convergence 10
  guess gwh
  reference rohf
}

set mcscf {
  reference rhf
  docc = [2,0,0,0,0,1,0,0]
}

set forte {
  multiplicity 2
  ms 0.5
  job_type = aci
  frozen_docc = [0,0,0,0,0,0,0,0]
  aci_SELECT_TYPE amp
  gamma 10.00
  sigma 0.001000
  aci_enforce_spin_complete false
  aci_nroot 1
  charge 0
  diag_algorithm  full
}

e_scf, scf_wfn = energy('scf', return_wfn=True)
compare_values(refscf, get_variable("CURRENT ENERGY"),9, "SCF energy") #TEST

energy('forte', ref_wfn = scf_wfn)
compare_values(refaci, get_variable("ACI ENERGY"),9, "ACI energy") #TEST
compare_values(refacipt2, get_variable("ACI+PT2 ENERGY"),8, "ACI+PT2 energy") #TEST
--------------------------------------------------------------------------

*** tstart() called on jeffschriber
*** at Thu Oct 25 16:04:01 2018

   => Loading Basis Set <=

    Name: DZ
    Role: ORBITAL
    Keyword: BASIS
    atoms 1 entry C          line    63 file /Users/jeffschriber/src/psi4-debug-install/share/psi4/basis/dz.gbs 
    atoms 2 entry H          line    12 file /Users/jeffschriber/src/psi4-debug-install/share/psi4/basis/dz.gbs 


         ---------------------------------------------------------
                                   SCF
            by Justin Turney, Rob Parrish, Andy Simmonett
                             and Daniel Smith
                             ROHF Reference
                        1 Threads,    500 MiB Core
         ---------------------------------------------------------

  ==> Geometry <==

    Molecular point group: c2v
    Full point group: C_inf_v

    Geometry (in Angstrom), charge = 0, multiplicity = 2:

       Center              X                  Y                   Z               Mass       
    ------------   -----------------  -----------------  -----------------  -----------------
         C            0.000000000000     0.000000000000    -0.154956732518    12.000000000000
         H            0.000000000000     0.000000000000     1.845043267482     1.007825032070

  Running in c2v symmetry.

  Rotational constants: A = ************  B =      4.53289  C =      4.53289 [cm^-1]
  Rotational constants: A = ************  B = 135892.50599  C = 135892.50599 [MHz]
  Nuclear repulsion =    1.587531632010000

  Charge       = 0
  Multiplicity = 2
  Electrons    = 7
  Nalpha       = 4
  Nbeta        = 3

  ==> Algorithm <==

  SCF Algorithm Type is DF.
  DIIS enabled.
  MOM disabled.
  Fractional occupation disabled.
  Guess Type is GWH.
  Energy threshold   = 1.00e-10
  Density threshold  = 1.00e-10
  Integral threshold = 0.00e+00

  ==> Primary Basis <==

  Basis Set: DZ
    Blend: DZ
    Number of shells: 8
    Number of basis function: 12
    Number of Cartesian functions: 12
    Spherical Harmonics?: false
    Max angular momentum: 1

   => Loading Basis Set <=

    Name: (DZ AUX)
    Role: JKFIT
    Keyword: DF_BASIS_SCF
    atoms 1 entry C          line   203 file /Users/jeffschriber/src/psi4-debug-install/share/psi4/basis/def2-qzvpp-jkfit.gbs 
    atoms 2 entry H          line    23 file /Users/jeffschriber/src/psi4-debug-install/share/psi4/basis/def2-qzvpp-jkfit.gbs 

  ==> Pre-Iterations <==

   -------------------------------------------------------
    Irrep   Nso     Nmo     Nalpha   Nbeta   Ndocc  Nsocc
   -------------------------------------------------------
     A1         8       8       0       0       0       0
     A2         0       0       0       0       0       0
     B1         2       2       0       0       0       0
     B2         2       2       0       0       0       0
   -------------------------------------------------------
    Total      12      12       4       3       3       1
   -------------------------------------------------------

  ==> Integral Setup <==

  ==> DiskDFJK: Density-Fitted J/K Matrices <==

    J tasked:                  Yes
    K tasked:                  Yes
    wK tasked:                  No
    OpenMP threads:              1
    Integrals threads:           1
    Memory [MiB]:              375
    Algorithm:                Core
    Integral Cache:           NONE
    Schwarz Cutoff:          1E-12
    Fitting Condition:       1E-12

   => Auxiliary Basis Set <=

  Basis Set: (DZ AUX)
    Blend: DEF2-QZVPP-JKFIT
    Number of shells: 31
    Number of basis function: 109
    Number of Cartesian functions: 109
    Spherical Harmonics?: false
    Max angular momentum: 4

  Minimum eigenvalue in the overlap matrix is 1.2124846745E-01.
  Using Symmetric Orthogonalization.

  SCF Guess: Generalized Wolfsberg-Helmholtz.

  ==> Iterations <==

                           Total Energy        Delta E     RMS |[F,P]|

    Occupation by irrep:
             A1    A2    B1    B2 
    DOCC [     3,    0,    0,    0 ]
    SOCC [     1,    0,    0,    0 ]

   @DF-ROHF iter   1:   -37.64441821447397   -3.76444e+01   1.22747e-01 
    Occupation by irrep:
             A1    A2    B1    B2 
    DOCC [     3,    0,    0,    0 ]
    SOCC [     0,    0,    1,    0 ]

   @DF-ROHF iter   2:   -37.81044125794307   -1.66023e-01   4.49211e-02 DIIS
   @DF-ROHF iter   3:   -37.95588058119999   -1.45439e-01   2.89945e-02 DIIS
   @DF-ROHF iter   4:   -38.12139644749762   -1.65516e-01   8.08298e-03 DIIS
   @DF-ROHF iter   5:   -38.13535878060330   -1.39623e-02   4.29890e-03 DIIS
   @DF-ROHF iter   6:   -38.13988372371870   -4.52494e-03   3.90055e-04 DIIS
   @DF-ROHF iter   7:   -38.13991371609860   -2.99924e-05   5.82837e-05 DIIS
   @DF-ROHF iter   8:   -38.13991424434336   -5.28245e-07   1.43126e-05 DIIS
   @DF-ROHF iter   9:   -38.13991427456352   -3.02202e-08   5.01775e-07 DIIS
   @DF-ROHF iter  10:   -38.13991427459323   -2.97078e-11   5.17876e-08 DIIS
   @DF-ROHF iter  11:   -38.13991427459361   -3.76588e-13   6.71563e-09 DIIS
   @DF-ROHF iter  12:   -38.13991427459358    2.84217e-14   3.41402e-10 DIIS
   @DF-ROHF iter  13:   -38.13991427459358    0.00000e+00   5.06672e-11 DIIS
  Energy converged.


  ==> Post-Iterations <==

    Orbital Energies [Eh]
    ---------------------

    Doubly Occupied:                                                      

       1A1   -11.410537     2A1    -0.753765     3A1    -0.366801  

    Singly Occupied:                                                      

       1B1    -0.165985  

    Virtual:                                                              

       1B2     0.022350     4A1     0.063221     2B1     0.456814  
       2B2     0.496363     5A1     0.512993     6A1     0.705763  
       7A1     1.163053     8A1    23.589252  

    Final Occupation by Irrep:
             A1    A2    B1    B2 
    DOCC [     3,    0,    0,    0 ]
    SOCC [     0,    0,    1,    0 ]

  @DF-ROHF Final Energy:   -38.13991427459358

   => Energetics <=

    Nuclear Repulsion Energy =              1.5875316320100001
    One-Electron Energy =                 -53.9291163776264071
    Two-Electron Energy =                  14.2016704710228296
    Total Energy =                        -38.1399142745935791

Computation Completed


Properties will be evaluated at   0.000000,   0.000000,   0.000000 [a0]

Properties computed using the SCF density matrix

  Nuclear Dipole Moment: [e a0]
     X:     0.0000      Y:     0.0000      Z:     1.7297

  Electronic Dipole Moment: [e a0]
     X:     0.0000      Y:     0.0000      Z:    -1.8321

  Dipole Moment: [e a0]
     X:     0.0000      Y:     0.0000      Z:    -0.1025     Total:     0.1025

  Dipole Moment: [D]
     X:     0.0000      Y:     0.0000      Z:    -0.2604     Total:     0.2604


*** tstop() called on jeffschriber at Thu Oct 25 16:04:01 2018
Module time:
	user time   =       0.29 seconds =       0.00 minutes
	system time =       0.02 seconds =       0.00 minutes
	total time  =          0 seconds =       0.00 minutes
Total time:
	user time   =       0.29 seconds =       0.00 minutes
	system time =       0.02 seconds =       0.00 minutes
	total time  =          0 seconds =       0.00 minutes
	SCF energy........................................................PASSED
   => Loading Basis Set <=

    Name: STO-3G
    Role: ORBITAL
    Keyword: MINAO_BASIS
    atoms 1 entry C          line    61 file /Users/jeffschriber/src/psi4-debug-install/share/psi4/basis/sto-3g.gbs 
    atoms 2 entry H          line    19 file /Users/jeffschriber/src/psi4-debug-install/share/psi4/basis/sto-3g.gbs 


Reading options from the FORTE block
Calling plugin forte.so.



  Forte
  ----------------------------------------------------------------------------
  A suite of quantum chemistry methods for strongly correlated electrons

    git branch: master - git commit: 9480afcf

  Developed by:
    Francesco A. Evangelista, Chenyang Li, Kevin P. Hannon,
    Jeffrey B. Schriber, Tianyuan Zhang, Chenxi Cai
  ----------------------------------------------------------------------------

  Size of Determinant class: 16

  ==> MO Space Information <==

  -------------------------------------------------
                       A1    A2    B1    B2   Sum
  -------------------------------------------------
    FROZEN_DOCC         0     0     0     0     0
    RESTRICTED_DOCC     0     0     0     0     0
    ACTIVE              8     0     2     2    12
    RESTRICTED_UOCC     0     0     0     0     0
    FROZEN_UOCC         0     0     0     0     0
    Total               8     0     2     2    12
  -------------------------------------------------

  ==> Integral Transformation <==

  Number of molecular orbitals:                    12
  Number of correlated molecular orbitals:         12
  Number of frozen occupied orbitals:               0
  Number of frozen unoccupied orbitals:             0
  Two-electron integral type:              Conventional


  Overall Conventional Integrals timings

	Presorting SO-basis two-electron integrals.
	Sorting File: SO Ints (nn|nn) nbuckets = 1
	Transforming the one-electron integrals and constructing Fock matrices
	Starting first half-transformation.
	Sorting half-transformed integrals.
	First half integral transformation complete.
	Starting second half-transformation.
	Two-electron integral transformation complete.

  Integral transformation done. 0.00924489 s
  Reading the two-electron integrals from disk
  Size of two-electron integrals:   0.000463 GB
  Timing for freezing core and virtual orbitals:              0.000 s.
  Conventional integrals take 0.04405047 s
  Number of active alpha electrons: 4
  Number of active beta electrons: 3
  Maximum reference space size: 1000
  Number of reference determinants: 1000
  Reference generated from 8 MOs

        ---------------------------------------------------------------
                      Adaptive Configuration Interaction
          written by Jeffrey B. Schriber and Francesco A. Evangelista
        ---------------------------------------------------------------

  ==> Reference Information <==

  There are 0 frozen orbitals.
  There are 12 active orbitals.

  ==> Calculation Information <==

  -----------------------------------------------------------------
    Multiplicity                             2    
    Symmetry                                 0    
    Number of roots                          1    
    Root used for properties                 0    
    Sigma (Eh)                               1.00e-03
    Gamma (Eh^(-1))                          1.00e+01
    Convergence threshold                    1.00e-09
    Ms                                       1/2
    Diagonalization algorithm                FULL
    Determinant selection criterion          First-order Coefficients
    Selection criterion                      Threshold
    Excited Algorithm                        ROOT_ORTHOGONALIZE
    Project out spin contaminants            True
    Enforce spin completeness of basis       False
    Enforce complete aimed selection         True
  -----------------------------------------------------------------
  Using 1 threads
  Computing wavefunction for root 0

  ==> Cycle 0 <==

  Initial P space dimension: 1000
  Not checking for spin-completeness.

  ==> Computing Coupling Lists <==
  --------------------------------
        α          0.004059 s
        β          0.003158 s
        αα         0.004492 s
        ββ         0.002384 s
        αβ         0.008468 s
  --------------------------------
  Time spent diagonalizing H:   1.621299 s

    P-space  CI Energy Root   0        = -38.140854316815 Eh =   0.0000 eV

  Using 1 threads.
  Dimension of the SD space: 14192 determinants
  Time spent building the external space: 0.288563 s

  Dimension of the P + Q space: 1234 determinants
  Time spent screening the model space: 0.006494 s
  Time spent building the model space: 0.298004

  ==> Computing Coupling Lists <==
  --------------------------------
        α          0.005117 s
        β          0.003914 s
        αα         0.005336 s
        ββ         0.003165 s
        αβ         0.010833 s
  --------------------------------
  Total time spent diagonalizing H:   3.327267 s

    PQ-space CI Energy Root   0        = -38.177318196085 Eh =   0.0000 eV
    PQ-space CI Energy + EPT2 Root   0 = -38.179137439158 Eh =   0.0000 eV


  Most important contributions to root   0:
    0  -0.620886 0.385499259         999 |22+000002000>
    1   0.606766 0.368165576         985 |22+000000020>
    2  -0.288813 0.083412755         915 |220+00002000>
    3   0.271793 0.073871254         873 |220+00000020>
    4   0.114647 0.013144018         945 |22+0000000-+>
    5   0.113123 0.012796748         984 |22+0000000+->
    6   0.068938 0.004752384         872 |220+000000+->
    7   0.068312 0.004666508         817 |220+000000-+>
    8   0.063647 0.004050878         998 |22+00000+-00>
    9   0.062108 0.003857350         959 |22+00000-+00>

  Spin state for root 0: S^2 = 0.500024, S = 0.750, doublet
  Cycle 0 took: 5.307599 s

  ==> Cycle 1 <==

  Initial P space dimension: 77
  Not checking for spin-completeness.

  ==> Computing Coupling Lists <==
  --------------------------------
        α          0.000369 s
        β          0.000304 s
        αα         0.000468 s
        ββ         0.000279 s
        αβ         0.001019 s
  --------------------------------
  Time spent diagonalizing H:   0.003022 s

    P-space  CI Energy Root   0        = -38.156999823177 Eh =   0.0000 eV

  Using 1 threads.
  Dimension of the SD space: 8650 determinants
  Time spent building the external space: 0.029619 s

  Dimension of the P + Q space: 393 determinants
  Time spent screening the model space: 0.003810 s
  Time spent building the model space: 0.035113

  ==> Computing Coupling Lists <==
  --------------------------------
        α          0.001640 s
        β          0.001533 s
        αα         0.001947 s
        ββ         0.001262 s
        αβ         0.004375 s
  --------------------------------
  Total time spent diagonalizing H:   0.124301 s

    PQ-space CI Energy Root   0        = -38.177267178244 Eh =   0.0000 eV
    PQ-space CI Energy + EPT2 Root   0 = -38.179461430923 Eh =   0.0000 eV


  Most important contributions to root   0:
    0  -0.622325 0.387288447          39 |22+000002000>
    1   0.605210 0.366279421          35 |22+000000020>
    2  -0.289234 0.083656377          25 |220+00002000>
    3   0.270885 0.073378862          21 |220+00000020>
    4   0.114267 0.013056941          28 |22+0000000-+>
    5   0.112856 0.012736450          34 |22+0000000+->
    6   0.068700 0.004719669          20 |220+000000+->
    7   0.068070 0.004633504          15 |220+000000-+>
    8   0.063866 0.004078876          38 |22+00000+-00>
    9   0.062267 0.003877216          31 |22+00000-+00>

  Spin state for root 0: S^2 = 0.500044, S = 0.750, doublet
  Cycle 1 took: 0.179420 s

  ==> Cycle 2 <==

  Initial P space dimension: 77
  Not checking for spin-completeness.

  ==> Computing Coupling Lists <==
  --------------------------------
        α          0.000364 s
        β          0.000304 s
        αα         0.000523 s
        ββ         0.000284 s
        αβ         0.001049 s
  --------------------------------
  Time spent diagonalizing H:   0.002456 s

    P-space  CI Energy Root   0        = -38.156999823177 Eh =   0.0000 eV

  Using 1 threads.
  Dimension of the SD space: 8650 determinants
  Time spent building the external space: 0.029765 s

  Dimension of the P + Q space: 393 determinants
  Time spent screening the model space: 0.003519 s
  Time spent building the model space: 0.035006

  ==> Computing Coupling Lists <==
  --------------------------------
        α          0.001652 s
        β          0.001398 s
        αα         0.001921 s
        ββ         0.001231 s
        αβ         0.004566 s
  --------------------------------
  Total time spent diagonalizing H:   0.118897 s

    PQ-space CI Energy Root   0        = -38.177267178244 Eh =   0.0000 eV
    PQ-space CI Energy + EPT2 Root   0 = -38.179461430923 Eh =   0.0000 eV

  ***** Calculation Converged *****
  Saving root 0, ref_root is 0
  Number of old roots: 1

  ==> ACI Summary <==

  Iterations required:                         2
  Dimension of optimized determinant space:    393

  * Adaptive-CI Energy Root   0        = -38.177267178244 Eh =   0.0000 eV
  * Adaptive-CI Energy Root   0 + EPT2 = -38.179461430923 Eh =   0.0000 eV

  ==> Wavefunction Information <==

  Most important contributions to root   0:
    0  -0.622325 0.387288447          39 |22+000002000>
    1   0.605210 0.366279421          35 |22+000000020>
    2  -0.289234 0.083656377          25 |220+00002000>
    3   0.270885 0.073378862          21 |220+00000020>
    4   0.114267 0.013056941          28 |22+0000000-+>
    5   0.112856 0.012736450          34 |22+0000000+->
    6   0.068700 0.004719669          20 |220+000000+->
    7   0.068070 0.004633504          15 |220+000000-+>
    8   0.063866 0.004078876          38 |22+00000+-00>
    9   0.062267 0.003877216          31 |22+00000-+00>

  Spin state for root 0: S^2 = 0.500044, S = 0.750, doublet

  ==> Computing Coupling Lists <==
  --------------------------------
        α          0.001678 s
        β          0.001409 s
        αα         0.001922 s
        ββ         0.001254 s
        αβ         0.004558 s
  --------------------------------
  1-RDM  took 0.001575 s (determinant)

  ==> NATURAL ORBITALS <==

        1A1     1.999638      2A1     1.966512      1B1     0.997843  
        3A1     0.993421      1B2     0.985986      4A1     0.029097  
        2B2     0.010690      2B1     0.010629      5A1     0.005436  
        6A1     0.000400      7A1     0.000243      8A1     0.000105  


  RDMS took 0.013154

  Adaptive-CI ran in : 5.673451 s

  Saving information for root: 0	ACI energy........................................................PASSED
	ACI+PT2 energy....................................................PASSED

    Psi4 stopped on: Thursday, 25 October 2018 04:04PM
    Psi4 wall time for execution: 0:00:06.21

*** Psi4 exiting successfully. Buy a developer a beer!
