
    -----------------------------------------------------------------------
          Psi4: An Open-Source Ab Initio Electronic Structure Package
                               Psi4 1.1a2.dev142 

                         Git: Rev {master} 116e88b 


    J. M. Turney, A. C. Simmonett, R. M. Parrish, E. G. Hohenstein,
    F. A. Evangelista, J. T. Fermann, B. J. Mintz, L. A. Burns, J. J. Wilke,
    M. L. Abrams, N. J. Russ, M. L. Leininger, C. L. Janssen, E. T. Seidl,
    W. D. Allen, H. F. Schaefer, R. A. King, E. F. Valeev, C. D. Sherrill,
    and T. D. Crawford, WIREs Comput. Mol. Sci. 2, 556-565 (2012)
    (doi: 10.1002/wcms.93)


                         Additional Contributions by
    A. E. DePrince, U. Bozkaya, A. Yu. Sokolov, D. G. A. Smith, R. Di Remigio,
    R. M. Richard, J. F. Gonthier, H. R. McAlexander, M. Saitow, and
    B. P. Pritchard
    -----------------------------------------------------------------------


    Psi4 started on: Monday, 30 January 2017 11:55AM

    Process ID:  38483
    PSIDATADIR: /Users/york/src/psi4new/psi4/share/psi4
    Memory:     500.0 MiB
    Threads:    1
    
  ==> Input File <==

--------------------------------------------------------------------------
#! Generated using commit GITCOMMIT

import forte

refmcscf    = -106.752885060580013
#refpt2sub   = -106.929958783667061
refpt2sub   = -106.929958806835
refpt2full  = -106.929958810967

molecule {
  0 1
  Li
  F  1 R
  R = 10.000

  units bohr
}

basis {
  assign Li cc-pvdz
  assign F  aug-cc-pvdz
}

set globals{
  reference           rhf
  scf_type            out_of_core
  maxiter             300
  e_convergence       10
  d_convergence       10
  docc                [4,0,1,1]
  restricted_docc     [3,0,1,1]
  active              [2,0,0,0]
  mcscf_r_convergence 7
  mcscf_e_convergence 10
  mcscf_maxiter       250
  mcscf_diis_start    6
  num_roots           2
  follow_root         2
  avg_states          [0,1]
}

set forte{
  job_type           dsrg-mrpt2
  frozen_docc        [3,0,0,0]
  restricted_docc    [0,0,1,1]
  active             [2,0,0,0]
  root_sym           0
  nroot              2
  root               0
  dsrg_s             0.5
  maxiter            50
  e_convergence      10
  cas_type           cas
  avg_state          [[0,1,2]]
  dsrg_multi_state   sa_sub
}

Emcscf, wfn = energy('casscf', return_wfn=True)

energy('forte',ref_wfn=wfn)
compare_values(refpt2sub,get_variable("CURRENT ENERGY"),8,"SA-DSRG-MRPT2 SUB energy root 0")

set forte{
  dsrg_multi_state   sa_full
}
energy('forte',ref_wfn=wfn)
compare_values(refpt2full,get_variable("CURRENT ENERGY"),8,"SA-DSRG-MRPT2 FULL energy root 0")
--------------------------------------------------------------------------
/Users/york/src/forte/forte.so loaded.

         ---------------------------------------------------------
                                   SCF
            by Justin Turney, Rob Parrish, and Andy Simmonett
                              RHF Reference
                        1 Threads,    524 MiB Core
         ---------------------------------------------------------

  ==> Geometry <==

    Molecular point group: c2v
    Full point group: C_inf_v

    Geometry (in Bohr), charge = 0, multiplicity = 1:

       Center              X                  Y                   Z               Mass       
    ------------   -----------------  -----------------  -----------------  -----------------
          LI          0.000000000000     0.000000000000    -7.303031224277     7.016004548000
           F          0.000000000000     0.000000000000     2.696968775723    18.998403224000

  Running in c2v symmetry.

  Rotational constants: A = ************  B =      0.11749  C =      0.11749 [cm^-1]
  Rotational constants: A = ************  B =   3522.26409  C =   3522.26409 [MHz]
  Nuclear repulsion =    2.700000000000000

  Charge       = 0
  Multiplicity = 1
  Electrons    = 12
  Nalpha       = 6
  Nbeta        = 6

  ==> Algorithm <==

  SCF Algorithm Type is OUT_OF_CORE.
  DIIS enabled.
  MOM disabled.
  Fractional occupation disabled.
  Guess Type is SAD.
  Energy threshold   = 1.00e-10
  Density threshold  = 1.00e-10
  Integral threshold = 0.00e+00

  ==> Primary Basis <==

  Basis Set: file /Users/york/src/psi4new/psi4/share/psi4/basis/cc-pvdz.gbs + file /Users/york/src/psi4new/psi4/share/psi4/basis/aug-cc-pvdz.gbs
    Number of shells: 15
    Number of basis function: 37
    Number of Cartesian functions: 40
    Spherical Harmonics?: true
    Max angular momentum: 2

  ==> Pre-Iterations <==

   -------------------------------------------------------
    Irrep   Nso     Nmo     Nalpha   Nbeta   Ndocc  Nsocc
   -------------------------------------------------------
     A1        18      18       4       4       4       0
     A2         3       3       0       0       0       0
     B1         8       8       1       1       1       0
     B2         8       8       1       1       1       0
   -------------------------------------------------------
    Total      37      37       6       6       6       0
   -------------------------------------------------------

  ==> Integral Setup <==

  ==> DiskJK: Disk-Based J/K Matrices <==

    J tasked:                  Yes
    K tasked:                  Yes
    wK tasked:                  No
    Memory (MB):               375
    Schwarz Cutoff:          1E-12

  Minimum eigenvalue in the overlap matrix is 8.8020111411E-02.
  Using Symmetric Orthogonalization.

  SCF Guess: Superposition of Atomic Densities via on-the-fly atomic UHF.

  ==> Iterations <==

                        Total Energy        Delta E     RMS |[F,P]|

   @RHF iter   0:  -106.46629982219140   -1.06466e+02   4.32681e-03 
   @RHF iter   1:  -106.67409764913650   -2.07798e-01   2.16236e-02 
   @RHF iter   2:  -105.52704242274700    1.14706e+00   6.05206e-02 DIIS
   @RHF iter   3:  -106.74559059579306   -1.21855e+00   9.34588e-03 DIIS
   @RHF iter   4:  -106.76361235466854   -1.80218e-02   1.98973e-03 DIIS
   @RHF iter   5:  -106.76470687941071   -1.09452e-03   6.54783e-04 DIIS
   @RHF iter   6:  -106.76484240087171   -1.35521e-04   2.01429e-04 DIIS
   @RHF iter   7:  -106.76485561897462   -1.32181e-05   4.24278e-05 DIIS
   @RHF iter   8:  -106.76485633713966   -7.18165e-07   4.20165e-06 DIIS
   @RHF iter   9:  -106.76485635100313   -1.38635e-08   1.56161e-06 DIIS
   @RHF iter  10:  -106.76485635164572   -6.42586e-10   5.38256e-07 DIIS
   @RHF iter  11:  -106.76485635173140   -8.56772e-11   1.27445e-07 DIIS
   @RHF iter  12:  -106.76485635173803   -6.63647e-12   6.54154e-09 DIIS
   @RHF iter  13:  -106.76485635173810   -7.10543e-14   1.19194e-09 DIIS
   @RHF iter  14:  -106.76485635173823   -1.27898e-13   3.49205e-10 DIIS
   @RHF iter  15:  -106.76485635173819    4.26326e-14   8.49746e-11 DIIS

  ==> Post-Iterations <==

    Orbital Energies (a.u.)
    -----------------------

    Doubly Occupied:                                                      

       1A1   -25.949822     2A1    -2.691664     3A1    -1.181713  
       1B1    -0.282869     1B2    -0.282869     4A1    -0.281733  

    Virtual:                                                              

       5A1    -0.102315     2B1    -0.034308     2B2    -0.034308  
       6A1    -0.017926     7A1     0.059038     3B1     0.069758  
       3B2     0.069758     8A1     0.115169     9A1     0.230550  
       1A2     0.230550    10A1     0.235491     4B1     0.236544  
       4B2     0.236544     5B1     0.414969     5B2     0.414969  
      11A1     0.434294    12A1     0.463808    13A1     1.634017  
       6B2     1.634417     6B1     1.634417    14A1     1.636003  
       2A2     1.636003     7B1     1.968778     7B2     1.968778  
      15A1     1.981773    16A1     2.604672    17A1     5.197522  
       8B2     5.197552     8B1     5.197552    18A1     5.198222  
       3A2     5.198222  

    Final Occupation by Irrep:
             A1    A2    B1    B2 
    DOCC [     4,    0,    1,    1 ]

  Energy converged.

  @RHF Final Energy:  -106.76485635173819

   => Energetics <=

    Nuclear Repulsion Energy =              2.7000000000000002
    One-Electron Energy =                -157.5883761461955714
    Two-Electron Energy =                  48.1235197944573940
    DFT Exchange-Correlation Energy =       0.0000000000000000
    Empirical Dispersion Energy =           0.0000000000000000
    PCM Polarization Energy =               0.0000000000000000
    EFP Energy =                            0.0000000000000000
    Total Energy =                       -106.7648563517381888



Properties will be evaluated at   0.000000,   0.000000,   0.000000 Bohr

Properties computed using the SCF density matrix

  Nuclear Dipole Moment: (a.u.)
     X:     0.0000      Y:     0.0000      Z:     2.3636

  Electronic Dipole Moment: (a.u.)
     X:     0.0000      Y:     0.0000      Z:   -12.2800

  Dipole Moment: (a.u.)
     X:     0.0000      Y:     0.0000      Z:    -9.9163     Total:     9.9163

  Dipole Moment: (Debye)
     X:     0.0000      Y:     0.0000      Z:   -25.2048     Total:    25.2048

 MINTS: Wrapper to libmints.
   by Justin Turney

   Calculation information:
      Number of atoms:                   2
      Number of AO shells:              15
      Number of SO shells:              15
      Number of primitives:             47
      Number of atomic orbitals:        40
      Number of basis functions:        37

      Number of irreps:                  4
      Integral cutoff                 1.00e-12
      Number of functions per irrep: [  18    3    8    8 ]

 OEINTS: Overlap, kinetic, potential, dipole, and quadrupole integrals
         stored in file 35.

      Computing two-electron integrals...done
      Computed 54201 non-zero two-electron integrals.
        Stored in file 33.


         ---------------------------------------------------------
                Multi-Configurational Self-Consistent Field
                            (a 'D E T C I' module)

                 Daniel G. A. Smith, C. David Sherrill, and
                              Matt L. Leininger
         ---------------------------------------------------------


   ==> Parameters <==

    EX LEVEL       =        2      H0 BLOCKSIZE  =     1000
    VAL EX LEVEL   =        0      H0 GUESS SIZE =     1000
    H0COUPLINGSIZE =        0      H0 COUPLING   =       NO
    MAXITER        =       12      NUM PRINT     =       20
    NUM ROOTS      =        2      ICORE         =        1
    PRINT LVL      =        1      FCI           =      YES
    R CONV         = 1.00e-07      MIXED         =      YES
    E CONV         = 1.00e-10      MIXED4        =      YES
    R4S            =       NO      REPL OTF      =       NO
    DIAG METHOD    =      SEM      FOLLOW ROOT   =        2
    PRECONDITIONER = DAVIDSON      UPDATE        = DAVIDSON
    S              =   0.0000      Ms0           =      YES
    GUESS VECTOR   =   D FILE      OPENTYPE      =     NONE
    COLLAPSE SIZE  =        1      HD AVG        = EVANGELISTI
    MAX NUM VECS   =       26      REF SYM       =     AUTO
    IOPEN        =       NO

    EX ALLOW       =  1  1 
    STATE AVERAGE  =  0(0.50)  1(0.50) 

   ==> CI Orbital and Space information <==

   ------------------------------------------------------
               Space    Total    A1    A2    B1    B2
   ------------------------------------------------------
                 Nso       37    18     3     8     8
                 Nmo       37    18     3     8     8
               Ndocc        6     4     0     1     1
               Nsocc        0     0     0     0     0
   ------------------------------------------------------
                        MCSCF Spaces
   ------------------------------------------------------
         Frozen DOCC        0     0     0     0     0
     Restricted DOCC        5     3     0     1     1
              Active        2     2     0     0     0
     Restricted UOCC       30    13     3     7     7
         Frozen UOCC        0     0     0     0     0
   ------------------------------------------------------

   ==> Setting up CI strings <==

    There are 2 alpha and 2 beta strings
    The CI space requires 4 (4.00E+00) determinants and 1 blocks


   ==> Setting up MCSCF integrals <==

  ==> DiskJK: Disk-Based J/K Matrices <==

    J tasked:                  Yes
    K tasked:                  Yes
    wK tasked:                  No
    Memory (MB):              3200
    Schwarz Cutoff:          1E-12


   ==> Starting MCSCF iterations <==

        Iter         Total Energy       Delta E   Orb RMS    CI RMS  NCI NORB
(sem_iter): H0block_->H0b_diag[1][1] - H0block_->H0b_diag[2][1] = -0.707107 - 0.707107 = -1.414214 > 1.0E-8
   @MCSCF  1:   -106.719655499369    4.5201e-02  7.73e-02  5.83e-09    1    1  Initial CI
   @MCSCF  2:   -106.743591142927   -2.3936e-02  4.80e-02  1.25e-10    1    1  TS
   @MCSCF  3:   -106.749723699748   -6.1326e-03  2.62e-02  3.37e-10    1    1  TS
   @MCSCF  4:   -106.751831420554   -2.1077e-03  1.47e-02  2.46e-10    1    1  TS
   @MCSCF  5:   -106.752507192543   -6.7577e-04  8.16e-03  2.72e-10    1    1  TS
   @MCSCF  6:   -106.752745121641   -2.3793e-04  4.54e-03  2.60e-10    1    1  TS
   @MCSCF  7:   -106.752830204415   -8.5083e-05  2.53e-03  2.67e-10    1    1  TS, DIIS
   @MCSCF  8:   -106.752862566045   -3.2362e-05  1.41e-03  2.64e-10    1    1  TS, DIIS
   @MCSCF  9:   -106.752858735714    3.8303e-06  2.54e-03  2.69e-10    1    1  TS, DIIS
   @MCSCF 10:   -106.752876985925   -1.8250e-05  1.46e-03  2.65e-10    2    1  TS, DIIS
   @MCSCF 11:   -106.752884570631   -7.5847e-06  3.59e-04  2.67e-10    1    1  TS, DIIS
   @MCSCF 12:   -106.752884997668   -4.2704e-07  1.28e-04  2.67e-10    1    1  TS, DIIS
   @MCSCF 13:   -106.752885060322   -6.2653e-08  2.38e-06  2.67e-10    1    1  TS, DIIS
   @MCSCF 14:   -106.752885060333   -1.1184e-11  1.73e-06  2.67e-10    1    1  TS, DIIS
   @MCSCF 15:   -106.752885060344   -1.1227e-11  3.34e-09  2.67e-10    1    1  TS, DIIS

          @MCSCF has converged!

   @MCSCF Final Energy: -106.752885060344056

   ==> Energetics <==

    SCF energy =         -106.764856351738189
    Total CI energy =    -106.752885060344056


   ==> CI root 0 information <==

    CI Root  0 energy =  -106.772344530614305

   Natural occupation numbers:

        A1   1.177995        A1   0.822005

   The 4 most important determinants:

    *   1    0.696729  (    0,    1)  4A1A  5A1B  
    *   2    0.696729  (    1,    0)  4A1B  5A1A  
    *   3    0.166023  (    0,    0)  4A1X  
    *   4   -0.039655  (    1,    1)  5A1X  


   ==> CI root 1 information <==

    CI Root  1 energy =  -106.733425590073807

   Natural occupation numbers:

        A1   1.999870        A1   0.000130

   The 4 most important determinants:

    *   1   -0.986122  (    0,    0)  4A1X  
    *   2    0.117326  (    0,    1)  4A1A  5A1B  
    *   3    0.117326  (    1,    0)  4A1B  5A1A  
    *   4   -0.005784  (    1,    1)  5A1X  



Properties will be evaluated at   0.000000,   0.000000,   0.000000 Bohr

Properties computed using the CASSCF density matrix

  Nuclear Dipole Moment: (a.u.)
     X:     0.0000      Y:     0.0000      Z:     2.3636

  Electronic Dipole Moment: (a.u.)
     X:     0.0000      Y:     0.0000      Z:    -7.3349

  Dipole Moment: (a.u.)
     X:     0.0000      Y:     0.0000      Z:    -4.9713     Total:     4.9713

  Dipole Moment: (Debye)
     X:     0.0000      Y:     0.0000      Z:   -12.6357     Total:    12.6357


Reading options from the FORTE block
Calling plugin forte.so.




  ==> MO Space Information <==

  Read options for space FROZEN_DOCC
  Read options for space RESTRICTED_DOCC
  Read options for space ACTIVE
 Removing orbital 0
 Removing orbital 1
 Removing orbital 2
  -------------------------------------------------
                       A1    A2    B1    B2   Sum
  -------------------------------------------------
    FROZEN_DOCC         3     0     0     0     3
    RESTRICTED_DOCC     0     0     1     1     2
    ACTIVE              2     0     0     0     2
    RESTRICTED_UOCC    13     3     7     7    30
    FROZEN_UOCC         0     0     0     0     0
    Total              18     3     8     8    37
  -------------------------------------------------

  ==> Integral Transformation <==

  Number of molecular orbitals:               37
  Number of correlated molecular orbitals:    34
  Number of frozen occupied orbitals:          3
  Number of frozen unoccupied orbitals:        0

    Molecular point group: c2v
    Full point group: C_inf_v

    Geometry (in Bohr), charge = 0, multiplicity = 1:

       Center              X                  Y                   Z               Mass       
    ------------   -----------------  -----------------  -----------------  -----------------
          LI          0.000000000000     0.000000000000    -7.303031224277     7.016004548000
           F          0.000000000000     0.000000000000     2.696968775723    18.998403224000

  -AO BASIS SET INFORMATION:
    Name                   = file /Users/york/src/psi4new/psi4/share/psi4/basis/cc-pvdz.gbs + file /Users/york/src/psi4new/psi4/share/psi4/basis/aug-cc-pvdz.gbs
    Total number of shells = 15
    Number of primitives   = 47
    Number of AO           = 40
    Number of SO           = 37
    Maximum AM             = 2
    Spherical Harmonics    = TRUE

  -Contraction Scheme:
    Atom   Type   All Primitives // Shells:
   ------ ------ --------------------------
       1    LI     17s 4p 1d // 3s 2p 1d 
       2     F     18s 5p 2d // 4s 3p 2d 

  ==> AO Basis Functions <==

    [ file /Users/york/src/psi4new/psi4/share/psi4/basis/cc-pvdz.gbs + file /Users/york/src/psi4new/psi4/share/psi4/basis/aug-cc-pvdz.gbs ]
    spherical
    ****
   LI   1
    S   8 1.00
                      1469.00000000           0.00076600
                       220.50000000           0.00589200
                        50.26000000           0.02967100
                        14.24000000           0.10918000
                         4.58100000           0.28278900
                         1.58000000           0.45312300
                         0.56400000           0.27477400
                         0.07345000           0.00975100
    S   8 1.00
                      1469.00000000          -0.00012000
                       220.50000000          -0.00092300
                        50.26000000          -0.00468900
                        14.24000000          -0.01768200
                         4.58100000          -0.04890200
                         1.58000000          -0.09600900
                         0.56400000          -0.13638000
                         0.07345000           0.57510200
    S   1 1.00
                         0.02805000           1.00000000
    P   3 1.00
                         1.53400000           0.02278400
                         0.27490000           0.13910700
                         0.07362000           0.50037500
    P   1 1.00
                         0.02403000           1.00000000
    D   1 1.00
                         0.12390000           1.00000000
    ****
    F   2
    S   8 1.00
                     14710.00000000           0.00072100
                      2207.00000000           0.00555300
                       502.80000000           0.02826700
                       142.60000000           0.10644400
                        46.47000000           0.28681400
                        16.70000000           0.44864100
                         6.35600000           0.26476100
                         1.31600000           0.01533300
    S   8 1.00
                     14710.00000000          -0.00016500
                      2207.00000000          -0.00130800
                       502.80000000          -0.00649500
                       142.60000000          -0.02669100
                        46.47000000          -0.07369000
                        16.70000000          -0.17077600
                         6.35600000          -0.11232700
                         1.31600000           0.56281400
    S   1 1.00
                         0.38970000           1.00000000
    P   3 1.00
                        22.67000000           0.04487800
                         4.97700000           0.23571800
                         1.34700000           0.50852100
    P   1 1.00
                         0.34710000           1.00000000
    D   1 1.00
                         1.64000000           1.00000000
    S   1 1.00
                         0.09863000           1.00000000
    P   1 1.00
                         0.08502000           1.00000000
    D   1 1.00
                         0.46400000           1.00000000
    ****


  Overall Conventional Integrals timings

	Presorting SO-basis two-electron integrals.
	Sorting File: SO Ints (nn|nn) nbuckets = 1
	Transforming the one-electron integrals and constructing Fock matrices
	Starting first half-transformation.
	Sorting half-transformed integrals.
	First half integral transformation complete.
	Starting second half-transformation.
	Two-electron integral transformation complete.

  Integral transformation done. 0.03788800 s
  Reading the two-electron integrals from disk
  Size of two-electron integrals:   0.041891 GB
  Frozen-core energy            -96.836564419391 a.u.

  FrozenOneBody Operator takes  0.08535100 s
  Resorting integrals after freezing core.
  Conventional integrals take 0.40877000 s

              ---------------------------------------------------
                Complete Active Space Configuration Interaction
                                  Chenyang Li
              ---------------------------------------------------


  ==> Input Summary <==

    number of atoms                =     2
    number of electrons            =    12
    molecular charge               =     0
    number of alpha electrons      =     6
    number of beta electrons       =     6
    multiplicity                   =     1
    ms (2 * Sz)                    =     0
    number of molecular orbitals   =    37

  ==> Orbital Spaces <==

    TOTAL MO                      [   18     3     8     8 ]
    FROZEN CORE                   [    3     0     0     0 ]
    FROZEN VIRTUAL                [    0     0     0     0 ]
    CORRELATED MO                 [   15     3     8     8 ]
    CORE                          [    0     0     1     1 ]
    ACTIVE                        [    2     0     0     0 ]
    VIRTUAL                       [   13     3     7     7 ]

  ==> Correlated Subspace Indices <==

    CORE                            18   26 
    ACTIVE                           0    1 
    HOLE                             0    1   18   26 
    VIRTUAL                          2    3    4    5    6    7    8    9   10   11   12   13   14   15   16 
                                    17   19   20   21   22   23   24   25   27   28   29   30   31   32   33 
                                  
    PARTICLE                         0    1    2    3    4    5    6    7    8    9   10   11   12   13   14 
                                    15   16   17   19   20   21   22   23   24   25   27   28   29   30   31 
                                    32   33 


  ==> State Averaging Summary <==

    Irrep.  Multi.  Nstates      Weights
    ------------------------------------
      A1       1        2    0.500 0.500
    ------------------------------------
    Total number of states: 2
    ------------------------------------

  Forming alpha and beta strings      ...  Done. Timing        0.000048 s
  Forming determinants                ...  Done. Timing        0.000016 s

  ==> Determinants Summary <==

    number of alpha active electrons    =     1
    number of beta active electrons     =     1
    root symmetry (zero based)          =     0
    number of determinants              =     4

  Diagonalizing Hamiltonian           ...

  Reference type: RHF
  Threshold for spin check: 0.10

  Spin State: S^2 = 0.000, S = 0.000, singlet (from 4 determinants)

  Ask for S^2 = 0.0000, this S^2 = 2.0000, continue searching...

  Spin State: S^2 = 0.000, S = 0.000, singlet (from 4 determinants)  Done. Timing        0.000136 s

  * * * * * * * * * * * * * * * * *
  *  CI Vectors & Configurations  *
  * * * * * * * * * * * * * * * * *

  ==> Root No. 0 <==

    ba          0.6967294908
    ab          0.6967294908
    20          0.1660225440

    Total Energy:   -106.772344531078019


  ==> Root No. 1 <==

    20         -0.9861215645
    ba          0.1173260421
    ab          0.1173260421

    Total Energy:   -106.733425590082220



  ==> Computing Permanent Dipole Moments (A1) <==

  Permanent dipole moments (a.u.) 0 -> 0:  X:  0.0000  Y:  0.0000  Z: -0.1343  Total:  0.1343
  Permanent dipole moments (a.u.) 1 -> 1:  X:  0.0000  Y:  0.0000  Z: -9.8082  Total:  9.8082


  ==> Computing Transition Dipole Moments (A1 -> A1) <==

  Transition dipole moments (a.u.) 0 -> 1:  X:  0.0000  Y:  0.0000  Z:  1.2681  Total:  1.2681


  ==> Computing Oscillator Strength (A1 -> A1) <==

  Oscillator strength (a.u.) 0 -> 1:  X:  0.0000  Y:  0.0000  Z:  0.0417  Total:  0.0417

  Total Energy (averaged over 2 states): -106.752885060580127

  Forming generalized Fock matrix     ...  Done. Timing        0.000876 s
  Checking Fock matrices (Fa, Fb)     ...
  Nonzero criteria: > 1.00E-10
  Fa_CORE    block is diagonal.
  Fb_CORE    block is diagonal.
  Warning: Fa_ACTIVE  NOT diagonal!
  Nonzero off-diagonal:     2. Largest value:  0.003950546048357
  Warning: Fb_ACTIVE  NOT diagonal!
  Nonzero off-diagonal:     2. Largest value:  0.003950546048357
  Warning: Fa_VIRTUAL NOT diagonal!
  Nonzero off-diagonal:   192. Largest value:  0.028466956439945
  Warning: Fb_VIRTUAL NOT diagonal!
  Nonzero off-diagonal:   192. Largest value:  0.028466956439945
  Done checking Fock matrices.                   Timing        0.000063 s

  Use semi-canonical orbitals.

  Diagonalizing Fock                  ...  Done. Timing        0.000254 s


    Molecular point group: c2v
    Full point group: C_inf_v

    Geometry (in Bohr), charge = 0, multiplicity = 1:

       Center              X                  Y                   Z               Mass       
    ------------   -----------------  -----------------  -----------------  -----------------
          LI          0.000000000000     0.000000000000    -7.303031224277     7.016004548000
           F          0.000000000000     0.000000000000     2.696968775723    18.998403224000

  -AO BASIS SET INFORMATION:
    Name                   = file /Users/york/src/psi4new/psi4/share/psi4/basis/cc-pvdz.gbs + file /Users/york/src/psi4new/psi4/share/psi4/basis/aug-cc-pvdz.gbs
    Total number of shells = 15
    Number of primitives   = 47
    Number of AO           = 40
    Number of SO           = 37
    Maximum AM             = 2
    Spherical Harmonics    = TRUE

  -Contraction Scheme:
    Atom   Type   All Primitives // Shells:
   ------ ------ --------------------------
       1    LI     17s 4p 1d // 3s 2p 1d 
       2     F     18s 5p 2d // 4s 3p 2d 

  ==> AO Basis Functions <==

    [ file /Users/york/src/psi4new/psi4/share/psi4/basis/cc-pvdz.gbs + file /Users/york/src/psi4new/psi4/share/psi4/basis/aug-cc-pvdz.gbs ]
    spherical
    ****
   LI   1
    S   8 1.00
                      1469.00000000           0.00076600
                       220.50000000           0.00589200
                        50.26000000           0.02967100
                        14.24000000           0.10918000
                         4.58100000           0.28278900
                         1.58000000           0.45312300
                         0.56400000           0.27477400
                         0.07345000           0.00975100
    S   8 1.00
                      1469.00000000          -0.00012000
                       220.50000000          -0.00092300
                        50.26000000          -0.00468900
                        14.24000000          -0.01768200
                         4.58100000          -0.04890200
                         1.58000000          -0.09600900
                         0.56400000          -0.13638000
                         0.07345000           0.57510200
    S   1 1.00
                         0.02805000           1.00000000
    P   3 1.00
                         1.53400000           0.02278400
                         0.27490000           0.13910700
                         0.07362000           0.50037500
    P   1 1.00
                         0.02403000           1.00000000
    D   1 1.00
                         0.12390000           1.00000000
    ****
    F   2
    S   8 1.00
                     14710.00000000           0.00072100
                      2207.00000000           0.00555300
                       502.80000000           0.02826700
                       142.60000000           0.10644400
                        46.47000000           0.28681400
                        16.70000000           0.44864100
                         6.35600000           0.26476100
                         1.31600000           0.01533300
    S   8 1.00
                     14710.00000000          -0.00016500
                      2207.00000000          -0.00130800
                       502.80000000          -0.00649500
                       142.60000000          -0.02669100
                        46.47000000          -0.07369000
                        16.70000000          -0.17077600
                         6.35600000          -0.11232700
                         1.31600000           0.56281400
    S   1 1.00
                         0.38970000           1.00000000
    P   3 1.00
                        22.67000000           0.04487800
                         4.97700000           0.23571800
                         1.34700000           0.50852100
    P   1 1.00
                         0.34710000           1.00000000
    D   1 1.00
                         1.64000000           1.00000000
    S   1 1.00
                         0.09863000           1.00000000
    P   1 1.00
                         0.08502000           1.00000000
    D   1 1.00
                         0.46400000           1.00000000
    ****


 Integrals are about to be computed.	Presorting SO-basis two-electron integrals.
	Sorting File: SO Ints (nn|nn) nbuckets = 1
	Transforming the one-electron integrals and constructing Fock matrices
	Starting first half-transformation.
	Sorting half-transformed integrals.
	First half integral transformation complete.
	Starting second half-transformation.
	Two-electron integral transformation complete.

  Integral transformation done. 0.03184300 s
  Reading the two-electron integrals from disk
  Size of two-electron integrals:   0.041891 GB
 Integrals are about to be updated.
  Frozen-core energy            -96.836564419391 a.u.

  FrozenOneBody Operator takes  0.08607600 s
  Resorting integrals after freezing core.
  Frozen Orbitals takes     0.153 s.
  Forming alpha and beta strings      ...  Done. Timing        0.000022 s
  Forming determinants                ...  Done. Timing        0.000011 s

  ==> Determinants Summary <==

    number of alpha active electrons    =     1
    number of beta active electrons     =     1
    root symmetry (zero based)          =     0
    number of determinants              =     4

  Diagonalizing Hamiltonian           ...

  Reference type: RHF
  Threshold for spin check: 0.10

  Spin State: S^2 = 0.000, S = 0.000, singlet (from 4 determinants)

  Ask for S^2 = 0.0000, this S^2 = 2.0000, continue searching...

  Spin State: S^2 = 0.000, S = 0.000, singlet (from 4 determinants)  Done. Timing        0.000084 s

  * * * * * * * * * * * * * * * * *
  *  CI Vectors & Configurations  *
  * * * * * * * * * * * * * * * * *

  ==> Root No. 0 <==

    ba         -0.6998431877
    ab         -0.6998431877
    20         -0.1420971285

    Total Energy:   -106.772344531078005


  ==> Root No. 1 <==

    20          0.9898526986
    ab         -0.1004674550
    ba         -0.1004674550

    Total Energy:   -106.733425590082177



  ==> Computing Permanent Dipole Moments (A1) <==

  Permanent dipole moments (a.u.) 0 -> 0:  X:  0.0000  Y:  0.0000  Z: -0.1343  Total:  0.1343
  Permanent dipole moments (a.u.) 1 -> 1:  X:  0.0000  Y:  0.0000  Z: -9.8082  Total:  9.8082


  ==> Computing Transition Dipole Moments (A1 -> A1) <==

  Transition dipole moments (a.u.) 0 -> 1:  X:  0.0000  Y:  0.0000  Z:  1.2681  Total:  1.2681


  ==> Computing Oscillator Strength (A1 -> A1) <==

  Oscillator strength (a.u.) 0 -> 1:  X:  0.0000  Y:  0.0000  Z:  0.0417  Total:  0.0417

  Total Energy (averaged over 2 states): -106.752885060580098

  Forming generalized Fock matrix     ...  Done. Timing        0.000750 s
  Checking Fock matrices (Fa, Fb)     ...
  Nonzero criteria: > 1.00E-10
  Fa_CORE    block is diagonal.
  Fb_CORE    block is diagonal.
  Fa_ACTIVE  block is diagonal.
  Fb_ACTIVE  block is diagonal.
  Fa_VIRTUAL block is diagonal.
  Fb_VIRTUAL block is diagonal.
  Done checking Fock matrices.                   Timing        0.000041 s


              ----------------------------------------------------
                 Driven Similarity Renormalization Group MBPT2
                Chenyang Li, Kevin Hannon, Francesco Evangelista
              ----------------------------------------------------

    Reference:
      J. Chem. Theory Comput. 2015, 11, 2097-2108.

  ==> Calculation Information <==

    ntamp                                                 15
    flow parameter                                 5.000e-01
    taylor expansion threshold                     1.000e-03
    intruder_tamp                                  1.000e-01
    int_type                                    CONVENTIONAL
    source operator                                 STANDARD
    reference relaxation                                ONCE
    state_type                                   MULTI-STATE
    multi-state type                                  SA_SUB

  ==> Checking Orbitals <==

    Checking if orbitals are semi-canonicalized ...     OK.
    Orbitals are semi-canonicalized.

  ==> Computing DSRG-MRPT2 ... <==

    Computing T2 amplitudes                  ...  Done. Timing        0.011531 s
    Computing T1 amplitudes                  ...  Done. Timing        0.004146 s
    Renormalizing two-electron integrals     ...  Done. Timing        0.014159 s
    Renormalizing Fock matrix elements       ...  Done. Timing        0.003490 s
    Computing <[F, T1]>                      ...  Done. Timing        0.001551 s
    Computing <[F, T2]>                      ...  Done. Timing        0.003120 s
    Computing <[V, T1]>                      ...  Done. Timing        0.003608 s
    Computing <[V, T2]> (C_2)^4              ...  Done. Timing        0.021514 s
    Computing <[V, T2]> C_4 (C_2)^2 HH       ...  Done. Timing        0.004718 s
    Computing <[V, T2]> C_4 (C_2)^2 PP       ...  Done. Timing        0.005673 s
    Computing <[V, T2]> C_4 (C_2)^2 PH       ...  Done. Timing        0.021246 s
    Computing <[V, T2]> C_6 C_2              ...  Done. Timing        0.009749 s

  ==> Excitation Amplitudes Summary <==

    Active Indices:    0    1 
    Largest T1 amplitudes for spin case A:
       i       a                  i       a                  i       a               
    --------------------------------------------------------------------------------
    [  0      11    ] 0.006954 [  0       7    ] 0.002372 [  0       8    ] 0.002279 
    [  0       5    ]-0.001478 [  1       4    ] 0.001042 [  1      11    ] 0.000939 
    [  1       5    ] 0.000753 [  1       3    ]-0.000655 [  1       2    ]-0.000621 
    [  0       9    ]-0.000374 [  1       7    ] 0.000355 [  1       8    ]-0.000335 
    [  0       4    ] 0.000217 [  0       2    ] 0.000209 [  0       3    ]-0.000178 
    --------------------------------------------------------------------------------
    Norm of T1A vector: (nonzero elements: 34)                    0.008077630291610.
    --------------------------------------------------------------------------------
    Largest T1 amplitudes for spin case B:
       _       _                  _       _                  _       _               
       i       a                  i       a                  i       a               
    --------------------------------------------------------------------------------
    [  0      11    ] 0.006954 [  0       7    ] 0.002372 [  0       8    ] 0.002279 
    [  0       5    ]-0.001478 [  1       4    ] 0.001042 [  1      11    ] 0.000939 
    [  1       5    ] 0.000753 [  1       3    ]-0.000655 [  1       2    ]-0.000621 
    [  0       9    ]-0.000374 [  1       7    ] 0.000355 [  1       8    ]-0.000335 
    [  0       4    ] 0.000217 [  0       2    ] 0.000209 [  0       3    ]-0.000178 
    --------------------------------------------------------------------------------
    Norm of T1B vector: (nonzero elements: 34)                    0.008077630291610.
    --------------------------------------------------------------------------------
    Largest T2 amplitudes for spin case AA:
       i   j   a   b              i   j   a   b              i   j   a   b           
    --------------------------------------------------------------------------------
    [  0  26   0  32] 0.069328 [  0  18   0  24] 0.069328 [  0  18   0  22]-0.035634 
    [  0  26   0  30]-0.035634 [  0  26  11  32]-0.024203 [  0  18  11  24]-0.024203 
    [ 18  26  24  32]-0.023606 [ 18  26  10  16]-0.015446 [  0  18  11  22] 0.014561 
    [  0  26  11  30] 0.014561 [  0  26   9  31] 0.014216 [  0  18   9  23] 0.014216 
    [ 18  26  22  32] 0.014096 [ 18  26  24  30] 0.014096 [  0  26   8  32]-0.010861 
    --------------------------------------------------------------------------------
    Norm of T2AA vector: (nonzero elements: 2700)                 0.267224026403761.
    --------------------------------------------------------------------------------
    Largest T2 amplitudes for spin case AB:
           _       _                  _       _                  _       _           
       i   j   a   b              i   j   a   b              i   j   a   b           
    --------------------------------------------------------------------------------
    [  0   0   0  11] 0.083614 [  0  26   0  32] 0.073352 [  0  18   0  24] 0.073352 
    [  0  18   0  22]-0.038411 [  0  26   0  30]-0.038411 [  0   0  11  11]-0.037674 
    [ 26  26  32  32]-0.035644 [ 18  18  24  24]-0.035644 [  0   0   0   8] 0.029339 
    [  0  26  11  32]-0.028341 [  0  18  11  24]-0.028341 [ 18  26  24  32]-0.027619 
    [  0   0   0   7] 0.026490 [  0   0   9   9]-0.019678 [ 18  18  22  24] 0.019072 
    --------------------------------------------------------------------------------
    Norm of T2AB vector: (nonzero elements: 4080)                 0.269706435872955.
    --------------------------------------------------------------------------------
    Largest T2 amplitudes for spin case BB:
       _   _   _   _              _   _   _   _              _   _   _   _           
       i   j   a   b              i   j   a   b              i   j   a   b           
    --------------------------------------------------------------------------------
    [  0  26   0  32] 0.069328 [  0  18   0  24] 0.069328 [  0  18   0  22]-0.035634 
    [  0  26   0  30]-0.035634 [  0  26  11  32]-0.024203 [  0  18  11  24]-0.024203 
    [ 18  26  24  32]-0.023606 [ 18  26  10  16]-0.015446 [  0  18  11  22] 0.014561 
    [  0  26  11  30] 0.014561 [  0  26   9  31] 0.014216 [  0  18   9  23] 0.014216 
    [ 18  26  22  32] 0.014096 [ 18  26  24  30] 0.014096 [  0  26   8  32]-0.010861 
    --------------------------------------------------------------------------------
    Norm of T2BB vector: (nonzero elements: 2700)                 0.267224026403761.
    --------------------------------------------------------------------------------

  ==> Possible Intruders <==

    T1 amplitudes larger than 0.1000 for spin case A: NULL
    T1 amplitudes larger than 0.1000 for spin case B: NULL
    T2 amplitudes larger than 0.1000 for spin case AA: NULL
    T2 amplitudes larger than 0.1000 for spin case AB: NULL
    T2 amplitudes larger than 0.1000 for spin case BB: NULL

  ==> DSRG-MRPT2 Energy Summary <==

    E0 (reference)                 =   -106.752885060580098
    <[F, T1]>                      =     -0.000336533003035
    <[F, T2]>                      =      0.000336834897642
    <[V, T1]>                      =      0.000336646105016
    <[V, T2]> (C_2)^4              =     -0.179945371823900
    <[V, T2]> C_4 (C_2)^2 HH       =      0.000069406823525
    <[V, T2]> C_4 (C_2)^2 PP       =      0.002544130253146
    <[V, T2]> C_4 (C_2)^2 PH       =      0.007607453174780
    <[V, T2]> C_6 C_2              =     -0.000021683991245
    <[V, T2]>                      =     -0.169746065563693
    DSRG-MRPT2 correlation energy  =     -0.169409117564069
    DSRG-MRPT2 total energy        =   -106.922294178144170
    max(T1)                        =      0.006954240950074
    max(T2)                        =      0.083613966725816
    ||T1||                         =      0.011423494310231
    ||T2||                         =      0.658622507040297


  ==> De-Normal-Order the DSRG Transformed Hamiltonian <==

    Computing the scalar term   ...      Done. Timing      0.002 s
    Computing the one-body term ...      Done. Timing      0.001 s
    Updating integrals          ...      Done. Timing      0.000 s

  ==> Scalar of the DSRG Hamiltonian (WRT True Vacuum) <==

    Scalar0                        =    -12.785729758753234
    Scalar1                        =      0.535011128764184
    Scalar2                        =      0.548345608056923
    Total Scalar W/O Frozen-Core   =    -11.702373021932127
    Total Scalar W/  Frozen-Core   =   -108.538937441323071

  ==> Test De-Normal-Ordered Hamiltonian <==

    One-Body Energy (after)        =     -1.002065171356908
    Two-Body Energy (after)        =     -0.081291565464199
    Total Energy (after)           =   -106.922294178144170
    Total Energy (before)          =   -106.922294178144170
  Frozen Orbitals takes     0.000 s.

  ==> Diagonalize Effective Hamiltonian (Singlet A1) <==

    Use the sub-space of CASCI.

  ==> Effective Hamiltonian Summary <==

  ## Heff Singlet A1 (Symmetry 0) ##
  Irrep: 1 Size: 2 x 2

                 1                   2

    1  -106.91726609075457     0.00578488287485
    2     0.00578488287485  -106.92732226554392



  ## U of Heff with eigenvalues ##
 Irrep: 1

           1           2

    1  -0.4147217  -0.9099483
    2   0.9099483  -0.4147217

     -106.9299588-106.9146295



  ==> Multi-State DSRG-MRPT2 Energy Summary <==

    Multi.  Irrep.  No.    DSRG-MRPT2 Energy
    -----------------------------------------
       1      A1     0      -106.929958806824
       1      A1     1      -106.914629549474
    -----------------------------------------

  ==> Total Timings (s) for Computing Commutators <==

             [H1, T1]    [H1, T2]    [H2, T1]    [H2, T2]
    -----------------------------------------------------
    -> C0       0.002       0.003       0.004       0.063
    -> C1       0.001       0.008       0.006       0.142
    -> C2                   0.008       0.007       0.085
    -----------------------------------------------------


  Your calculation took 1.21703700 seconds
	SA-DSRG-MRPT2 SUB energy root 0...................................PASSED

Reading options from the FORTE block
Calling plugin forte.so.




  ==> MO Space Information <==

  Read options for space FROZEN_DOCC
  Read options for space RESTRICTED_DOCC
  Read options for space ACTIVE
 Removing orbital 0
 Removing orbital 1
 Removing orbital 2
  -------------------------------------------------
                       A1    A2    B1    B2   Sum
  -------------------------------------------------
    FROZEN_DOCC         3     0     0     0     3
    RESTRICTED_DOCC     0     0     1     1     2
    ACTIVE              2     0     0     0     2
    RESTRICTED_UOCC    13     3     7     7    30
    FROZEN_UOCC         0     0     0     0     0
    Total              18     3     8     8    37
  -------------------------------------------------

  ==> Integral Transformation <==

  Number of molecular orbitals:               37
  Number of correlated molecular orbitals:    34
  Number of frozen occupied orbitals:          3
  Number of frozen unoccupied orbitals:        0

    Molecular point group: c2v
    Full point group: C_inf_v

    Geometry (in Bohr), charge = 0, multiplicity = 1:

       Center              X                  Y                   Z               Mass       
    ------------   -----------------  -----------------  -----------------  -----------------
          LI          0.000000000000     0.000000000000    -7.303031224277     7.016004548000
           F          0.000000000000     0.000000000000     2.696968775723    18.998403224000

  -AO BASIS SET INFORMATION:
    Name                   = file /Users/york/src/psi4new/psi4/share/psi4/basis/cc-pvdz.gbs + file /Users/york/src/psi4new/psi4/share/psi4/basis/aug-cc-pvdz.gbs
    Total number of shells = 15
    Number of primitives   = 47
    Number of AO           = 40
    Number of SO           = 37
    Maximum AM             = 2
    Spherical Harmonics    = TRUE

  -Contraction Scheme:
    Atom   Type   All Primitives // Shells:
   ------ ------ --------------------------
       1    LI     17s 4p 1d // 3s 2p 1d 
       2     F     18s 5p 2d // 4s 3p 2d 

  ==> AO Basis Functions <==

    [ file /Users/york/src/psi4new/psi4/share/psi4/basis/cc-pvdz.gbs + file /Users/york/src/psi4new/psi4/share/psi4/basis/aug-cc-pvdz.gbs ]
    spherical
    ****
   LI   1
    S   8 1.00
                      1469.00000000           0.00076600
                       220.50000000           0.00589200
                        50.26000000           0.02967100
                        14.24000000           0.10918000
                         4.58100000           0.28278900
                         1.58000000           0.45312300
                         0.56400000           0.27477400
                         0.07345000           0.00975100
    S   8 1.00
                      1469.00000000          -0.00012000
                       220.50000000          -0.00092300
                        50.26000000          -0.00468900
                        14.24000000          -0.01768200
                         4.58100000          -0.04890200
                         1.58000000          -0.09600900
                         0.56400000          -0.13638000
                         0.07345000           0.57510200
    S   1 1.00
                         0.02805000           1.00000000
    P   3 1.00
                         1.53400000           0.02278400
                         0.27490000           0.13910700
                         0.07362000           0.50037500
    P   1 1.00
                         0.02403000           1.00000000
    D   1 1.00
                         0.12390000           1.00000000
    ****
    F   2
    S   8 1.00
                     14710.00000000           0.00072100
                      2207.00000000           0.00555300
                       502.80000000           0.02826700
                       142.60000000           0.10644400
                        46.47000000           0.28681400
                        16.70000000           0.44864100
                         6.35600000           0.26476100
                         1.31600000           0.01533300
    S   8 1.00
                     14710.00000000          -0.00016500
                      2207.00000000          -0.00130800
                       502.80000000          -0.00649500
                       142.60000000          -0.02669100
                        46.47000000          -0.07369000
                        16.70000000          -0.17077600
                         6.35600000          -0.11232700
                         1.31600000           0.56281400
    S   1 1.00
                         0.38970000           1.00000000
    P   3 1.00
                        22.67000000           0.04487800
                         4.97700000           0.23571800
                         1.34700000           0.50852100
    P   1 1.00
                         0.34710000           1.00000000
    D   1 1.00
                         1.64000000           1.00000000
    S   1 1.00
                         0.09863000           1.00000000
    P   1 1.00
                         0.08502000           1.00000000
    D   1 1.00
                         0.46400000           1.00000000
    ****


  Overall Conventional Integrals timings

	Presorting SO-basis two-electron integrals.
	Sorting File: SO Ints (nn|nn) nbuckets = 1
	Transforming the one-electron integrals and constructing Fock matrices
	Starting first half-transformation.
	Sorting half-transformed integrals.
	First half integral transformation complete.
	Starting second half-transformation.
	Two-electron integral transformation complete.

  Integral transformation done. 0.03508100 s
  Reading the two-electron integrals from disk
  Size of two-electron integrals:   0.041891 GB
  Frozen-core energy            -96.836564419391 a.u.

  FrozenOneBody Operator takes  0.11509300 s
  Resorting integrals after freezing core.
  Conventional integrals take 0.40239100 s

              ---------------------------------------------------
                Complete Active Space Configuration Interaction
                                  Chenyang Li
              ---------------------------------------------------


  ==> Input Summary <==

    number of atoms                =     2
    number of electrons            =    12
    molecular charge               =     0
    number of alpha electrons      =     6
    number of beta electrons       =     6
    multiplicity                   =     1
    ms (2 * Sz)                    =     0
    number of molecular orbitals   =    37

  ==> Orbital Spaces <==

    TOTAL MO                      [   18     3     8     8 ]
    FROZEN CORE                   [    3     0     0     0 ]
    FROZEN VIRTUAL                [    0     0     0     0 ]
    CORRELATED MO                 [   15     3     8     8 ]
    CORE                          [    0     0     1     1 ]
    ACTIVE                        [    2     0     0     0 ]
    VIRTUAL                       [   13     3     7     7 ]

  ==> Correlated Subspace Indices <==

    CORE                            18   26 
    ACTIVE                           0    1 
    HOLE                             0    1   18   26 
    VIRTUAL                          2    3    4    5    6    7    8    9   10   11   12   13   14   15   16 
                                    17   19   20   21   22   23   24   25   27   28   29   30   31   32   33 
                                  
    PARTICLE                         0    1    2    3    4    5    6    7    8    9   10   11   12   13   14 
                                    15   16   17   19   20   21   22   23   24   25   27   28   29   30   31 
                                    32   33 


  ==> State Averaging Summary <==

    Irrep.  Multi.  Nstates      Weights
    ------------------------------------
      A1       1        2    0.500 0.500
    ------------------------------------
    Total number of states: 2
    ------------------------------------

  Forming alpha and beta strings      ...  Done. Timing        0.000036 s
  Forming determinants                ...  Done. Timing        0.000009 s

  ==> Determinants Summary <==

    number of alpha active electrons    =     1
    number of beta active electrons     =     1
    root symmetry (zero based)          =     0
    number of determinants              =     4

  Diagonalizing Hamiltonian           ...

  Reference type: RHF
  Threshold for spin check: 0.10

  Spin State: S^2 = 0.000, S = 0.000, singlet (from 4 determinants)

  Ask for S^2 = 0.0000, this S^2 = 2.0000, continue searching...

  Spin State: S^2 = 0.000, S = 0.000, singlet (from 4 determinants)  Done. Timing        0.000088 s

  * * * * * * * * * * * * * * * * *
  *  CI Vectors & Configurations  *
  * * * * * * * * * * * * * * * * *

  ==> Root No. 0 <==

    ba         -0.6998431877
    ab         -0.6998431877
    20         -0.1420971285

    Total Energy:   -106.772344531078005


  ==> Root No. 1 <==

    20          0.9898526986
    ab         -0.1004674550
    ba         -0.1004674550

    Total Energy:   -106.733425590082177



  ==> Computing Permanent Dipole Moments (A1) <==

  Permanent dipole moments (a.u.) 0 -> 0:  X:  0.0000  Y:  0.0000  Z: -0.1343  Total:  0.1343
  Permanent dipole moments (a.u.) 1 -> 1:  X:  0.0000  Y:  0.0000  Z: -9.8082  Total:  9.8082


  ==> Computing Transition Dipole Moments (A1 -> A1) <==

  Transition dipole moments (a.u.) 0 -> 1:  X:  0.0000  Y:  0.0000  Z:  1.2681  Total:  1.2681


  ==> Computing Oscillator Strength (A1 -> A1) <==

  Oscillator strength (a.u.) 0 -> 1:  X:  0.0000  Y:  0.0000  Z:  0.0417  Total:  0.0417

  Total Energy (averaged over 2 states): -106.752885060580098

  Forming generalized Fock matrix     ...  Done. Timing        0.000964 s
  Checking Fock matrices (Fa, Fb)     ...
  Nonzero criteria: > 1.00E-10
  Fa_CORE    block is diagonal.
  Fb_CORE    block is diagonal.
  Fa_ACTIVE  block is diagonal.
  Fb_ACTIVE  block is diagonal.
  Fa_VIRTUAL block is diagonal.
  Fb_VIRTUAL block is diagonal.
  Done checking Fock matrices.                   Timing        0.000048 s

  Orbitals are semi-canonicalized already.


              ----------------------------------------------------
                 Driven Similarity Renormalization Group MBPT2
                Chenyang Li, Kevin Hannon, Francesco Evangelista
              ----------------------------------------------------

    Reference:
      J. Chem. Theory Comput. 2015, 11, 2097-2108.

  ==> Calculation Information <==

    ntamp                                                 15
    flow parameter                                 5.000e-01
    taylor expansion threshold                     1.000e-03
    intruder_tamp                                  1.000e-01
    int_type                                    CONVENTIONAL
    source operator                                 STANDARD
    reference relaxation                                ONCE
    state_type                                   MULTI-STATE
    multi-state type                                 SA_FULL

  ==> Checking Orbitals <==

    Checking if orbitals are semi-canonicalized ...     OK.
    Orbitals are semi-canonicalized.

  ==> Computing DSRG-MRPT2 ... <==

    Computing T2 amplitudes                  ...  Done. Timing        0.012028 s
    Computing T1 amplitudes                  ...  Done. Timing        0.003044 s
    Renormalizing two-electron integrals     ...  Done. Timing        0.010033 s
    Renormalizing Fock matrix elements       ...  Done. Timing        0.003141 s
    Computing <[F, T1]>                      ...  Done. Timing        0.001588 s
    Computing <[F, T2]>                      ...  Done. Timing        0.004870 s
    Computing <[V, T1]>                      ...  Done. Timing        0.004944 s
    Computing <[V, T2]> (C_2)^4              ...  Done. Timing        0.023723 s
    Computing <[V, T2]> C_4 (C_2)^2 HH       ...  Done. Timing        0.005346 s
    Computing <[V, T2]> C_4 (C_2)^2 PP       ...  Done. Timing        0.006461 s
    Computing <[V, T2]> C_4 (C_2)^2 PH       ...  Done. Timing        0.024450 s
    Computing <[V, T2]> C_6 C_2              ...  Done. Timing        0.013092 s

  ==> Excitation Amplitudes Summary <==

    Active Indices:    0    1 
    Largest T1 amplitudes for spin case A:
       i       a                  i       a                  i       a               
    --------------------------------------------------------------------------------
    [  0      11    ] 0.006954 [  0       7    ] 0.002372 [  0       8    ] 0.002279 
    [  0       5    ]-0.001478 [  1       4    ] 0.001042 [  1      11    ] 0.000939 
    [  1       5    ] 0.000753 [  1       3    ]-0.000655 [  1       2    ]-0.000621 
    [  0       9    ]-0.000374 [  1       7    ] 0.000355 [  1       8    ]-0.000335 
    [  0       4    ] 0.000217 [  0       2    ] 0.000209 [  0       3    ]-0.000178 
    --------------------------------------------------------------------------------
    Norm of T1A vector: (nonzero elements: 34)                    0.008077630291610.
    --------------------------------------------------------------------------------
    Largest T1 amplitudes for spin case B:
       _       _                  _       _                  _       _               
       i       a                  i       a                  i       a               
    --------------------------------------------------------------------------------
    [  0      11    ] 0.006954 [  0       7    ] 0.002372 [  0       8    ] 0.002279 
    [  0       5    ]-0.001478 [  1       4    ] 0.001042 [  1      11    ] 0.000939 
    [  1       5    ] 0.000753 [  1       3    ]-0.000655 [  1       2    ]-0.000621 
    [  0       9    ]-0.000374 [  1       7    ] 0.000355 [  1       8    ]-0.000335 
    [  0       4    ] 0.000217 [  0       2    ] 0.000209 [  0       3    ]-0.000178 
    --------------------------------------------------------------------------------
    Norm of T1B vector: (nonzero elements: 34)                    0.008077630291610.
    --------------------------------------------------------------------------------
    Largest T2 amplitudes for spin case AA:
       i   j   a   b              i   j   a   b              i   j   a   b           
    --------------------------------------------------------------------------------
    [  0  26   0  32] 0.069328 [  0  18   0  24] 0.069328 [  0  18   0  22]-0.035634 
    [  0  26   0  30]-0.035634 [  0  26  11  32]-0.024203 [  0  18  11  24]-0.024203 
    [ 18  26  24  32]-0.023606 [ 18  26  10  16]-0.015446 [  0  18  11  22] 0.014561 
    [  0  26  11  30] 0.014561 [  0  26   9  31] 0.014216 [  0  18   9  23] 0.014216 
    [ 18  26  22  32] 0.014096 [ 18  26  24  30] 0.014096 [  0  26   8  32]-0.010861 
    --------------------------------------------------------------------------------
    Norm of T2AA vector: (nonzero elements: 2700)                 0.267224026403761.
    --------------------------------------------------------------------------------
    Largest T2 amplitudes for spin case AB:
           _       _                  _       _                  _       _           
       i   j   a   b              i   j   a   b              i   j   a   b           
    --------------------------------------------------------------------------------
    [  0   0   0  11] 0.083614 [  0  26   0  32] 0.073352 [  0  18   0  24] 0.073352 
    [  0  18   0  22]-0.038411 [  0  26   0  30]-0.038411 [  0   0  11  11]-0.037674 
    [ 26  26  32  32]-0.035644 [ 18  18  24  24]-0.035644 [  0   0   0   8] 0.029339 
    [  0  26  11  32]-0.028341 [  0  18  11  24]-0.028341 [ 18  26  24  32]-0.027619 
    [  0   0   0   7] 0.026490 [  0   0   9   9]-0.019678 [ 18  18  22  24] 0.019072 
    --------------------------------------------------------------------------------
    Norm of T2AB vector: (nonzero elements: 4080)                 0.269706435872955.
    --------------------------------------------------------------------------------
    Largest T2 amplitudes for spin case BB:
       _   _   _   _              _   _   _   _              _   _   _   _           
       i   j   a   b              i   j   a   b              i   j   a   b           
    --------------------------------------------------------------------------------
    [  0  26   0  32] 0.069328 [  0  18   0  24] 0.069328 [  0  18   0  22]-0.035634 
    [  0  26   0  30]-0.035634 [  0  26  11  32]-0.024203 [  0  18  11  24]-0.024203 
    [ 18  26  24  32]-0.023606 [ 18  26  10  16]-0.015446 [  0  18  11  22] 0.014561 
    [  0  26  11  30] 0.014561 [  0  26   9  31] 0.014216 [  0  18   9  23] 0.014216 
    [ 18  26  22  32] 0.014096 [ 18  26  24  30] 0.014096 [  0  26   8  32]-0.010861 
    --------------------------------------------------------------------------------
    Norm of T2BB vector: (nonzero elements: 2700)                 0.267224026403761.
    --------------------------------------------------------------------------------

  ==> Possible Intruders <==

    T1 amplitudes larger than 0.1000 for spin case A: NULL
    T1 amplitudes larger than 0.1000 for spin case B: NULL
    T2 amplitudes larger than 0.1000 for spin case AA: NULL
    T2 amplitudes larger than 0.1000 for spin case AB: NULL
    T2 amplitudes larger than 0.1000 for spin case BB: NULL

  ==> DSRG-MRPT2 Energy Summary <==

    E0 (reference)                 =   -106.752885060580098
    <[F, T1]>                      =     -0.000336533003035
    <[F, T2]>                      =      0.000336834897642
    <[V, T1]>                      =      0.000336646105016
    <[V, T2]> (C_2)^4              =     -0.179945371823900
    <[V, T2]> C_4 (C_2)^2 HH       =      0.000069406823525
    <[V, T2]> C_4 (C_2)^2 PP       =      0.002544130253146
    <[V, T2]> C_4 (C_2)^2 PH       =      0.007607453174780
    <[V, T2]> C_6 C_2              =     -0.000021683991245
    <[V, T2]>                      =     -0.169746065563693
    DSRG-MRPT2 correlation energy  =     -0.169409117564069
    DSRG-MRPT2 total energy        =   -106.922294178144170
    max(T1)                        =      0.006954240950074
    max(T2)                        =      0.083613966725816
    ||T1||                         =      0.011423494310231
    ||T2||                         =      0.658622507040297


  ==> De-Normal-Order the DSRG Transformed Hamiltonian <==

    Computing the scalar term   ...      Done. Timing      0.002 s
    Computing the one-body term ...      Done. Timing      0.001 s
    Updating integrals          ...      Done. Timing      0.000 s

  ==> Scalar of the DSRG Hamiltonian (WRT True Vacuum) <==

    Scalar0                        =    -12.785729758753234
    Scalar1                        =      0.535011128764184
    Scalar2                        =      0.548345608056923
    Total Scalar W/O Frozen-Core   =    -11.702373021932127
    Total Scalar W/  Frozen-Core   =   -108.538937441323071

  ==> Test De-Normal-Ordered Hamiltonian <==

    One-Body Energy (after)        =     -1.002065171356908
    Two-Body Energy (after)        =     -0.081291565464199
    Total Energy (after)           =   -106.922294178144170
    Total Energy (before)          =   -106.922294178144170
  Frozen Orbitals takes     0.000 s.

  ==> Diagonalize Effective Hamiltonian (Singlet A1) <==

    Use string FCI code.

  ==> String Lists <==

  Number of alpha electrons     = 1
  Number of beta electrons      = 1
  Number of alpha strings       = 2
  Number of beta strings        = 2
  Timing for strings        =      0.000 s
  Timing for NN strings     =      0.000 s
  Timing for VO strings     =      0.000 s
  Timing for OO strings     =      0.000 s
  Timing for Knowles-Handy  =      0.000 s
  Timing for VVOO strings   =      0.000 s
  Timing for VOVO strings   =      0.000 s
  Timing for 1-hole strings =      0.000 s
  Timing for 2-hole strings =      0.000 s
  Timing for 3-hole strings =      0.000 s
  Total timing              =      0.000 s

  ==> FCI Solver <==

    Number of determinants                           4
    Symmetry                                         0
    Multiplicity                                     1
    Number of roots                                  2
    Target root                                      0
    Trial vectors per root                          10

  Allocating memory for the Hamiltonian algorithm. Size: 2 x 2 x 2.   Memory: 0.000000 GB

  ==> FCI Initial Guess <==

  ---------------------------------------------
    Root            Energy     <S^2>   Spin
  ---------------------------------------------
      0     -106.929958810958  0.000  singlet
      1     -106.916079123243  2.000  triplet
      2     -106.914629599206  0.000  singlet
      3     -106.204039261484  0.000  singlet
  ---------------------------------------------
  Timing for initial guess  =      0.000 s

  Projecting out root 1
  ==> Diagonalizing Hamiltonian <==

  ----------------------------------------
    Iter.      Avg. Energy       Delta_E
  ----------------------------------------
      1     -106.922294205082  -1.069e+02
      2     -106.922294205082  +5.684e-14
  ----------------------------------------
  The Davidson-Liu algorithm converged in 3 iterations.

  ==> Root No. 0 <==

    20      0.95964531
    ab      0.19882142
    ba      0.19882142

    Total Energy:      -106.929958810957842

  ==> Root No. 1 <==

    ab      0.67848992
    ba      0.67848992
    20     -0.28121317

    Total Energy:      -106.914629599206009

  ==> Computing RDMs for Root No. 1 <==

    Timing for 1-RDM: 0.000 s

  ==> NATURAL ORBITALS <==

        1A1     1.409485      2A1     0.590515  



  ==> Multi-State DSRG-MRPT2 Energy Summary <==

    Multi.  Irrep.  No.    DSRG-MRPT2 Energy
    -----------------------------------------
       1      A1     0      -106.929958810958
       1      A1     1      -106.914629599206
    -----------------------------------------

  ==> Total Timings (s) for Computing Commutators <==

             [H1, T1]    [H1, T2]    [H2, T1]    [H2, T2]
    -----------------------------------------------------
    -> C0       0.002       0.005       0.005       0.073
    -> C1       0.001       0.009       0.006       0.136
    -> C2                   0.008       0.008       0.082
    -----------------------------------------------------


  Your calculation took 0.83184900 seconds
	SA-DSRG-MRPT2 FULL energy root 0..................................PASSED

*** Psi4 exiting successfully. Buy a developer a beer!
