    -----------------------------------------------------------------------
          Psi4: An Open-Source Ab Initio Electronic Structure Package
                              Psi4 (no tag) Driver

                          Git: Rev {master} d8d4a3e 

    J. M. Turney, A. C. Simmonett, R. M. Parrish, E. G. Hohenstein,
    F. A. Evangelista, J. T. Fermann, B. J. Mintz, L. A. Burns, J. J. Wilke,
    M. L. Abrams, N. J. Russ, M. L. Leininger, C. L. Janssen, E. T. Seidl,
    W. D. Allen, H. F. Schaefer, R. A. King, E. F. Valeev, C. D. Sherrill,
    and T. D. Crawford, WIREs Comput. Mol. Sci. 2, 556-565 (2012)
    (doi: 10.1002/wcms.93)

                         Additional Contributions by
    A. E. DePrince, M. Saitow, U. Bozkaya, A. Yu. Sokolov
    -----------------------------------------------------------------------


    Psi4 started on: Sat Oct  3 22:12:47 2015

    Process ID:  52414
    PSI4DATADIR: /Users/jeffschriber/Source/psi4/lib
    Memory level set to 256.000 MB

  ==> Input File <==

--------------------------------------------------------------------------
#! Generated using commit GITCOMMIT
# Tests mp2_nos with spin projected system for multiple roots


import forte

refscf = -75.37487863589541 
refaci = -75.479410527618
refacipt2 = -75.723333873985 

molecule N2{
C 
C 1 1.3
units angstrom
}

set {
  basis 6-31g* 
  scf_type pk
  freeze_core true
  reference rhf 
  e_convergence 10
  d_convergence 10
  r_convergence 10
  docc [2,0,0,0,0,2,1,1]
}



set forte {
  job_type = aci
  multiplicity 1
  perturb_select false
  SELECT_TYPE aimed-energy
  frozen_docc [1,0,0,0,0,1,0,0]
  TAUP 0.05
  TAUQ 0.05
  nroot 3
  mp2_nos true
  charge 0
  spin_projection 1
}

energy('scf')

compare_values(refscf, get_variable("CURRENT ENERGY"),9, "SCF energy") #TEST

energy('forte')
compare_values(refaci, get_variable("ACI ENERGY"),9, "EX-ACI energy") #TEST
compare_values(refacipt2, get_variable("ACI+PT2 ENERGY"),8, "EX-ACI+PT2 energy") #TEST
--------------------------------------------------------------------------
/Users/jeffschriber/Source/forte/forte.so loaded.

*** tstart() called on Jeffs-MacBook-Pro.local
*** at Sat Oct  3 22:12:47 2015

    There are an even number of electrons - assuming singlet.
    Specify the multiplicity with the MULTP option in the
    input if this is incorrect


         ---------------------------------------------------------
                                   SCF
            by Justin Turney, Rob Parrish, and Andy Simmonett
                              RHF Reference
                        1 Threads,    256 MiB Core
         ---------------------------------------------------------

  ==> Geometry <==

    Molecular point group: d2h
    Full point group: D_inf_h

    Geometry (in Angstrom), charge = 0, multiplicity = 1:

       Center              X                  Y                   Z               Mass       
    ------------   -----------------  -----------------  -----------------  -----------------
           C          0.000000000000     0.000000000000    -0.650000000000    12.000000000000
           C          0.000000000000     0.000000000000     0.650000000000    12.000000000000

  Running in d2h symmetry.

  Rotational constants: A = ************  B =      1.66249  C =      1.66249 [cm^-1]
  Rotational constants: A = ************  B =  49840.13856  C =  49840.13856 [MHz]
  Nuclear repulsion =   14.654138084030766

  Charge       = 0
  Multiplicity = 1
  Electrons    = 12
  Nalpha       = 6
  Nbeta        = 6

  ==> Algorithm <==

  SCF Algorithm Type is PK.
  DIIS enabled.
  MOM disabled.
  Fractional occupation disabled.
  Guess Type is CORE.
  Energy threshold   = 1.00e-10
  Density threshold  = 1.00e-10
  Integral threshold = 0.00e+00

  ==> Primary Basis <==

  Basis Set: 6-31G*
    Number of shells: 12
    Number of basis function: 30
    Number of Cartesian functions: 30
    Spherical Harmonics?: false
    Max angular momentum: 2

  ==> Pre-Iterations <==

   -------------------------------------------------------
    Irrep   Nso     Nmo     Nalpha   Nbeta   Ndocc  Nsocc
   -------------------------------------------------------
     Ag         8       8       2       2       2       0
     B1g        1       1       0       0       0       0
     B2g        3       3       0       0       0       0
     B3g        3       3       0       0       0       0
     Au         1       1       0       0       0       0
     B1u        8       8       2       2       2       0
     B2u        3       3       1       1       1       0
     B3u        3       3       1       1       1       0
   -------------------------------------------------------
    Total      30      30       6       6       6       0
   -------------------------------------------------------

  Starting with a DF guess...

 OEINTS: Overlap, kinetic, potential, dipole, and quadrupole integrals
         stored in file 35.

  ==> Integral Setup <==

  ==> DFJK: Density-Fitted J/K Matrices <==

    J tasked:                  Yes
    K tasked:                  Yes
    wK tasked:                  No
    OpenMP threads:              1
    Integrals threads:           1
    Memory (MB):               183
    Algorithm:                Core
    Integral Cache:           NONE
    Schwarz Cutoff:          1E-12
    Fitting Condition:       1E-12

   => Auxiliary Basis Set <=

  Basis Set: 
    Number of shells: 48
    Number of basis function: 162
    Number of Cartesian functions: 162
    Spherical Harmonics?: false
    Max angular momentum: 3

  Minimum eigenvalue in the overlap matrix is 7.3141486613E-03.
  Using Symmetric Orthogonalization.
  SCF Guess: Core (One-Electron) Hamiltonian.

  ==> Iterations <==

                           Total Energy        Delta E     RMS |[F,P]|

   @DF-RHF iter   1:   -69.47808871163789   -6.94781e+01   2.27892e-01 
   @DF-RHF iter   2:   -74.10722013727614   -4.62913e+00   1.09761e-01 DIIS
   @DF-RHF iter   3:   -75.36388610130736   -1.25667e+00   9.25791e-03 DIIS
   @DF-RHF iter   4:   -75.37427273498132   -1.03866e-02   1.73546e-03 DIIS
   @DF-RHF iter   5:   -75.37473561843881   -4.62883e-04   2.06350e-04 DIIS
   @DF-RHF iter   6:   -75.37474031268295   -4.69424e-06   2.34371e-05 DIIS
   @DF-RHF iter   7:   -75.37474037447433   -6.17914e-08   1.87113e-06 DIIS
   @DF-RHF iter   8:   -75.37474037506439   -5.90063e-10   3.60700e-07 DIIS
   @DF-RHF iter   9:   -75.37474037509085   -2.64606e-11   7.03370e-08 DIIS
   @DF-RHF iter  10:   -75.37474037509169   -8.38440e-13   8.87469e-09 DIIS
   @DF-RHF iter  11:   -75.37474037509173   -4.26326e-14   8.59373e-10 DIIS
   @DF-RHF iter  12:   -75.37474037509170    2.84217e-14   7.52435e-11 DIIS

  DF guess converged.

  ==> Integral Setup <==

 MINTS: Wrapper to libmints.
   by Justin Turney

   Calculation information:
      Number of atoms:                   2
      Number of AO shells:              12
      Number of SO shells:               6
      Number of primitives:             30
      Number of atomic orbitals:        30
      Number of basis functions:        30

      Number of irreps:                  8
      Integral cutoff                 0.00e+00
      Number of functions per irrep: [   8    1    3    3    1    8    3    3 ]

 OEINTS: Overlap, kinetic, potential, dipole, and quadrupole integrals
         stored in file 35.

      Computing two-electron integrals...done
      Computed 15467 non-zero two-electron integrals.
        Stored in file 33.

	Batch   1 pq = [       0,      98] index = [             0,4851]
  ==> DiskJK: Disk-Based J/K Matrices <==

    J tasked:                  Yes
    K tasked:                  Yes
    wK tasked:                  No
    Memory (MB):               183
    Schwarz Cutoff:          1E-12

   @RHF iter  13:   -75.37487856633579   -1.38191e-04   3.04224e-05 DIIS
   @RHF iter  14:   -75.37487863260868   -6.62729e-08   5.55059e-06 DIIS
   @RHF iter  15:   -75.37487863567391   -3.06522e-09   1.33939e-06 DIIS
   @RHF iter  16:   -75.37487863588480   -2.10889e-10   2.44211e-07 DIIS
   @RHF iter  17:   -75.37487863589510   -1.03029e-11   3.87886e-08 DIIS
   @RHF iter  18:   -75.37487863589536   -2.55795e-13   7.36306e-09 DIIS
   @RHF iter  19:   -75.37487863589534    1.42109e-14   8.45338e-10 DIIS
   @RHF iter  20:   -75.37487863589537   -2.84217e-14   5.36217e-11 DIIS

  ==> Post-Iterations <==

    Orbital Energies (a.u.)
    -----------------------

    Doubly Occupied:                                                      

       1Ag   -11.368628     1B1u  -11.367077     2Ag    -1.034489  
       2B1u   -0.524847     1B2u   -0.436705     1B3u   -0.436705  

    Virtual:                                                              

       3Ag    -0.097513     1B2g    0.157507     1B3g    0.157507  
       3B1u    0.464357     4Ag     0.675380     2B2u    0.721071  
       2B3u    0.721071     5Ag     0.751415     2B3g    0.840159  
       2B2g    0.840159     4B1u    0.913558     5B1u    1.274347  
       3B2u    1.711471     3B3u    1.711471     1B1g    1.793487  
       6Ag     1.793487     1Au     2.149832     6B1u    2.149832  
       7Ag     2.377092     3B2g    2.697346     3B3g    2.697346  
       7B1u    3.044324     8Ag     4.262621     8B1u    4.430804  

    Final Occupation by Irrep:
             Ag   B1g   B2g   B3g    Au   B1u   B2u   B3u 
    DOCC [     2,    0,    0,    0,    0,    2,    1,    1 ]

  Energy converged.

  @RHF Final Energy:   -75.37487863589537

   => Energetics <=

    Nuclear Repulsion Energy =             14.6541380840307660
    One-Electron Energy =                -129.7211286635026113
    Two-Electron Energy =                  39.6921119435764780
    DFT Exchange-Correlation Energy =       0.0000000000000000
    Empirical Dispersion Energy =           0.0000000000000000
    PCM Polarization Energy =               0.0000000000000000
    EFP Energy =                            0.0000000000000000
    Total Energy =                        -75.3748786358953708

    Alert: EFP and PCM quantities not currently incorporated into SCF psivars.

Properties will be evaluated at   0.000000,   0.000000,   0.000000 Bohr
  ==> Properties <==


Properties computed using the SCF density matrix

  Nuclear Dipole Moment: (a.u.)
     X:     0.0000      Y:     0.0000      Z:     0.0000

  Electronic Dipole Moment: (a.u.)
     X:     0.0000      Y:     0.0000      Z:     0.0000

  Dipole Moment: (a.u.)
     X:     0.0000      Y:     0.0000      Z:     0.0000     Total:     0.0000

  Dipole Moment: (Debye)
     X:     0.0000      Y:     0.0000      Z:     0.0000     Total:     0.0000


  Saving occupied orbitals to File 180.

*** tstop() called on Jeffs-MacBook-Pro.local at Sat Oct  3 22:12:47 2015
Module time:
	user time   =       0.35 seconds =       0.01 minutes
	system time =       0.02 seconds =       0.00 minutes
	total time  =          0 seconds =       0.00 minutes
Total time:
	user time   =       0.35 seconds =       0.01 minutes
	system time =       0.02 seconds =       0.00 minutes
	total time  =          0 seconds =       0.00 minutes
Reading options from the FORTE block
Calling plugin /Users/jeffschriber/Source/forte/forte.so.


  ==> MO Space Information <==

  Read options for space FROZEN_DOCC
 Removing orbital 0
 Removing orbital 16
  -------------------------------------------------------------------------
                       Ag   B1g   B2g   B3g    Au   B1u   B2u   B3u   Sum
  -------------------------------------------------------------------------
    FROZEN_DOCC         1     0     0     0     0     1     0     0     2
    RESTRICTED_DOCC     0     0     0     0     0     0     0     0     0
    ACTIVE              7     1     3     3     1     7     3     3    28
    RESTRICTED_UOCC     0     0     0     0     0     0     0     0     0
    FROZEN_UOCC         0     0     0     0     0     0     0     0     0
    Total               8     1     3     3     1     8     3     3    30
  -------------------------------------------------------------------------

  ==> Integral Transformation <==

  Number of molecular orbitals:               30
  Number of correlated molecular orbitals:    28
  Number of frozen occupied orbitals:          2
  Number of frozen unoccupied orbitals:        0


 Overall Conventional Integrals timings	Presorting SO-basis two-electron integrals.
	Sorting File: SO Ints (nn|nn) nbuckets = 1
	Transforming the one-electron integrals and constructing Fock matrices
	Starting first half-transformation.
	Sorting half-transformed integrals.
	First half integral transformation complete.
	Starting second half-transformation.
	Two-electron integral transformation complete.

  Integral transformation done. 0.02259600 s
  Reading the two-electron integrals from disk
  Size of two-electron integrals:   0.018105 GB
  Frozen-core energy            -72.854832514490 a.u.
  Freezing MO 0
  Freezing MO 16
  Resorting integrals after freezing core.
 Conventional integrals take 0.07810500 s

                ------------------------------------------------
                  Second-Order Moller-Plesset Natural Orbitals
                      written by Francesco A. Evangelista
                ------------------------------------------------


    SCF energy                            =  -75.374878635895371
    MP2 correlation energy                =   -0.319645384811730
  * MP2 total energy                      =  -75.694524020707107

	Presorting SO-basis two-electron integrals.
	Sorting File: SO Ints (nn|nn) nbuckets = 1
	Transforming the one-electron integrals and constructing Fock matrices
	Starting first half-transformation.
	Sorting half-transformed integrals.
	First half integral transformation complete.
	Starting second half-transformation.
	Two-electron integral transformation complete.

  Integral transformation done. 0.03227600 s
  Reading the two-electron integrals from disk
  Size of two-electron integrals:   0.018105 GB
  Frozen-core energy            -72.854832514490 a.u.
  Freezing MO 0
  Freezing MO 16
  Resorting integrals after freezing core.
  Total electrons: 12
  Number of active electrons: 8
  nalpha: 4
  nbeta:  4 

  There are 2 frozen orbitals.
  There are 28 active orbitals.
  Using RHF reference.

  Electron removed from 16, out of 8
  Need orbital of symmetry 5
  Added electron to 16
  The reference determinant is:

  |11000000000000011000000000001100000000000001100000000000>
  The reference energy is -61.16234233

  ==> Calculation Information <==

  ----------------------------------------------------
    Symmetry                                       0
    Number of roots                                3
    Root used for properties                       0
    P-threshold                             5.00e-02
    Q-threshold                             5.00e-02
    Convergence threshold                   1.00e-10
    Determinant selection criterion         First-order Coefficients
    Selection criterion                     Threshold
    PQ Function                             AVERAGE
    Q Type                                  Absolute Energy
    PT2 Parameters                          False
  ----------------------------------------------------

  Iterative Adaptive CI
  The model space contains 1 determinants

  ==> Cycle 0 <==

  Initial P space dimension: 1
 Not checking for spin-completeness.
  Time spent diagonalizing H using Full: 0.000009 s
  Average spin contamination (0.00000) is less than tolerance (0.01000)
  No need to perform spin projection.

    P-space  CI Energy Root   1        = -61.162342331600 Eh =   0.0000 eV

  Dimension of the SD space: 1928 determinants
  Time spent building the model space: 0.000816 s

  Using non-perturbative energy estimates
  Dimension of the P + Q space: 1164 determinants
  Time spent screening the model space: 0.003639 s

  Davidson-liu sparse algorithm
  Building H using OpenMP-take2
  The sparse Hamiltonian matrix contains 129066 nonzero elements out of 1354896 (0.095259)
  Time spent building H (openmp): 0.186265 s
  The Davidson-Liu algorithm converged in 54 iterations.
  Time spent diagonalizing H: 0.065182 s
  Average spin contamination per root is 0.02350
  Performing spin projection...
  Number of CSFs: 457
  Time spent performing spin transformation: 2.567673
  Building H using OpenMP-take2
  The sparse Hamiltonian matrix contains 129066 nonzero elements out of 1354896 (0.095259)
  Time spent building H (openmp): 0.176722 s

    PQ-space CI Energy Root   1        = -68.988576551047 Eh =   0.0000 eV
    PQ-space CI Energy + EPT2 Root   1 = -69.088697039290 Eh =   0.0000 eV


  Most important contributions to root   0:
    0   0.689196 0.474990728         779 |1000000000000001100000100000|1000000000000001100000100000>
    1  -0.689194 0.474987737         705 |1000000000000001100000000100|1000000000000001100000000100>
    2  -0.105183 0.011063552         818 |1000000000000101100000000000|1000000000000101100000000000>
    3   0.105183 0.011063405         857 |1000000000100001100000000000|1000000000100001100000000000>
    4  -0.047566 0.002262527         622 |1000000000000001100000100000|1000000000000001100000001000>
    5  -0.047566 0.002262527         572 |1000000000000001100000001000|1000000000000001100000100000>
    6   0.047566 0.002262506         634 |1000000000000001100000000100|1000000000000001100000000001>
    7   0.047566 0.002262506         565 |1000000000000001100000000001|1000000000000001100000000100>
    8   0.045918 0.002108504         343 |1100000000000001000000100000|1000000000000101100000000000>
    9   0.045918 0.002108504         455 |1000000000000101100000000000|1100000000000001000000100000>

 Spin state for root 0: S^2 = 0.024, S = 0.023, singlet (from 1000 determinants, 50.00)

  ==> Cycle 1 <==

  Initial P space dimension: 4
 Not checking for spin-completeness.
  Time spent diagonalizing H using Full: 0.000027 s
  Average spin contamination (0.00000) is less than tolerance (0.01000)
  No need to perform spin projection.

    P-space  CI Energy Root   1        = -68.951504739259 Eh =   0.0000 eV
    P-space  CI Energy Root   2        = -68.923469743616 Eh =   0.7629 eV
    P-space  CI Energy Root   3        = -68.210084335868 Eh =  20.1751 eV

  Dimension of the SD space: 6709 determinants
  Time spent building the model space: 0.003608 s

  Using non-perturbative energy estimates
  Dimension of the P + Q space: 2176 determinants
  Time spent screening the model space: 0.012750 s

  Davidson-liu sparse algorithm
  Building H using OpenMP-take2
  The sparse Hamiltonian matrix contains 224490 nonzero elements out of 4734976 (0.047411)
  Time spent building H (openmp): 0.492147 s
  The Davidson-Liu algorithm converged in 20 iterations.
  Time spent diagonalizing H: 0.076753 s
 Average spin contamination (0.00002) is less than tolerance (0.01000)
 No need to perform spin projection.

    PQ-space CI Energy Root   1        = -75.474752217981 Eh =   0.0000 eV
    PQ-space CI Energy + EPT2 Root   1 = -75.638252366224 Eh =   0.0000 eV
    PQ-space CI Energy Root   2        = -75.461409504325 Eh =   0.3631 eV
    PQ-space CI Energy + EPT2 Root   2 = -75.634273174979 Eh =   0.1083 eV
    PQ-space CI Energy Root   3        = -75.432178431006 Eh =   1.1585 eV
    PQ-space CI Energy + EPT2 Root   3 = -94.449523775229 Eh = -511.8807 eV


  Most important contributions to root   0:
    0  -0.661635 0.437760622        1043 |1000001000000001000000100000|1000001000000001000000100000>
    1   0.661635 0.437760622        2133 |1000001000000001000000000100|1000001000000001000000000100>
    2   0.129288 0.016715390        1176 |1000001000000001000000100000|1000010000000001000000100000>
    3   0.129288 0.016715390         916 |1000010000000001000000100000|1000001000000001000000100000>
    4  -0.129288 0.016715390        1811 |1000001000000001000000000100|1000010000000001000000000100>
    5  -0.129288 0.016715390        1539 |1000010000000001000000000100|1000001000000001000000000100>
    6   0.113683 0.012923802         399 |1000001000000101000000000000|1000001000000101000000000000>
    7  -0.113683 0.012923802          62 |1000001000100001000000000000|1000001000100001000000000000>
    8   0.065314 0.004265973        1630 |1001000000000001000000100000|1000001000000001000000100000>
    9   0.065314 0.004265973         915 |1000001000000001000000100000|1001000000000001000000100000>

 Spin state for root 0: S^2 = 0.000, S = 0.000, singlet (from 1740 determinants, 50.00)

  Most important contributions to root   1:
    0   0.697505 0.486512602         176 |1000000000000001000000100100|1000000000000001000000100100>
    1  -0.455812 0.207764649        2133 |1000001000000001000000000100|1000001000000001000000000100>
    2  -0.455812 0.207764649        1043 |1000001000000001000000100000|1000001000000001000000100000>
    3  -0.124939 0.015609780        1976 |1000000000100001000000100000|1000000000100001000000100000>
    4  -0.124939 0.015609780        2079 |1000000000000101000000000100|1000000000000101000000000100>
    5   0.093252 0.008695874          62 |1000001000100001000000000000|1000001000100001000000000000>
    6   0.093252 0.008695874         399 |1000001000000101000000000000|1000001000000101000000000000>
    7   0.090760 0.008237309        1811 |1000001000000001000000000100|1000010000000001000000000100>
    8   0.090760 0.008237309        1539 |1000010000000001000000000100|1000001000000001000000000100>
    9   0.090760 0.008237309         916 |1000010000000001000000100000|1000001000000001000000100000>

 Spin state for root 1: S^2 = 0.000, S = 0.000, singlet (from 1573 determinants, 54.63)

  Most important contributions to root   2:
    0   0.656587 0.431106330         176 |1000000000000001000000100100|1000000000000001000000100100>
    1   0.474050 0.224723044        2133 |1000001000000001000000000100|1000001000000001000000000100>
    2   0.474050 0.224723044        1043 |1000001000000001000000100000|1000001000000001000000100000>
    3  -0.150200 0.022560135        2079 |1000000000000101000000000100|1000000000000101000000000100>
    4  -0.150200 0.022560135        1976 |1000000000100001000000100000|1000000000100001000000100000>
    5  -0.096743 0.009359197          62 |1000001000100001000000000000|1000001000100001000000000000>
    6  -0.096743 0.009359197         399 |1000001000000101000000000000|1000001000000101000000000000>
    7  -0.091110 0.008301044        1811 |1000001000000001000000000100|1000010000000001000000000100>
    8  -0.091110 0.008301044        1539 |1000010000000001000000000100|1000001000000001000000000100>
    9  -0.091110 0.008301044        1176 |1000001000000001000000100000|1000010000000001000000100000>

 Spin state for root 2: S^2 = 0.000, S = 0.000, singlet (from 1564 determinants, 88.73)

  ==> Cycle 2 <==

  Initial P space dimension: 15
 Not checking for spin-completeness.

  Davidson-liu sparse algorithm
  Building H using OpenMP-take2
  The sparse Hamiltonian matrix contains 123 nonzero elements out of 225 (0.546667)
  Time spent building H (openmp): 0.000166 s
  The Davidson-Liu algorithm converged in 8 iterations.
  Time spent diagonalizing H: 0.000245 s
  Average spin contamination (0.00000) is less than tolerance (0.01000)
  No need to perform spin projection.

    P-space  CI Energy Root   1        = -75.446064618701 Eh =   0.0000 eV
    P-space  CI Energy Root   2        = -75.443915527983 Eh =   0.0585 eV
    P-space  CI Energy Root   3        = -75.403972727769 Eh =   1.1454 eV

  Dimension of the SD space: 19790 determinants
  Time spent building the model space: 0.017544 s

  Using non-perturbative energy estimates
  Dimension of the P + Q space: 24 determinants
  Time spent screening the model space: 0.052077 s

  Davidson-liu sparse algorithm
  Building H using OpenMP-take2
  The sparse Hamiltonian matrix contains 266 nonzero elements out of 576 (0.461806)
  Time spent building H (openmp): 0.000242 s
  The Davidson-Liu algorithm converged in 12 iterations.
  Time spent diagonalizing H: 0.000413 s
  Average spin contamination per root is 0.02698
  Performing spin projection...
  Number of CSFs: 14
  Time spent performing spin transformation: 0.000101
  Using full algorithm

    PQ-space CI Energy Root   1        = -75.511150567859 Eh =   0.0000 eV
    PQ-space CI Energy + EPT2 Root   1 = -75.733609857141 Eh =   0.0000 eV
    PQ-space CI Energy Root   2        = -75.451160583877 Eh =   1.6324 eV
    PQ-space CI Energy + EPT2 Root   2 = -75.677285429980 Eh =   1.5327 eV
    PQ-space CI Energy Root   3        = -75.428668793605 Eh =   2.2444 eV
    PQ-space CI Energy + EPT2 Root   3 = -75.658375771447 Eh =   2.0472 eV


  Most important contributions to root   0:
    0  -0.930807 0.866401294           1 |1000000000000001000000100100|1000000000000001000000100100>
    1   0.202609 0.041050310          20 |1000001000000000000000100100|1000001000000000000000100100>
    2   0.134114 0.017986657          13 |1000000000000101000000000100|1000000000000101000000000100>
    3   0.134114 0.017986657          11 |1000000000100001000000100000|1000000000100001000000100000>
    4   0.115215 0.013274427          14 |1000001000000001000000000100|1000001000000001000000000100>
    5   0.115215 0.013274427           6 |1000001000000001000000100000|1000001000000001000000100000>
    6   0.058236 0.003391470          19 |1000001000000000000000100100|1000000000000101000000000100>
    7  -0.058236 0.003391470          18 |1000000000000001000000100100|1000001000000100000000000100>
    8  -0.058236 0.003391470          23 |1000001000000100000000000100|1000000000000001000000100100>
    9   0.058236 0.003391470          21 |1000000000000101000000000100|1000001000000000000000100100>

 Spin state for root 0: S^2 = 0.000, S = 0.000, singlet (from 24 determinants, 100.00)

  Most important contributions to root   1:
    0   0.670400 0.449436378           6 |1000001000000001000000100000|1000001000000001000000100000>
    1  -0.670400 0.449436378          14 |1000001000000001000000000100|1000001000000001000000000100>
    2   0.122438 0.014991097          10 |1000001000000001000000000100|1000010000000001000000000100>
    3   0.122438 0.014991097           8 |1000010000000001000000000100|1000001000000001000000000100>
    4  -0.122438 0.014991097           7 |1000001000000001000000100000|1000010000000001000000100000>
    5  -0.122438 0.014991097           5 |1000010000000001000000100000|1000001000000001000000100000>
    6  -0.102291 0.010463470           2 |1000001000000101000000000000|1000001000000101000000000000>
    7   0.102291 0.010463470           0 |1000001000100001000000000000|1000001000100001000000000000>
    8   0.045932 0.002109762          13 |1000000000000101000000000100|1000000000000101000000000100>
    9  -0.045932 0.002109762          11 |1000000000100001000000100000|1000000000100001000000100000>

 Spin state for root 1: S^2 = 0.000, S = 0.000, singlet (from 24 determinants, 100.00)

  Most important contributions to root   2:
    0  -0.645886 0.417169208          14 |1000001000000001000000000100|1000001000000001000000000100>
    1  -0.645886 0.417169208           6 |1000001000000001000000100000|1000001000000001000000100000>
    2   0.220195 0.048485910          20 |1000001000000000000000100100|1000001000000000000000100100>
    3  -0.118686 0.014086251           1 |1000000000000001000000100100|1000000000000001000000100100>
    4   0.115970 0.013448945          10 |1000001000000001000000000100|1000010000000001000000000100>
    5   0.115970 0.013448945           8 |1000010000000001000000000100|1000001000000001000000000100>
    6   0.115970 0.013448945           7 |1000001000000001000000100000|1000010000000001000000100000>
    7   0.115970 0.013448945           5 |1000010000000001000000100000|1000001000000001000000100000>
    8   0.114584 0.013129484           0 |1000001000100001000000000000|1000001000100001000000000000>
    9   0.114584 0.013129484           2 |1000001000000101000000000000|1000001000000101000000000000>

 Spin state for root 2: S^2 = 0.000, S = 0.000, singlet (from 24 determinants, 100.00)

  ==> Cycle 3 <==

  Initial P space dimension: 12
 Not checking for spin-completeness.

  Davidson-liu sparse algorithm
  Building H using OpenMP-take2
  The sparse Hamiltonian matrix contains 78 nonzero elements out of 144 (0.541667)
  Time spent building H (openmp): 0.000085 s
  The Davidson-Liu algorithm converged in 6 iterations.
  Time spent diagonalizing H: 0.000308 s
  Average spin contamination (0.00000) is less than tolerance (0.01000)
  No need to perform spin projection.

    P-space  CI Energy Root   1        = -75.486751826115 Eh =   0.0000 eV
    P-space  CI Energy Root   2        = -75.432739019052 Eh =   1.4698 eV
    P-space  CI Energy Root   3        = -75.408223344557 Eh =   2.1369 eV

  Dimension of the SD space: 16754 determinants
  Time spent building the model space: 0.014578 s

  Using non-perturbative energy estimates
  Dimension of the P + Q space: 16 determinants
  Time spent screening the model space: 0.040563 s

  Davidson-liu sparse algorithm
  Building H using OpenMP-take2
  The sparse Hamiltonian matrix contains 126 nonzero elements out of 256 (0.492188)
  Time spent building H (openmp): 0.000125 s
  The Davidson-Liu algorithm converged in 10 iterations.
  Time spent diagonalizing H: 0.000291 s
  Average spin contamination per root is 0.04540
  Performing spin projection...
  Number of CSFs: 10
  Time spent performing spin transformation: 0.000046
  Using full algorithm

    PQ-space CI Energy Root   1        = -75.479410527618 Eh =   0.0000 eV
    PQ-space CI Energy + EPT2 Root   1 = -75.723333873985 Eh =   0.0000 eV
    PQ-space CI Energy Root   2        = -75.432521439677 Eh =   1.2759 eV
    PQ-space CI Energy + EPT2 Root   2 = -75.666690348411 Eh =   1.5413 eV
    PQ-space CI Energy Root   3        = -75.409162987837 Eh =   1.9115 eV
    PQ-space CI Energy + EPT2 Root   3 = -75.659276850482 Eh =   1.7431 eV


  Most important contributions to root   0:
    0   0.943931 0.891006335           1 |1000000000000001000000100100|1000000000000001000000100100>
    1  -0.213285 0.045490630          11 |1000001000000000000000100100|1000001000000000000000100100>
    2  -0.138254 0.019114130           8 |1000000000100001000000100000|1000000000100001000000100000>
    3  -0.138254 0.019114130           9 |1000000000000101000000000100|1000000000000101000000000100>
    4  -0.106804 0.011407175          10 |1000001000000001000000000100|1000001000000001000000000100>
    5  -0.106804 0.011407175           4 |1000001000000001000000100000|1000001000000001000000100000>
    6   0.020316 0.000412734           7 |1000001000000001000000000100|1000010000000001000000000100>
    7   0.020316 0.000412734           6 |1000010000000001000000000100|1000001000000001000000000100>
    8   0.020316 0.000412734           5 |1000001000000001000000100000|1000010000000001000000100000>
    9   0.020316 0.000412734           3 |1000010000000001000000100000|1000001000000001000000100000>

 Spin state for root 0: S^2 = 0.000, S = 0.000, singlet (from 15 determinants, 95.45)

  Most important contributions to root   1:
    0  -0.676538 0.457703913           4 |1000001000000001000000100000|1000001000000001000000100000>
    1   0.676538 0.457703913          10 |1000001000000001000000000100|1000001000000001000000000100>
    2   0.121247 0.014700952           5 |1000001000000001000000100000|1000010000000001000000100000>
    3   0.121247 0.014700952           3 |1000010000000001000000100000|1000001000000001000000100000>
    4  -0.121247 0.014700952           7 |1000001000000001000000000100|1000010000000001000000000100>
    5  -0.121247 0.014700952           6 |1000010000000001000000000100|1000001000000001000000000100>
    6   0.104854 0.010994453           2 |1000001000000101000000000000|1000001000000101000000000000>
    7  -0.104854 0.010994453           0 |1000001000100001000000000000|1000001000100001000000000000>
    8  -0.043586 0.001899729           9 |1000000000000101000000000100|1000000000000101000000000100>
    9   0.043586 0.001899729           8 |1000000000100001000000100000|1000000000100001000000100000>

 Spin state for root 1: S^2 = 0.000, S = 0.000, singlet (from 16 determinants, 100.00)

  Most important contributions to root   2:
    0  -0.654103 0.427851209          10 |1000001000000001000000000100|1000001000000001000000000100>
    1  -0.654103 0.427851209           4 |1000001000000001000000100000|1000001000000001000000100000>
    2   0.203850 0.041554884          11 |1000001000000000000000100100|1000001000000000000000100100>
    3  -0.120243 0.014458494           1 |1000000000000001000000100100|1000000000000001000000100100>
    4   0.118121 0.013952509           2 |1000001000000101000000000000|1000001000000101000000000000>
    5   0.118121 0.013952509           0 |1000001000100001000000000000|1000001000100001000000000000>
    6   0.115047 0.013235867           7 |1000001000000001000000000100|1000010000000001000000000100>
    7   0.115047 0.013235867           6 |1000010000000001000000000100|1000001000000001000000000100>
    8   0.115047 0.013235867           5 |1000001000000001000000100000|1000010000000001000000100000>
    9   0.115047 0.013235867           3 |1000010000000001000000100000|1000001000000001000000100000>

 Spin state for root 2: S^2 = 0.000, S = 0.000, singlet (from 16 determinants, 100.00)

  ==> Cycle 4 <==

  Initial P space dimension: 12
 Not checking for spin-completeness.

  Davidson-liu sparse algorithm
  Building H using OpenMP-take2
  The sparse Hamiltonian matrix contains 78 nonzero elements out of 144 (0.541667)
  Time spent building H (openmp): 0.000080 s
  The Davidson-Liu algorithm converged in 6 iterations.
  Time spent diagonalizing H: 0.000192 s
  Average spin contamination (0.00000) is less than tolerance (0.01000)
  No need to perform spin projection.

    P-space  CI Energy Root   1        = -75.486751826115 Eh =   0.0000 eV
    P-space  CI Energy Root   2        = -75.432739019052 Eh =   1.4698 eV
    P-space  CI Energy Root   3        = -75.408223344557 Eh =   2.1369 eV

  Dimension of the SD space: 16754 determinants
  Time spent building the model space: 0.011390 s

  Using non-perturbative energy estimates
  Dimension of the P + Q space: 16 determinants
  Time spent screening the model space: 0.034267 s

  Davidson-liu sparse algorithm
  Building H using OpenMP-take2
  The sparse Hamiltonian matrix contains 126 nonzero elements out of 256 (0.492188)
  Time spent building H (openmp): 0.000135 s
  The Davidson-Liu algorithm converged in 10 iterations.
  Time spent diagonalizing H: 0.000343 s
  Average spin contamination per root is 0.04540
  Performing spin projection...
  Number of CSFs: 10
  Time spent performing spin transformation: 0.000092
  Using full algorithm

    PQ-space CI Energy Root   1        = -75.479410527618 Eh =   0.0000 eV
    PQ-space CI Energy + EPT2 Root   1 = -75.723333873985 Eh =   0.0000 eV
    PQ-space CI Energy Root   2        = -75.432521439677 Eh =   1.2759 eV
    PQ-space CI Energy + EPT2 Root   2 = -75.666690348411 Eh =   1.5413 eV
    PQ-space CI Energy Root   3        = -75.409162987837 Eh =   1.9115 eV
    PQ-space CI Energy + EPT2 Root   3 = -75.659276850482 Eh =   1.7431 eV


  ==> Post-Iterations <==

  Not performing spin projection.
  Printing Wavefunction Information

  Most important contributions to root   0:
    0   0.943931 0.891006335           1 |1000000000000001000000100100|1000000000000001000000100100>
    1  -0.213285 0.045490630          11 |1000001000000000000000100100|1000001000000000000000100100>
    2  -0.138254 0.019114130           8 |1000000000100001000000100000|1000000000100001000000100000>
    3  -0.138254 0.019114130           9 |1000000000000101000000000100|1000000000000101000000000100>
    4  -0.106804 0.011407175          10 |1000001000000001000000000100|1000001000000001000000000100>
    5  -0.106804 0.011407175           4 |1000001000000001000000100000|1000001000000001000000100000>
    6   0.020316 0.000412734           7 |1000001000000001000000000100|1000010000000001000000000100>
    7   0.020316 0.000412734           6 |1000010000000001000000000100|1000001000000001000000000100>
    8   0.020316 0.000412734           5 |1000001000000001000000100000|1000010000000001000000100000>
    9   0.020316 0.000412734           3 |1000010000000001000000100000|1000001000000001000000100000>

 Spin state for root 0: S^2 = 0.000, S = 0.000, singlet (from 15 determinants, 95.45)

  Most important contributions to root   1:
    0  -0.676538 0.457703913           4 |1000001000000001000000100000|1000001000000001000000100000>
    1   0.676538 0.457703913          10 |1000001000000001000000000100|1000001000000001000000000100>
    2   0.121247 0.014700952           5 |1000001000000001000000100000|1000010000000001000000100000>
    3   0.121247 0.014700952           3 |1000010000000001000000100000|1000001000000001000000100000>
    4  -0.121247 0.014700952           7 |1000001000000001000000000100|1000010000000001000000000100>
    5  -0.121247 0.014700952           6 |1000010000000001000000000100|1000001000000001000000000100>
    6   0.104854 0.010994453           2 |1000001000000101000000000000|1000001000000101000000000000>
    7  -0.104854 0.010994453           0 |1000001000100001000000000000|1000001000100001000000000000>
    8  -0.043586 0.001899729           9 |1000000000000101000000000100|1000000000000101000000000100>
    9   0.043586 0.001899729           8 |1000000000100001000000100000|1000000000100001000000100000>

 Spin state for root 1: S^2 = 0.000, S = 0.000, singlet (from 16 determinants, 100.00)

  Most important contributions to root   2:
    0  -0.654103 0.427851209          10 |1000001000000001000000000100|1000001000000001000000000100>
    1  -0.654103 0.427851209           4 |1000001000000001000000100000|1000001000000001000000100000>
    2   0.203850 0.041554884          11 |1000001000000000000000100100|1000001000000000000000100100>
    3  -0.120243 0.014458494           1 |1000000000000001000000100100|1000000000000001000000100100>
    4   0.118121 0.013952509           2 |1000001000000101000000000000|1000001000000101000000000000>
    5   0.118121 0.013952509           0 |1000001000100001000000000000|1000001000100001000000000000>
    6   0.115047 0.013235867           7 |1000001000000001000000000100|1000010000000001000000000100>
    7   0.115047 0.013235867           6 |1000010000000001000000000100|1000001000000001000000000100>
    8   0.115047 0.013235867           5 |1000001000000001000000100000|1000010000000001000000100000>
    9   0.115047 0.013235867           3 |1000010000000001000000100000|1000001000000001000000100000>

 Spin state for root 2: S^2 = 0.000, S = 0.000, singlet (from 16 determinants, 100.00)

     Order		 # of Dets        Total |c^2|   
  __________ 	____________   ________________ 
      0			       1		0.89100633545
      1			      13		0.10818417287
      2			       2		0.00080949168

 Highest-order excitation searched:     10  

      0			       2		0.47240486524
      1			      11		0.51099445321
      2			       3		0.01660068155

 Highest-order excitation searched:     10  

      0			       2		0.44108707652
      1			      11		0.54195919834
      2			       3		0.01695372514

 Highest-order excitation searched:     10  

  * Adaptive-CI Energy Root   1        = -75.479410527618 Eh =   0.0000 eV
  * Adaptive-CI Energy Root   1 + EPT2 = -75.723333873985 Eh =   0.0000 eV
  * Adaptive-CI Energy Root   2        = -75.432521439677 Eh =   1.2759 eV
  * Adaptive-CI Energy Root   2 + EPT2 = -75.666690348411 Eh =   1.5413 eV
  * Adaptive-CI Energy Root   3        = -75.409162987837 Eh =   1.9115 eV
  * Adaptive-CI Energy Root   3 + EPT2 = -75.659276850482 Eh =   1.7431 eV

  Adaptive-CI (bitset) ran in : 9.485910 s

  Saving information for root: 1
 Your calculation took 9.88906700 seconds
*** PSI4 exiting successfully. Buy a developer a beer!
