
    -----------------------------------------------------------------------
          Psi4: An Open-Source Ab Initio Electronic Structure Package
                               Psi4 undefined 

                         Git: Rev {master} 3c26e8e 


    R. M. Parrish, L. A. Burns, D. G. A. Smith, A. C. Simmonett,
    A. E. DePrince III, E. G. Hohenstein, U. Bozkaya, A. Yu. Sokolov,
    R. Di Remigio, R. M. Richard, J. F. Gonthier, A. M. James,
    H. R. McAlexander, A. Kumar, M. Saitow, X. Wang, B. P. Pritchard,
    P. Verma, H. F. Schaefer III, K. Patkowski, R. A. King, E. F. Valeev,
    F. A. Evangelista, J. M. Turney, T. D. Crawford, and C. D. Sherrill,
    J. Chem. Theory Comput. 13(7) pp 3185--3197 (2017).
    (doi: 10.1021/acs.jctc.7b00174)


                         Additional Contributions by
    P. Kraus, H. Kruse, M. H. Lechner, M. C. Schieber, and R. A. Shaw

    -----------------------------------------------------------------------


    Psi4 started on: Thursday, 25 October 2018 03:42PM

    Process ID: 92057
    Host:       jeffschriber
    PSIDATADIR: /Users/jeffschriber/src/psi4-debug-install/share/psi4
    Memory:     500.0 MiB
    Threads:    1
    
  ==> Input File <==

--------------------------------------------------------------------------
#! Generated using commit GITCOMMIT

import forte

refrhf     = -108.9537962408121814 # cc-pVDZ
refdsrgpt2 = -109.250416722539697 # cc-pVDZ

memory 500 mb

molecule N2{
  0 1
  N
  N  1 R
  R = 1.1
}

set globals{
   basis                   cc-pvdz
   reference               rhf
   scf_type                pk
   d_convergence           12
   e_convergence           13
}

set forte{
   job_type               dsrg-mrpt2
   frozen_docc            [0,0,0,0,0,0,0,0]
   restricted_docc        [2,0,0,0,0,2,0,0]
   active                 [1,0,1,1,0,1,1,1]
   multiplicity           1
   root_sym               0
   nroot                  1
   dsrg_s                 1.0
   sigma                  0.0
   ntrial_per_root        100
   cas_type               aci
}

Escf, wfn = energy('scf', return_wfn=True)
compare_values(refrhf,get_variable("CURRENT ENERGY"),10,"SCF energy")

energy('forte', ref_wfn=wfn)
compare_values(refdsrgpt2,get_variable("CURRENT ENERGY"),8,"DSRG-MRPT2 energy")
--------------------------------------------------------------------------

  Memory set to 476.837 MiB by Python driver.

*** tstart() called on jeffschriber
*** at Thu Oct 25 15:42:34 2018

   => Loading Basis Set <=

    Name: CC-PVDZ
    Role: ORBITAL
    Keyword: BASIS
    atoms 1-2 entry N          line   168 file /Users/jeffschriber/src/psi4-debug-install/share/psi4/basis/cc-pvdz.gbs 


         ---------------------------------------------------------
                                   SCF
            by Justin Turney, Rob Parrish, Andy Simmonett
                             and Daniel Smith
                              RHF Reference
                        1 Threads,    476 MiB Core
         ---------------------------------------------------------

  ==> Geometry <==

    Molecular point group: d2h
    Full point group: D_inf_h

    Geometry (in Angstrom), charge = 0, multiplicity = 1:

       Center              X                  Y                   Z               Mass       
    ------------   -----------------  -----------------  -----------------  -----------------
         N            0.000000000000     0.000000000000    -0.550000000000    14.003074004780
         N            0.000000000000     0.000000000000     0.550000000000    14.003074004780

  Running in d2h symmetry.

  Rotational constants: A = ************  B =      1.98984  C =      1.98984 [cm^-1]
  Rotational constants: A = ************  B =  59653.84489  C =  59653.84489 [MHz]
  Nuclear repulsion =   23.572439384390908

  Charge       = 0
  Multiplicity = 1
  Electrons    = 14
  Nalpha       = 7
  Nbeta        = 7

  ==> Algorithm <==

  SCF Algorithm Type is PK.
  DIIS enabled.
  MOM disabled.
  Fractional occupation disabled.
  Guess Type is SAD.
  Energy threshold   = 1.00e-13
  Density threshold  = 1.00e-12
  Integral threshold = 0.00e+00

  ==> Primary Basis <==

  Basis Set: CC-PVDZ
    Blend: CC-PVDZ
    Number of shells: 12
    Number of basis function: 28
    Number of Cartesian functions: 30
    Spherical Harmonics?: true
    Max angular momentum: 2

  ==> Pre-Iterations <==

   -------------------------------------------------------
    Irrep   Nso     Nmo     Nalpha   Nbeta   Ndocc  Nsocc
   -------------------------------------------------------
     Ag         7       7       0       0       0       0
     B1g        1       1       0       0       0       0
     B2g        3       3       0       0       0       0
     B3g        3       3       0       0       0       0
     Au         1       1       0       0       0       0
     B1u        7       7       0       0       0       0
     B2u        3       3       0       0       0       0
     B3u        3       3       0       0       0       0
   -------------------------------------------------------
    Total      28      28       7       7       7       0
   -------------------------------------------------------

  ==> Integral Setup <==

  Using in-core PK algorithm.
   Calculation information:
      Number of atoms:                   2
      Number of AO shells:              12
      Number of primitives:             44
      Number of atomic orbitals:        30
      Number of basis functions:        28

      Integral cutoff                 1.00e-12
      Number of threads:                 1

  Performing in-core PK
  Using 165242 doubles for integral storage.
  We computed 3081 shell quartets total.
  Whereas there are 3081 unique shell quartets.

  ==> DiskJK: Disk-Based J/K Matrices <==

    J tasked:                  Yes
    K tasked:                  Yes
    wK tasked:                  No
    Memory [MiB]:              357
    Schwarz Cutoff:          1E-12

    OpenMP threads:              1

  Minimum eigenvalue in the overlap matrix is 6.1906035204E-03.
  Using Symmetric Orthogonalization.

  SCF Guess: Superposition of Atomic Densities via on-the-fly atomic UHF.

  ==> Iterations <==

                        Total Energy        Delta E     RMS |[F,P]|

   @RHF iter   0:  -109.06317264869460   -1.09063e+02   1.99199e-01 
   @RHF iter   1:  -108.94040835858537    1.22764e-01   1.40178e-02 
   @RHF iter   2:  -108.95298248180461   -1.25741e-02   3.22382e-03 DIIS
   @RHF iter   3:  -108.95373807758774   -7.55596e-04   7.85290e-04 DIIS
   @RHF iter   4:  -108.95379597784658   -5.79003e-05   5.65254e-05 DIIS
   @RHF iter   5:  -108.95379623483981   -2.56993e-07   7.43723e-06 DIIS
   @RHF iter   6:  -108.95379624065112   -5.81130e-09   1.11713e-06 DIIS
   @RHF iter   7:  -108.95379624081102   -1.59901e-10   1.03468e-07 DIIS
   @RHF iter   8:  -108.95379624081207   -1.05160e-12   5.48866e-09 DIIS
   @RHF iter   9:  -108.95379624081214   -7.10543e-14   5.98923e-10 DIIS
   @RHF iter  10:  -108.95379624081212    1.42109e-14   6.71844e-11 DIIS
   @RHF iter  11:  -108.95379624081221   -8.52651e-14   2.98835e-12 DIIS
   @RHF iter  12:  -108.95379624081218    2.84217e-14   2.36298e-13 DIIS
  Energy converged.


  ==> Post-Iterations <==

    Orbital Energies [Eh]
    ---------------------

    Doubly Occupied:                                                      

       1Ag   -15.687167     1B1u  -15.683810     2Ag    -1.469497  
       2B1u   -0.774851     3Ag    -0.626026     1B3u   -0.607175  
       1B2u   -0.607175  

    Virtual:                                                              

       1B2g    0.174428     1B3g    0.174428     3B1u    0.593893  
       4Ag     0.820946     2B2u    0.872872     2B3u    0.872872  
       5Ag     0.991969     2B2g    1.050510     2B3g    1.050510  
       4B1u    1.140849     5B1u    1.640840     1B1g    1.758149  
       6Ag     1.758149     3B3u    1.879691     3B2u    1.879691  
       1Au     2.297394     6B1u    2.297394     7Ag     2.871857  
       3B2g    2.993863     3B3g    2.993863     7B1u    3.278667  

    Final Occupation by Irrep:
             Ag   B1g   B2g   B3g    Au   B1u   B2u   B3u 
    DOCC [     3,    0,    0,    0,    0,    2,    1,    1 ]

  @RHF Final Energy:  -108.95379624081218

   => Energetics <=

    Nuclear Repulsion Energy =             23.5724393843909077
    One-Electron Energy =                -194.1410688522752821
    Two-Electron Energy =                  61.6148332270721824
    Total Energy =                       -108.9537962408121814

Computation Completed


Properties will be evaluated at   0.000000,   0.000000,   0.000000 [a0]

Properties computed using the SCF density matrix

  Nuclear Dipole Moment: [e a0]
     X:     0.0000      Y:     0.0000      Z:     0.0000

  Electronic Dipole Moment: [e a0]
     X:     0.0000      Y:     0.0000      Z:     0.0000

  Dipole Moment: [e a0]
     X:     0.0000      Y:     0.0000      Z:     0.0000     Total:     0.0000

  Dipole Moment: [D]
     X:     0.0000      Y:     0.0000      Z:     0.0000     Total:     0.0000


*** tstop() called on jeffschriber at Thu Oct 25 15:42:35 2018
Module time:
	user time   =       0.56 seconds =       0.01 minutes
	system time =       0.03 seconds =       0.00 minutes
	total time  =          1 seconds =       0.02 minutes
Total time:
	user time   =       0.56 seconds =       0.01 minutes
	system time =       0.03 seconds =       0.00 minutes
	total time  =          1 seconds =       0.02 minutes
	SCF energy........................................................PASSED
   => Loading Basis Set <=

    Name: STO-3G
    Role: ORBITAL
    Keyword: MINAO_BASIS
    atoms 1-2 entry N          line    71 file /Users/jeffschriber/src/psi4-debug-install/share/psi4/basis/sto-3g.gbs 


Reading options from the FORTE block
Calling plugin forte.so.



  Forte
  ----------------------------------------------------------------------------
  A suite of quantum chemistry methods for strongly correlated electrons

    git branch: master - git commit: 9480afcf

  Developed by:
    Francesco A. Evangelista, Chenyang Li, Kevin P. Hannon,
    Jeffrey B. Schriber, Tianyuan Zhang, Chenxi Cai
  ----------------------------------------------------------------------------

  Size of Determinant class: 16

  ==> MO Space Information <==

  Read options for space FROZEN_DOCC
  Read options for space RESTRICTED_DOCC
  Read options for space ACTIVE
  -------------------------------------------------------------------------
                       Ag   B1g   B2g   B3g    Au   B1u   B2u   B3u   Sum
  -------------------------------------------------------------------------
    FROZEN_DOCC         0     0     0     0     0     0     0     0     0
    RESTRICTED_DOCC     2     0     0     0     0     2     0     0     4
    ACTIVE              1     0     1     1     0     1     1     1     6
    RESTRICTED_UOCC     4     1     2     2     1     4     2     2    18
    FROZEN_UOCC         0     0     0     0     0     0     0     0     0
    Total               7     1     3     3     1     7     3     3    28
  -------------------------------------------------------------------------

  ==> Integral Transformation <==

  Number of molecular orbitals:                    28
  Number of correlated molecular orbitals:         28
  Number of frozen occupied orbitals:               0
  Number of frozen unoccupied orbitals:             0
  Two-electron integral type:              Conventional


  Overall Conventional Integrals timings

	Presorting SO-basis two-electron integrals.
	Sorting File: SO Ints (nn|nn) nbuckets = 1
	Transforming the one-electron integrals and constructing Fock matrices
	Starting first half-transformation.
	Sorting half-transformed integrals.
	First half integral transformation complete.
	Starting second half-transformation.
	Two-electron integral transformation complete.

  Integral transformation done. 0.02754074 s
  Reading the two-electron integrals from disk
  Size of two-electron integrals:   0.013739 GB
  Timing for freezing core and virtual orbitals:              0.000 s.
  Conventional integrals take 0.20193726 s
  Number of active alpha electrons: 3
  Number of active beta electrons: 3
  Maximum reference space size: 1000
  Number of reference determinants: 56
  Reference generated from 6 MOs

        ---------------------------------------------------------------
                      Adaptive Configuration Interaction
          written by Jeffrey B. Schriber and Francesco A. Evangelista
        ---------------------------------------------------------------

  ==> Reference Information <==

  There are 4 frozen orbitals.
  There are 6 active orbitals.

  ==> Calculation Information <==

  -----------------------------------------------------------------
    Multiplicity                             1    
    Symmetry                                 0    
    Number of roots                          1    
    Root used for properties                 0    
    Sigma (Eh)                               0.00e+00
    Gamma (Eh^(-1))                          1.00e+00
    Convergence threshold                    1.00e-09
    Ms                                       0
    Diagonalization algorithm                SOLVER
    Determinant selection criterion          Second-order Energy
    Selection criterion                      Aimed selection
    Excited Algorithm                        ROOT_ORTHOGONALIZE
    Project out spin contaminants            True
    Enforce spin completeness of basis       True
    Enforce complete aimed selection         True
  -----------------------------------------------------------------
  Using 1 threads
  Computing wavefunction for root 0
  Using streamlined Q-space builder.

  ==> Cycle 0 <==

  Initial P space dimension: 56
  Spin-complete dimension of the P space: 56 determinants

  ==> Computing Coupling Lists <==
  --------------------------------
        α          0.000244 s
        β          0.000226 s
        αα         0.000248 s
        ββ         0.000276 s
        αβ         0.000585 s
  --------------------------------
  Time spent diagonalizing H:   0.001096 s

    P-space  CI Energy Root   0        = -109.021904986349 Eh =   0.0000 eV

  Time spent forming F space:             0.000509
  Time spent merging thread F spaces:             0.000040
  Time spent preparing PQ_space: 0.000023
  Dimension of the SD space: 0 determinants
  Time spent building the external space (default): 0.000616 s

  Time spent building sorting list: 0.000002
  Time spent sorting: 0.000002
  Time spent selecting: 0.000000
  Dimension of the P + Q space: 56 determinants
  Time spent screening the model space: 0.000034 s
  Time spent building the model space: 0.000688
  Spin-complete dimension of the PQ space: 56

  ==> Computing Coupling Lists <==
  --------------------------------
        α          0.000235 s
        β          0.000225 s
        αα         0.000213 s
        ββ         0.000209 s
        αβ         0.000512 s
  --------------------------------
  Total time spent diagonalizing H:   0.001023 s

    PQ-space CI Energy Root   0        = -109.021904986349 Eh =   0.0000 eV
    PQ-space CI Energy + EPT2 Root   0 = -109.021904986349 Eh =   0.0000 eV


  Most important contributions to root   0:
    0  -0.972838 0.946414613          55 |200022>
    1   0.119307 0.014234053          49 |202002>
    2   0.119307 0.014234053          42 |220020>
    3  -0.079464 0.006314463          48 |2-+0-+>
    4  -0.079464 0.006314463          43 |2+-0+->
    5  -0.054910 0.003015097          35 |2++0-->
    6  -0.054910 0.003015097          54 |2--0++>
    7   0.036480 0.001330790          24 |002022>
    8   0.036480 0.001330790          26 |020022>
    9  -0.032828 0.001077683          34 |222000>

  Spin state for root 0: S^2 = 0.000000, S = 0.000, singlet
  Cycle 0 took: 0.006999 s

  ==> Cycle 1 <==

  Initial P space dimension: 56
  Spin-complete dimension of the P space: 56 determinants

  ==> Computing Coupling Lists <==
  --------------------------------
        α          0.000246 s
        β          0.000225 s
        αα         0.000217 s
        ββ         0.000210 s
        αβ         0.000516 s
  --------------------------------
  Time spent diagonalizing H:   0.001103 s

    P-space  CI Energy Root   0        = -109.021904986349 Eh =   0.0000 eV

  Time spent forming F space:             0.000499
  Time spent merging thread F spaces:             0.000024
  Time spent preparing PQ_space: 0.000018
  Dimension of the SD space: 0 determinants
  Time spent building the external space (default): 0.000581 s

  Time spent building sorting list: 0.000001
  Time spent sorting: 0.000000
  Time spent selecting: 0.000000
  Dimension of the P + Q space: 56 determinants
  Time spent screening the model space: 0.000029 s
  Time spent building the model space: 0.000643
  Spin-complete dimension of the PQ space: 56

  ==> Computing Coupling Lists <==
  --------------------------------
        α          0.000231 s
        β          0.000229 s
        αα         0.000216 s
        ββ         0.000209 s
        αβ         0.000520 s
  --------------------------------
  Total time spent diagonalizing H:   0.001067 s

    PQ-space CI Energy Root   0        = -109.021904986349 Eh =   0.0000 eV
    PQ-space CI Energy + EPT2 Root   0 = -109.021904986349 Eh =   0.0000 eV

  ***** Calculation Converged *****
  Saving root 0, ref_root is 0
  Number of old roots: 1

  ==> ACI Summary <==

  Iterations required:                         1
  Dimension of optimized determinant space:    56

  * Adaptive-CI Energy Root   0        = -109.021904986349 Eh =   0.0000 eV
  * Adaptive-CI Energy Root   0 + EPT2 = -109.021904986349 Eh =   0.0000 eV

  ==> Wavefunction Information <==

  Most important contributions to root   0:
    0   0.972838 0.946414613          55 |200022>
    1  -0.119307 0.014234053          54 |202002>
    2  -0.119307 0.014234053          53 |220020>
    3   0.079464 0.006314463          52 |2-+0-+>
    4   0.079464 0.006314463          51 |2+-0+->
    5   0.054910 0.003015097          50 |2++0-->
    6   0.054910 0.003015097          49 |2--0++>
    7  -0.036480 0.001330790          48 |002022>
    8  -0.036480 0.001330790          47 |020022>
    9   0.032828 0.001077683          46 |222000>

  Spin state for root 0: S^2 = 0.000000, S = 0.000, singlet
  Computing 3-list...     done (0.00122 s)

  ==> Computing Coupling Lists <==
  --------------------------------
        α          0.000231 s
        β          0.000227 s
        αα         0.000215 s
        ββ         0.000210 s
        αβ         0.000520 s
  --------------------------------
  1-RDM  took 0.000165 s (determinant)

  ==> NATURAL ORBITALS <==

        1Ag     1.993501      1B3u    1.948472      1B2u    1.948472  
        1B3g    0.054188      1B2g    0.054188      1B1u    0.001179  


  2-RDMS took 0.000158 s (determinant)
  3-RDMs took 0.002077 s (determinant)
  RDMS took 0.005366

  Adaptive-CI ran in : 0.019472 s

  Saving information for root: 0
  energy: -109.021904986

       -----------------------------------------------------------------
                            Semi-Canonical Orbitals
         Chenyang Li, Jeffrey B. Schriber and Francesco A. Evangelista
       -----------------------------------------------------------------

  Took 0.001145 s to build Fock matrix

  ==> Checking Fock Matrix Diagonal Blocks <==

    Off-Diag. Elements       Max           2-Norm
    ------------------------------------------------
    Fa actv              0.0000000000   0.0000000000
    Fb actv              0.0000000000   0.0000000000
    ------------------------------------------------
    Fa core              0.0002590990   0.0003664619
    Fb core              0.0002590990   0.0003664619
    ------------------------------------------------
    Fa virt              0.0029051467   0.0075863454
    Fb virt              0.0029051467   0.0075863454
    ------------------------------------------------

  ==> Integral Transformation to Semicanonical Basis <==

 Integrals are about to be computed.	Presorting SO-basis two-electron integrals.
	Sorting File: SO Ints (nn|nn) nbuckets = 1
	Transforming the one-electron integrals and constructing Fock matrices
	Starting first half-transformation.
	Sorting half-transformed integrals.
	First half integral transformation complete.
	Starting second half-transformation.
	Two-electron integral transformation complete.

  Integral transformation done. 0.02473265 s
  Reading the two-electron integrals from disk
  Size of two-electron integrals:   0.013739 GB
 Integrals are about to be updated.
  Timing for freezing core and virtual orbitals:              0.000 s.

  ==> Reference Transformation to Semicanonical Basis <==

    Transformed 1 cumulants.
    Transformed 2 cumulants and RDMs.
    Transformed 3 cumulants.
  SemiCanonicalize takes 0.489823 s.

  ==> Multireference Driven Similarity Renormalization Group <==

    Reading DSRG options ............................ Done
    Setting ambit MO space .......................... Done
    Preparing tensors for density cumulants ......... Done
    Building Fock matrix ............................ Done
    Checking reference energy ....................... Done

              ----------------------------------------------------
                    MR-DSRG Second-Order Perturbation Theory
                Chenyang Li, Kevin Hannon, Francesco Evangelista
              ----------------------------------------------------

    References:
      u-DSRG-MRPT2:    J. Chem. Theory Comput. 2015, 11, 2097.
      (pr-)DSRG-MRPT2: J. Chem. Phys. 2017, 146, 124132.

  ==> Calculation Information <==

    ntamp                                                 15
    flow parameter                                 1.000e+00
    taylor expansion threshold                     1.000e-03
    intruder_tamp                                  1.000e-01
    int_type                                    CONVENTIONAL
    source operator                                 STANDARD
    reference relaxation                                NONE
    state_type                                STATE-SPECIFIC
    form Hbar3                                         FALSE

  ==> Checking Semicanonical Orbitals <==

    Abs. max of Fock core, active, virtual blocks (Fij, i != j)
                  core          active         virtual
    --------------------------------------------------
    Fα    0.0000000000    0.0000000000    0.0000000000
    Fβ    0.0000000000    0.0000000000    0.0000000000
    --------------------------------------------------

    1-Norm of Fock core, active, virtual blocks (Fij, i != j)
                  core          active         virtual
    --------------------------------------------------
    Fα    0.0000000000    0.0000000000    0.0000000000
    Fβ    0.0000000000    0.0000000000    0.0000000000
    --------------------------------------------------

    Orbitals are semi-canonicalized.

  ==> Computing DSRG-MRPT2 ... <==

    Computing T2 amplitudes                  ...  Done. Timing        0.010616 s
    Computing T1 amplitudes                  ...  Done. Timing        0.001302 s
    Renormalizing two-electron integrals     ...  Done. Timing        0.009515 s
    Renormalizing Fock matrix elements       ...  Done. Timing        0.001359 s
    Computing <[F, T1]>                      ...  Done. Timing        0.000672 s
    Computing <[F, T2]>                      ...  Done. Timing        0.001507 s
    Computing <[V, T1]>                      ...  Done. Timing        0.001485 s
    Computing <[V, T2]> (C_2)^4              ...  Done. Timing        0.010121 s
    Computing <[V, T2]> C_4 (C_2)^2 HH       ...  Done. Timing        0.002205 s
    Computing <[V, T2]> C_4 (C_2)^2 PP       ...  Done. Timing        0.002409 s
    Computing <[V, T2]> C_4 (C_2)^2 PH       ...  Done. Timing        0.010065 s
    Computing <[V, T2]> C_6 C_2              ...  Done. Timing        0.009803 s

  ==> Excitation Amplitudes Summary <==

    Active Indices:    2    8   11   17   22   25 
    Largest T1 amplitudes for spin case A:
       i       a                  i       a                  i       a               
    --------------------------------------------------------------------------------
    [  8       9    ]-0.002213 [ 11      12    ]-0.002213 [  1       2    ] 0.001857 
    [ 16      17    ] 0.001391 [  2       3    ]-0.001314 [ 17      19    ] 0.001153 
    [ 17      18    ] 0.001122 [ 16      18    ] 0.000976 [  1       3    ]-0.000946 
    [ 11      13    ] 0.000878 [  8      10    ] 0.000878 [  2       6    ]-0.000698 
    [  1       4    ]-0.000609 [ 16      19    ] 0.000476 [ 22      23    ]-0.000388 
    --------------------------------------------------------------------------------
    Norm of T1A vector: (nonzero elements: 30)                    0.004956654603221.
    --------------------------------------------------------------------------------
    Largest T1 amplitudes for spin case B:
       _       _                  _       _                  _       _               
       i       a                  i       a                  i       a               
    --------------------------------------------------------------------------------
    [  8       9    ]-0.002213 [ 11      12    ]-0.002213 [  1       2    ] 0.001857 
    [ 16      17    ] 0.001391 [  2       3    ]-0.001314 [ 17      19    ] 0.001153 
    [ 17      18    ] 0.001122 [ 16      18    ] 0.000976 [  1       3    ]-0.000946 
    [ 11      13    ] 0.000878 [  8      10    ] 0.000878 [  2       6    ]-0.000698 
    [  1       4    ]-0.000609 [ 16      19    ] 0.000476 [ 22      23    ]-0.000388 
    --------------------------------------------------------------------------------
    Norm of T1B vector: (nonzero elements: 30)                    0.004956654603221.
    --------------------------------------------------------------------------------
    Largest T2 amplitudes for spin case AA:
       i   j   a   b              i   j   a   b              i   j   a   b           
    --------------------------------------------------------------------------------
    [  8  22   9  22] 0.070463 [ 11  25  12  25] 0.070463 [  2   8   2   9] 0.067899 
    [  2  11   2  12] 0.067899 [ 16  22   2  11]-0.062240 [ 16  25   2   8]-0.062240 
    [ 22  25  22  26] 0.061462 [ 22  25  23  25] 0.061462 [  2  25   2  26] 0.060190 
    [  2  22   2  23] 0.060190 [  8  11   9  11] 0.058323 [  8  11   8  12] 0.058323 
    [  2   8  18  25] 0.051671 [  2  11  18  22] 0.051671 [ 11  16   2  22]-0.050878 
    --------------------------------------------------------------------------------
    Norm of T2AA vector: (nonzero elements: 5932)                 0.832373076549876.
    --------------------------------------------------------------------------------
    Largest T2 amplitudes for spin case AB:
           _       _                  _       _                  _       _           
       i   j   a   b              i   j   a   b              i   j   a   b           
    --------------------------------------------------------------------------------
    [ 16  22   2  11]-0.082590 [ 16  25   2   8]-0.082590 [  8  25   9  25] 0.081294 
    [ 11  22  12  22] 0.081294 [  8  22   9  22] 0.074232 [ 11  25  12  25] 0.074232 
    [  2   8   2   9] 0.072426 [  2  11   2  12] 0.072426 [ 25  25  25  26] 0.068417 
    [ 22  22  22  23] 0.068417 [  8   8   8   9] 0.064996 [ 11  11  11  12] 0.064996 
    [ 22  25  22  26] 0.063781 [ 22  25  23  25] 0.063781 [  2  25   2  26] 0.061571 
    --------------------------------------------------------------------------------
    Norm of T2AB vector: (nonzero elements: 7032)                 0.813242188137175.
    --------------------------------------------------------------------------------
    Largest T2 amplitudes for spin case BB:
       _   _   _   _              _   _   _   _              _   _   _   _           
       i   j   a   b              i   j   a   b              i   j   a   b           
    --------------------------------------------------------------------------------
    [  8  22   9  22] 0.070463 [ 11  25  12  25] 0.070463 [  2   8   2   9] 0.067899 
    [  2  11   2  12] 0.067899 [ 16  22   2  11]-0.062240 [ 16  25   2   8]-0.062240 
    [ 22  25  22  26] 0.061462 [ 22  25  23  25] 0.061462 [  2  25   2  26] 0.060190 
    [  2  22   2  23] 0.060190 [  8  11   9  11] 0.058323 [  8  11   8  12] 0.058323 
    [  2  11  18  22] 0.051671 [  2   8  18  25] 0.051671 [ 11  16   2  22]-0.050878 
    --------------------------------------------------------------------------------
    Norm of T2BB vector: (nonzero elements: 5932)                 0.832373076549876.
    --------------------------------------------------------------------------------

  ==> Possible Intruders <==

    T1 amplitudes larger than 0.1000 for spin case A: NULL
    T1 amplitudes larger than 0.1000 for spin case B: NULL
    T2 amplitudes larger than 0.1000 for spin case AA: NULL
    T2 amplitudes larger than 0.1000 for spin case AB: NULL
    T2 amplitudes larger than 0.1000 for spin case BB: NULL

  ==> DSRG-MRPT2 Energy Summary <==

    E0 (reference)                 =   -109.021904986349270
    <[F, T1]>                      =     -0.000032540530225
    <[F, T2]>                      =     -0.000142974997433
    <[V, T1]>                      =     -0.000183449367477
    <[V, T2]> (C_2)^4              =     -0.265077051250906
    <[V, T2]> C_4 (C_2)^2 HH       =      0.003649984963547
    <[V, T2]> C_4 (C_2)^2 PP       =      0.015969073522428
    <[V, T2]> C_4 (C_2)^2 PH       =      0.017514144558221
    <[V, T2]> C_6 C_2              =     -0.000208923088569
    <[V, T2]>                      =     -0.228152771295280
    DSRG-MRPT2 correlation energy  =     -0.228511736190414
    DSRG-MRPT2 total energy        =   -109.250416722539683
    max(T1)                        =      0.002213438635854
    max(T2)                        =      0.082590061794296
    ||T1||                         =      0.007009768163874
    ||T2||                         =      2.007770231723434

  Energy took      0.084 s


  ==> Total Timings (s) for Computing Commutators <==

             [H1, T1]    [H1, T2]    [H2, T1]    [H2, T2]
    -----------------------------------------------------
    -> C0       0.001       0.002       0.002       0.035
    -> C1       0.000       0.000       0.000       0.000
    -> C2                   0.000       0.000       0.000
    -----------------------------------------------------
	DSRG-MRPT2 energy.................................................PASSED

    Psi4 stopped on: Thursday, 25 October 2018 03:42PM
    Psi4 wall time for execution: 0:00:01.61

*** Psi4 exiting successfully. Buy a developer a beer!
