
    -----------------------------------------------------------------------
          Psi4: An Open-Source Ab Initio Electronic Structure Package
                               Psi4 1.2a1.dev491 

                         Git: Rev {master} 09b4ef6 


    R. M. Parrish, L. A. Burns, D. G. A. Smith, A. C. Simmonett,
    A. E. DePrince III, E. G. Hohenstein, U. Bozkaya, A. Yu. Sokolov,
    R. Di Remigio, R. M. Richard, J. F. Gonthier, A. M. James,
    H. R. McAlexander, A. Kumar, M. Saitow, X. Wang, B. P. Pritchard,
    P. Verma, H. F. Schaefer III, K. Patkowski, R. A. King, E. F. Valeev,
    F. A. Evangelista, J. M. Turney, T. D. Crawford, and C. D. Sherrill,
    J. Chem. Theory Comput. 13(7) pp 3185--3197 (2017).
    (doi: 10.1021/acs.jctc.7b00174)

    -----------------------------------------------------------------------


    Psi4 started on: Friday, 18 August 2017 02:03AM

    Process ID:  22055
    PSIDATADIR: /Users/york/src/psi4new/psi4/share/psi4
    Memory:     500.0 MiB
    Threads:    1
    
  ==> Input File <==

--------------------------------------------------------------------------
#! Generated using commit GITCOMMIT

import forte

refcasscf    = -112.881481489535673
refpt2       = -113.105649496912605
refpt2_relax = -113.108902745248486
refdm        =    0.078155
refdm_relax  =    0.008671

molecule CO{
  0 1
  C
  O  1 1.128
}

set {
  basis                  cc-pcvdz
  reference              rhf
  scf_type               out_of_core
  maxiter                300
  e_convergence          10
  d_convergence          8
  docc                   [5,0,1,1]
  restricted_docc        [2,0,0,0]
  active                 [4,0,2,2]
  mcscf_maxiter          100
  mcscf_r_convergence    8
  mcscf_e_convergence    10
  mcscf_diis_start       6
}

Ecasscf, wfn_cas = energy('casscf', return_wfn=True)
compare_values(refcasscf,get_variable("CURRENT ENERGY"),10,"CASSCF energy")

set forte {
  job_type           dsrg-mrpt2
  frozen_docc        [0,0,0,0]
  frozen_uocc        [0,0,0,0]
  restricted_docc    [2,0,0,0]
  active             [4,0,2,2]
  root_sym           0
  nroot              1
  dsrg_s             0.5
  relax_ref          once
  cas_type           cas
  dsrg_dipole        true
}

Eforte, wfn_cas = energy('forte', ref_wfn=wfn_cas, return_wfn=True)
compare_values(refpt2,get_variable("UNRELAXED ENERGY"),9,"DSRG-MRPT2 unrelaxed energy")
compare_values(refpt2_relax,get_variable("PARTIALLY RELAXED ENERGY"),9,"DSRG-MRPT2 partially relaxed energy")
compare_values(refdm,get_variable("UNRELAXED DIPOLE"),5,"DSRG-MRPT2 unrelaxed dipole moment")
compare_values(refdm_relax,get_variable("PARTIALLY RELAXED DIPOLE"),5,"DSRG-MRPT2 partially relaxed dipole moment")
--------------------------------------------------------------------------

*** tstart() called on Yorks-Mac.local
*** at Fri Aug 18 02:03:46 2017

   => Loading Basis Set <=

    Name: CC-PCVDZ
    Role: ORBITAL
    Keyword: BASIS
    atoms 1 entry C          line   170 file /Users/york/src/psi4new/psi4/share/psi4/basis/cc-pcvdz.gbs 
    atoms 2 entry O          line   238 file /Users/york/src/psi4new/psi4/share/psi4/basis/cc-pcvdz.gbs 


         ---------------------------------------------------------
                                   SCF
            by Justin Turney, Rob Parrish, Andy Simmonett
                             and Daniel Smith
                              RHF Reference
                        1 Threads,    500 MiB Core
         ---------------------------------------------------------

  ==> Geometry <==

    Molecular point group: c2v
    Full point group: C_inf_v

    Geometry (in Angstrom), charge = 0, multiplicity = 1:

       Center              X                  Y                   Z               Mass       
    ------------   -----------------  -----------------  -----------------  -----------------
           C          0.000000000000     0.000000000000    -0.644483611972    12.000000000000
           O          0.000000000000     0.000000000000     0.483516388028    15.994914619560

  Running in c2v symmetry.

  Rotational constants: A = ************  B =      1.93239  C =      1.93239 [cm^-1]
  Rotational constants: A = ************  B =  57931.52643  C =  57931.52643 [MHz]
  Nuclear repulsion =   22.518179088936165

  Charge       = 0
  Multiplicity = 1
  Electrons    = 14
  Nalpha       = 7
  Nbeta        = 7

  ==> Algorithm <==

  SCF Algorithm Type is OUT_OF_CORE.
  DIIS enabled.
  MOM disabled.
  Fractional occupation disabled.
  Guess Type is SAD.
  Energy threshold   = 1.00e-10
  Density threshold  = 1.00e-08
  Integral threshold = 0.00e+00

  ==> Primary Basis <==

  Basis Set: CC-PCVDZ
    Blend: CC-PCVDZ
    Number of shells: 16
    Number of basis function: 36
    Number of Cartesian functions: 38
    Spherical Harmonics?: true
    Max angular momentum: 2

  ==> Pre-Iterations <==

   -------------------------------------------------------
    Irrep   Nso     Nmo     Nalpha   Nbeta   Ndocc  Nsocc
   -------------------------------------------------------
     A1        18      18       5       5       5       0
     A2         2       2       0       0       0       0
     B1         8       8       1       1       1       0
     B2         8       8       1       1       1       0
   -------------------------------------------------------
    Total      36      36       7       7       7       0
   -------------------------------------------------------

  ==> Integral Setup <==

  ==> DiskJK: Disk-Based J/K Matrices <==

    J tasked:                  Yes
    K tasked:                  Yes
    wK tasked:                  No
    Memory (MB):               375
    Schwarz Cutoff:          1E-12

  Minimum eigenvalue in the overlap matrix is 2.0505153938E-02.
  Using Symmetric Orthogonalization.

  SCF Guess: Superposition of Atomic Densities via on-the-fly atomic UHF.

  ==> Iterations <==

                        Total Energy        Delta E     RMS |[F,P]|

   @RHF iter   0:  -112.86980566136984   -1.12870e+02   1.15325e-01 
   @RHF iter   1:  -112.69367676852242    1.76129e-01   1.55838e-02 
   @RHF iter   2:  -112.72962108432937   -3.59443e-02   9.32525e-03 DIIS
   @RHF iter   3:  -112.74701796341482   -1.73969e-02   3.66865e-03 DIIS
   @RHF iter   4:  -112.74989641577440   -2.87845e-03   6.76047e-04 DIIS
   @RHF iter   5:  -112.75003740563946   -1.40990e-04   1.24983e-04 DIIS
   @RHF iter   6:  -112.75004303352654   -5.62789e-06   2.26527e-05 DIIS
   @RHF iter   7:  -112.75004327193852   -2.38412e-07   5.78722e-06 DIIS
   @RHF iter   8:  -112.75004330471836   -3.27798e-08   2.60319e-06 DIIS
   @RHF iter   9:  -112.75004331300835   -8.28999e-09   3.98110e-07 DIIS
   @RHF iter  10:  -112.75004331318102   -1.72676e-10   4.04937e-08 DIIS
   @RHF iter  11:  -112.75004331318179   -7.67386e-13   2.91931e-09 DIIS

  ==> Post-Iterations <==

    Orbital Energies (a.u.)
    -----------------------

    Doubly Occupied:                                                      

       1A1   -20.668890     2A1   -11.365963     3A1    -1.523140  
       4A1    -0.802554     1B1    -0.634873     1B2    -0.634873  
       5A1    -0.549177  

    Virtual:                                                              

       2B1     0.154401     2B2     0.154401     6A1     0.380852  
       3B2     0.670613     3B1     0.670613     7A1     0.701250  
       8A1     0.986742     9A1     1.059106     4B1     1.221623  
       4B2     1.221623     1A2     1.343977    10A1     1.343977  
       5B1     1.557876     5B2     1.557876    11A1     1.851977  
      12A1     2.296636     2A2     2.936755    13A1     2.936755  
       6B2     3.425935     6B1     3.425935    14A1     3.835986  
      15A1    19.382076     7B1    22.459965     7B2    22.459965  
      16A1    23.403736    17A1    34.440172     8B2    39.147618  
       8B1    39.147618    18A1    39.842295  

    Final Occupation by Irrep:
             A1    A2    B1    B2 
    DOCC [     5,    0,    1,    1 ]

  Energy converged.

  @RHF Final Energy:  -112.75004331318179

   => Energetics <=

    Nuclear Repulsion Energy =             22.5181790889361650
    One-Electron Energy =                -198.1775051676877695
    Two-Electron Energy =                  62.9092827655698201
    Total Energy =                       -112.7500433131817772



Properties will be evaluated at   0.000000,   0.000000,   0.000000 Bohr

Properties computed using the SCF density matrix

  Nuclear Dipole Moment: (a.u.)
     X:     0.0000      Y:     0.0000      Z:     0.0023

  Electronic Dipole Moment: (a.u.)
     X:     0.0000      Y:     0.0000      Z:    -0.0935

  Dipole Moment: (a.u.)
     X:     0.0000      Y:     0.0000      Z:    -0.0912     Total:     0.0912

  Dipole Moment: (Debye)
     X:     0.0000      Y:     0.0000      Z:    -0.2318     Total:     0.2318


*** tstop() called on Yorks-Mac.local at Fri Aug 18 02:03:47 2017
Module time:
	user time   =       0.62 seconds =       0.01 minutes
	system time =       0.04 seconds =       0.00 minutes
	total time  =          1 seconds =       0.02 minutes
Total time:
	user time   =       0.62 seconds =       0.01 minutes
	system time =       0.04 seconds =       0.00 minutes
	total time  =          1 seconds =       0.02 minutes
 MINTS: Wrapper to libmints.
   by Justin Turney

   Calculation information:
      Number of threads:                 1
      Number of atoms:                   2
      Number of AO shells:              16
      Number of SO shells:              16
      Number of primitives:             48
      Number of atomic orbitals:        38
      Number of basis functions:        36

      Number of irreps:                  4
      Integral cutoff                 1.00e-12
      Number of functions per irrep: [  18    2    8    8 ]

 OEINTS: Overlap, kinetic, potential, dipole, and quadrupole integrals
         stored in file 35.

      Computing two-electron integrals...done
      Computed 50826 non-zero two-electron integrals.
        Stored in file 33.


         ---------------------------------------------------------
                Multi-Configurational Self-Consistent Field
                            (a 'D E T C I' module)

                 Daniel G. A. Smith, C. David Sherrill, and
                              Matt L. Leininger
         ---------------------------------------------------------


   ==> Parameters <==

    EX LEVEL       =       10      H0 BLOCKSIZE  =     1000
    VAL EX LEVEL   =        0      H0 GUESS SIZE =     1000
    H0COUPLINGSIZE =        0      H0 COUPLING   =       NO
    MAXITER        =       12      NUM PRINT     =       20
    NUM ROOTS      =        1      ICORE         =        1
    PRINT LVL      =        1      FCI           =      YES
    R CONV         = 1.00e-07      MIXED         =      YES
    E CONV         = 1.00e-10      MIXED4        =      YES
    R4S            =       NO      REPL OTF      =       NO
    DIAG METHOD    =      SEM      FOLLOW ROOT   =        0
    PRECONDITIONER = DAVIDSON      UPDATE        = DAVIDSON
    S              =   0.0000      Ms0           =      YES
    GUESS VECTOR   =  H0BLOCK      OPENTYPE      =     NONE
    COLLAPSE SIZE  =        1      HD AVG        = EVANGELISTI
    MAX NUM VECS   =       13      REF SYM       =     AUTO
    IOPEN        =       NO

    EX ALLOW       =  1  1  1  1  1  1  1  1  1  1 
    STATE AVERAGE  =  0(1.00) 

   ==> CI Orbital and Space information <==

   ------------------------------------------------------
               Space    Total    A1    A2    B1    B2
   ------------------------------------------------------
                 Nso       36    18     2     8     8
                 Nmo       36    18     2     8     8
               Ndocc        7     5     0     1     1
               Nsocc        0     0     0     0     0
   ------------------------------------------------------
                        MCSCF Spaces
   ------------------------------------------------------
         Frozen DOCC        0     0     0     0     0
     Restricted DOCC        2     2     0     0     0
              Active        8     4     0     2     2
     Restricted UOCC       26    12     2     6     6
         Frozen UOCC        0     0     0     0     0
   ------------------------------------------------------

   ==> Setting up CI strings <==

    There are 56 alpha and 56 beta strings
    The CI space requires 792 (7.92E+02) determinants and 4 blocks

   ==> Setting up MCSCF integrals <==

  ==> DiskJK: Disk-Based J/K Matrices <==

    J tasked:                  Yes
    K tasked:                  Yes
    wK tasked:                  No
    Memory (MB):              3200
    Schwarz Cutoff:          1E-12


   ==> Starting MCSCF iterations <==

        Iter         Total Energy       Delta E   Orb RMS    CI RMS  NCI NORB
   @MCSCF  1:   -112.806427007236   -5.6384e-02  1.50e-02  7.78e-13    1    1  Initial CI
      Warning! Maxstep = 0.62, scaling to 0.50
   @MCSCF  2:   -112.856353094812   -4.9926e-02  1.17e-02  1.32e-05    9    1  TS
   @MCSCF  3:   -112.874656255774   -1.8303e-02  5.85e-03  6.29e-06    9    1  TS
   @MCSCF  4:   -112.879498641396   -4.8424e-03  3.13e-03  2.81e-06    9    1  TS
   @MCSCF  5:   -112.880865657359   -1.3670e-03  1.75e-03  1.48e-06    9    1  TS
   @MCSCF  6:   -112.881274401275   -4.0874e-04  1.01e-03  7.06e-07    9    1  TS
   @MCSCF  7:   -112.881403830150   -1.2943e-04  5.84e-04  3.48e-07    9    1  TS, DIIS
   @MCSCF  8:   -112.881448168619   -4.4338e-05  3.53e-04  1.82e-07    9    1  TS, DIIS
   @MCSCF  9:   -112.881476206891   -2.8038e-05  9.94e-05  2.29e-07    9    1  TS, DIIS
   @MCSCF 10:   -112.881478589026   -2.3821e-06  9.95e-05  3.11e-08    9    1  TS, DIIS
   @MCSCF 11:   -112.881477153756    1.4353e-06  1.28e-04  3.03e-08   10    1  TS, DIIS
   @MCSCF 12:   -112.881479418338   -2.2646e-06  7.36e-05  3.75e-08    9    1  TS, DIIS
   @MCSCF 13:   -112.881480999295   -1.5810e-06  6.20e-05  2.24e-08   10    1  TS, DIIS
   @MCSCF 14:   -112.881481268899   -2.6960e-07  3.93e-05  4.28e-08    8    1  TS, DIIS
   @MCSCF 15:   -112.881481488542   -2.1964e-07  2.66e-06  2.21e-08    9    1  TS, DIIS
   @MCSCF 16:   -112.881481489325   -7.8234e-10  6.20e-07  1.43e-09    8    1  TS, DIIS
   @MCSCF 17:   -112.881481489500   -1.7559e-10  2.58e-07  4.16e-10    9    1  TS, DIIS
   @MCSCF 18:   -112.881481489526   -2.6176e-11  1.67e-07  1.08e-10    9    1  TS, DIIS
   @MCSCF 19:   -112.881481489540   -1.3529e-11  1.09e-07  6.66e-11    9    1  TS, DIIS
   @MCSCF 20:   -112.881481489545   -5.0306e-12  5.98e-08  7.67e-11    8    1  TS, DIIS
   @MCSCF 21:   -112.881481489547   -2.2169e-12  3.80e-08  4.05e-11    8    1  TS, DIIS
   @MCSCF 22:   -112.881481489548   -8.2423e-13  2.19e-08  2.44e-11    8    1  TS, DIIS
   @MCSCF 23:   -112.881481489548   -2.8422e-13  8.13e-09  2.13e-12   10    1  TS, DIIS

          @MCSCF has converged!

   @MCSCF Final Energy: -112.881481489548378

   Computing CI Semicanonical Orbitals

   ==> Energetics <==

    SCF energy =         -112.750043313181777
    Total MCSCF energy = -112.881481489548378

   ==> MCSCF root 0 information <==

    MCSCF Root 0 energy =  -112.881481489548378

   Active Space Natural occupation numbers:

        A1   1.997845        A1   1.990842        A1   1.981727
        B2   1.955182        B1   1.955182        B1   0.049771
        B2   0.049771        A1   0.019681

   The 20 most important determinants:

    *   1   -0.969892  (   12,   12)  3A1X 4A1X 5A1X 1B1X 1B2X 
    *   2    0.099841  (   16,   16)  3A1X 4A1X 5A1X 2B1X 1B2X 
    *   3    0.099841  (   20,   20)  3A1X 4A1X 5A1X 1B1X 2B2X 
    *   4    0.068896  (   16,   20)  3A1X 4A1X 5A1X 1B1B 2B1A 1B2A 2B2B 
    *   5    0.068896  (   20,   16)  3A1X 4A1X 5A1X 1B1A 2B1B 1B2B 2B2A 
    *   6    0.047848  (   12,   24)  3A1X 4A1X 5A1X 1B1A 2B1B 1B2A 2B2B 
    *   7    0.047848  (   24,   12)  3A1X 4A1X 5A1X 1B1B 2B1A 1B2B 2B2A 
    *   8    0.032264  (   30,   30)  3A1X 4A1X 1B1X 1B2X 2B2X 
    *   9    0.032264  (   43,   43)  3A1X 4A1X 1B1X 2B1X 1B2X 
    *  10    0.027682  (   14,   20)  3A1X 4A1B 5A1X 6A1A 1B1X 1B2A 2B2B 
    *  11    0.027682  (   20,   14)  3A1X 4A1A 5A1X 6A1B 1B1X 1B2B 2B2A 
    *  12    0.027682  (   14,   16)  3A1X 4A1B 5A1X 6A1A 1B1A 2B1B 1B2X 
    *  13    0.027682  (   16,   14)  3A1X 4A1A 5A1X 6A1B 1B1B 2B1A 1B2X 
    *  14    0.026396  (   15,   16)  3A1B 4A1X 5A1X 6A1A 1B1A 2B1B 1B2X 
    *  15    0.026396  (   16,   15)  3A1A 4A1X 5A1X 6A1B 1B1B 2B1A 1B2X 
    *  16    0.026396  (   15,   20)  3A1B 4A1X 5A1X 6A1A 1B1X 1B2A 2B2B 
    *  17    0.026396  (   20,   15)  3A1A 4A1X 5A1X 6A1B 1B1X 1B2B 2B2A 
    *  18    0.025230  (   31,   31)  3A1X 5A1X 1B1X 1B2X 2B2X 
    *  19    0.025230  (   44,   44)  3A1X 5A1X 1B1X 2B1X 1B2X 
    *  20    0.023787  (   14,   14)  3A1X 5A1X 6A1X 1B1X 1B2X 



Properties will be evaluated at   0.000000,   0.000000,   0.000000 Bohr

Properties computed using the CASSCF density matrix

  Nuclear Dipole Moment: (a.u.)
     X:     0.0000      Y:     0.0000      Z:     0.0023

  Electronic Dipole Moment: (a.u.)
     X:     0.0000      Y:     0.0000      Z:     0.1453

  Dipole Moment: (a.u.)
     X:     0.0000      Y:     0.0000      Z:     0.1476     Total:     0.1476

  Dipole Moment: (Debye)
     X:     0.0000      Y:     0.0000      Z:     0.3752     Total:     0.3752

	CASSCF energy.....................................................PASSED
   => Loading Basis Set <=

    Name: STO-3G
    Role: ORBITAL
    Keyword: MINAO_BASIS
    atoms 1 entry C          line    61 file /Users/york/src/psi4new/psi4/share/psi4/basis/sto-3g.gbs 
    atoms 2 entry O          line    81 file /Users/york/src/psi4new/psi4/share/psi4/basis/sto-3g.gbs 


Reading options from the FORTE block
Calling plugin forte.so.



  Forte
  ----------------------------------------------------------------------------
  A suite of quantum chemistry methods for strongly correlated electrons

    git branch: master - git commit: 4c12a0b8

  Developed by:
    Francesco A. Evangelista, Chenyang Li, Kevin P. Hannon,
    Jeffrey B. Schriber, Tianyuan Zhang, Chenxi Cai
  ----------------------------------------------------------------------------


  ==> MO Space Information <==

  Read options for space FROZEN_DOCC
  Read options for space RESTRICTED_DOCC
  Read options for space ACTIVE
  Read options for space FROZEN_UOCC
  -------------------------------------------------
                       A1    A2    B1    B2   Sum
  -------------------------------------------------
    FROZEN_DOCC         0     0     0     0     0
    RESTRICTED_DOCC     2     0     0     0     2
    ACTIVE              4     0     2     2     8
    RESTRICTED_UOCC    12     2     6     6    26
    FROZEN_UOCC         0     0     0     0     0
    Total              18     2     8     8    36
  -------------------------------------------------

  ==> Integral Transformation <==

  Number of molecular orbitals:               36
  Number of correlated molecular orbitals:    36
  Number of frozen occupied orbitals:          0
  Number of frozen unoccupied orbitals:        0


  Overall Conventional Integrals timings

	Presorting SO-basis two-electron integrals.
	Sorting File: SO Ints (nn|nn) nbuckets = 1
	Transforming the one-electron integrals and constructing Fock matrices
	Starting first half-transformation.
	Sorting half-transformed integrals.
	First half integral transformation complete.
	Starting second half-transformation.
	Two-electron integral transformation complete.

  Integral transformation done. 0.05720700 s
  Reading the two-electron integrals from disk
  Size of two-electron integrals:   0.037542 GB
  Conventional integrals take 0.34286100 s

              ---------------------------------------------------
                Complete Active Space Configuration Interaction
                                  Chenyang Li
              ---------------------------------------------------


  ==> Input Summary <==

    number of atoms                =     2
    number of electrons            =    14
    molecular charge               =     0
    number of alpha electrons      =     7
    number of beta electrons       =     7
    multiplicity                   =     1
    ms (2 * Sz)                    =     0
    number of molecular orbitals   =    36

  ==> Orbital Spaces <==

    TOTAL MO                      [   18     2     8     8 ]
    FROZEN CORE                   [    0     0     0     0 ]
    FROZEN VIRTUAL                [    0     0     0     0 ]
    CORRELATED MO                 [   18     2     8     8 ]
    CORE                          [    2     0     0     0 ]
    ACTIVE                        [    4     0     2     2 ]
    VIRTUAL                       [   12     2     6     6 ]
  Forming alpha and beta strings      ...  Done. Timing        0.000290 s
  Forming determinants                ...  Done. Timing        0.000714 s

  ==> Determinants Summary <==

    number of alpha active electrons    =     5
    number of beta active electrons     =     5
    root symmetry (zero based)          =     0
    number of determinants              =   792

  Diagonalizing Hamiltonian           ...
  Time spent building a_list   0.004679 s
  Time spent building b_list   0.004646 s
  Time spent building aa_list  0.007690 s
  Time spent building bb_list  0.007872 s
 Memory for AB_ann: 0.170 MB
  Time spent building ab_list  0.019524 s

  Davidson-Liu solver algorithm
  Using SPARSE sigma builder
  Initial guess space is incomplete.
  Trying to add 13 determinant(s).  13 determinant(s) added.
  Initial guess found 49 solutions with 2S+1 = 1 *
  Initial guess found 50 solutions with 2S+1 = 3  
  Initial guess found 13 solutions with 2S+1 = 5  
  Initial guess found 1 solutions with 2S+1 = 7  
  Adding guess 0 (multiplicity = 1.000000)
  Adding guess 1 (multiplicity = 1.000000)

  ==> Diagonalizing Hamiltonian <==

  ----------------------------------------
    Iter.      Avg. Energy       Delta_E
  ----------------------------------------
      1      -32.767684953279  -3.277e+01
      2      -32.796079846361  -2.839e-02
      3      -32.797301568497  -1.222e-03
      4      -32.797405011870  -1.034e-04
      5      -32.797434886148  -2.987e-05
      6      -32.797436692176  -1.806e-06
      7      -32.797436938131  -2.460e-07
      8      -32.797436976006  -3.788e-08
      9      -32.797436985656  -9.649e-09
     10      -32.797436986946  -1.291e-09
     11      -32.797436987161  -2.150e-10
     12      -32.797436987203  -4.167e-11
  ----------------------------------------
  The Davidson-Liu algorithm converged in 13 iterations.
  Davidson-Liu procedure took  0.153684 s  Done. Timing        0.208247 s

  * * * * * * * * * * * * * * * * *
  *  CI Vectors & Configurations  *
  * * * * * * * * * * * * * * * * *

  ==> Root No. 0 <==

    2220 20 20         -0.9698918249
    2220 20 02          0.0998398697
    2220 02 20          0.0998398678
    2220 ab ba          0.0688962044
    2220 ba ab          0.0688962044

    Total Energy:   -112.881481489535730



  ==> Permanent Dipole Moments (A1) <==

  Only print nonzero (> 1.0e-5) elements.
  Permanent dipole moments (a.u.) 0 -> 0:  X:  0.0000  Y:  0.0000  Z:  0.1476  Total:  0.1476

  Computing 1-, 2- and 3-cumulants ... Done. Timing        0.704248 s


       -----------------------------------------------------------------
                            Semi-Canonical Orbitals
         Chenyang Li, Jeffrey B. Schriber and Francesco A. Evangelista
       -----------------------------------------------------------------

  Took 0.006498 s to build Fock matrix

  ==> Checking Fock Matrix Diagonal Blocks <==

    Off-Diag. Elements       Max           2-Norm
    ------------------------------------------------
    Fa actv              0.0000010016   0.0000022455
    Fb actv              0.0000010016   0.0000022455
    ------------------------------------------------
    Fa core              0.0000000086   0.0000000122
    Fb core              0.0000000086   0.0000000122
    ------------------------------------------------
    Fa virt              0.0000004803   0.0000018184
    Fb virt              0.0000004803   0.0000018184
    ------------------------------------------------

  ==> Integral Transformation to Semicanonical Basis <==

 Integrals are about to be computed.	Presorting SO-basis two-electron integrals.
	Sorting File: SO Ints (nn|nn) nbuckets = 1
	Transforming the one-electron integrals and constructing Fock matrices
	Starting first half-transformation.
	Sorting half-transformed integrals.
	First half integral transformation complete.
	Starting second half-transformation.
	Two-electron integral transformation complete.

  Integral transformation done. 0.08720800 s
  Reading the two-electron integrals from disk
  Size of two-electron integrals:   0.037542 GB
 Integrals are about to be updated.
  Frozen Orbitals takes     0.000 s.

  ==> Reference Transformation to Semicanonical Basis <==

    Transformed 1 cumulants.
    Transformed 2 cumulants and RDMs.
    Transformed 3 cumulants.
  SemiCanonicalize takes 2.179895 s.

  ==> Multireference Driven Similarity Renormalization Group <==

    Reading DSRG options ...... Done
    Setting ambit MO space ...... Done
    Preparing tensors for density cumulants ...... Done
    Preparing ambit tensors for dipole moments ...... Done

              ----------------------------------------------------
                    MR-DSRG Second-Order Perturbation Theory
                Chenyang Li, Kevin Hannon, Francesco Evangelista
              ----------------------------------------------------

    References:
      u-DSRG-MRPT2:    J. Chem. Theory Comput. 2015, 11, 2097.
      (pr-)DSRG-MRPT2: J. Chem. Phys. 2017, 146, 124132.

  ==> Calculation Information <==

    ntamp                                                 15
    flow parameter                                 5.000e-01
    taylor expansion threshold                     1.000e-03
    intruder_tamp                                  1.000e-01
    int_type                                    CONVENTIONAL
    source operator                                 STANDARD
    reference relaxation                                ONCE
    state_type                                STATE-SPECIFIC
    form Hbar3                                         FALSE

  ==> Checking Orbitals <==

    Orbitals are semi-canonicalized.


  ==> Computing DSRG-MRPT2 ... <==

    Computing T2 amplitudes                  ...  Done. Timing        0.082506 s
    Computing T1 amplitudes                  ...  Done. Timing        0.006742 s
    Renormalizing two-electron integrals     ...  Done. Timing        0.070308 s
    Renormalizing Fock matrix elements       ...  Done. Timing        0.007211 s
    Computing <[F, T1]>                      ...  Done. Timing        0.002345 s
    Computing <[F, T2]>                      ...  Done. Timing        0.005852 s
    Computing <[V, T1]>                      ...  Done. Timing        0.006575 s
    Computing <[V, T2]> (C_2)^4              ...  Done. Timing        0.033799 s
    Computing <[V, T2]> C_4 (C_2)^2 HH       ...  Done. Timing        0.012310 s
    Computing <[V, T2]> C_4 (C_2)^2 PP       ...  Done. Timing        0.011711 s
    Computing <[V, T2]> C_4 (C_2)^2 PH       ...  Done. Timing        0.038466 s
    Computing <[V, T2]> C_6 C_2              ...  Done. Timing        0.252471 s

  ==> Excitation Amplitudes Summary <==

    Active Indices:    2    3    4    5   20   21   28   29 
    Largest T1 amplitudes for spin case A:
       i       a                  i       a                  i       a               
    --------------------------------------------------------------------------------
    [  5      11    ]-0.177767 [ 29      31    ]-0.108810 [ 21      23    ]-0.108810 
    [  5       6    ]-0.069588 [ 29      32    ] 0.063235 [ 21      24    ] 0.063235 
    [  5      13    ] 0.052227 [  0       2    ]-0.041343 [  1       4    ] 0.035684 
    [  0       3    ]-0.033338 [ 21      22    ]-0.023244 [ 29      30    ]-0.023244 
    [  1       2    ]-0.021321 [  0       4    ] 0.013669 [ 20      23    ] 0.013608 
    --------------------------------------------------------------------------------
    Norm of T1A vector: (nonzero elements: 103)                   0.278048436864488.
    --------------------------------------------------------------------------------
    Largest T1 amplitudes for spin case B:
       _       _                  _       _                  _       _               
       i       a                  i       a                  i       a               
    --------------------------------------------------------------------------------
    [  5      11    ]-0.177767 [ 29      31    ]-0.108810 [ 21      23    ]-0.108810 
    [  5       6    ]-0.069588 [ 29      32    ] 0.063235 [ 21      24    ] 0.063235 
    [  5      13    ] 0.052227 [  0       2    ]-0.041343 [  1       4    ] 0.035684 
    [  0       3    ]-0.033338 [ 21      22    ]-0.023244 [ 29      30    ]-0.023244 
    [  1       2    ]-0.021321 [  0       4    ] 0.013669 [ 20      23    ] 0.013608 
    --------------------------------------------------------------------------------
    Norm of T1B vector: (nonzero elements: 103)                   0.278048436864488.
    --------------------------------------------------------------------------------
    Largest T2 amplitudes for spin case AA:
       i   j   a   b              i   j   a   b              i   j   a   b           
    --------------------------------------------------------------------------------
    [  5  20   5  23] 0.049982 [  5  28   5  31] 0.049982 [  3   5   5   8] 0.044883 
    [  4   5   5   7] 0.043577 [  2   3   2   8]-0.040177 [  3  29   8  29]-0.039718 
    [  3  21   8  21]-0.039718 [  2  20   2  23] 0.039240 [  2  28   2  31] 0.039240 
    [  3  20   8  20]-0.039069 [  3  28   8  28]-0.039069 [  4  21   7  21]-0.038960 
    [  4  29   7  29]-0.038960 [  2   5   2  11]-0.038312 [ 20  29  23  29] 0.037653 
    --------------------------------------------------------------------------------
    Norm of T2AA vector: (nonzero elements: 25136)                0.697142700520121.
    --------------------------------------------------------------------------------
    Largest T2 amplitudes for spin case AB:
           _       _                  _       _                  _       _           
       i   j   a   b              i   j   a   b              i   j   a   b           
    --------------------------------------------------------------------------------
    [  4   4   4   7]-0.062559 [  5  20   5  23] 0.058496 [  5  28   5  31] 0.058496 
    [  2   3   2   8]-0.057770 [  2   5   2  11]-0.050369 [  2  20   2  23] 0.049656 
    [  2  28   2  31] 0.049656 [  3  29   8  29]-0.046065 [  3  21   8  21]-0.046065 
    [  4  21   7  21]-0.045625 [  4  29   7  29]-0.045625 [  5   5   5  11]-0.045559 
    [ 28  29  29  31] 0.045387 [ 20  21  21  23] 0.045387 [  3  20   8  20]-0.044032 
    --------------------------------------------------------------------------------
    Norm of T2AB vector: (nonzero elements: 29636)                0.733526206355041.
    --------------------------------------------------------------------------------
    Largest T2 amplitudes for spin case BB:
       _   _   _   _              _   _   _   _              _   _   _   _           
       i   j   a   b              i   j   a   b              i   j   a   b           
    --------------------------------------------------------------------------------
    [  5  20   5  23] 0.049982 [  5  28   5  31] 0.049982 [  3   5   5   8] 0.044883 
    [  4   5   5   7] 0.043577 [  2   3   2   8]-0.040177 [  3  29   8  29]-0.039718 
    [  3  21   8  21]-0.039718 [  2  20   2  23] 0.039240 [  2  28   2  31] 0.039240 
    [  3  20   8  20]-0.039069 [  3  28   8  28]-0.039069 [  4  21   7  21]-0.038960 
    [  4  29   7  29]-0.038960 [  2   5   2  11]-0.038312 [ 20  29  23  29] 0.037653 
    --------------------------------------------------------------------------------
    Norm of T2BB vector: (nonzero elements: 25136)                0.697142700520121.
    --------------------------------------------------------------------------------

  ==> Possible Intruders <==

    T1 amplitudes larger than 0.1000 for spin case A:
        Amplitude         Value                  Denominator              
    ----------------------------------------------------------------------
    [  5      11    ]   -0.17776689 (  1.183942 -   2.104592 =  -0.920650)
    [ 29      31    ]   -0.10881013 (  0.358698 -   1.071700 =  -0.713002)
    [ 21      23    ]   -0.10881013 (  0.358698 -   1.071700 =  -0.713002)
    ----------------------------------------------------------------------
    T1 amplitudes larger than 0.1000 for spin case B:
        Amplitude         Value                  Denominator              
    ----------------------------------------------------------------------
    [  5      11    ]   -0.17776689 (  1.183942 -   2.104592 =  -0.920650)
    [ 29      31    ]   -0.10881013 (  0.358698 -   1.071700 =  -0.713002)
    [ 21      23    ]   -0.10881013 (  0.358698 -   1.071700 =  -0.713002)
    ----------------------------------------------------------------------
    T2 amplitudes larger than 0.1000 for spin case AA: NULL
    T2 amplitudes larger than 0.1000 for spin case AB: NULL
    T2 amplitudes larger than 0.1000 for spin case BB: NULL

  ==> DSRG-MRPT2 Energy Summary <==

    E0 (reference)                 =   -112.881481489535730
    <[F, T1]>                      =     -0.013333142946489
    <[F, T2]>                      =      0.012686600219671
    <[V, T1]>                      =      0.010120987612248
    <[V, T2]> (C_2)^4              =     -0.261663927269339
    <[V, T2]> C_4 (C_2)^2 HH       =      0.000057896070092
    <[V, T2]> C_4 (C_2)^2 PP       =      0.011548238593814
    <[V, T2]> C_4 (C_2)^2 PH       =      0.017916038431942
    <[V, T2]> C_6 C_2              =     -0.001500698089111
    <[V, T2]>                      =     -0.233642452262602
    DSRG-MRPT2 correlation energy  =     -0.224168007377171
    DSRG-MRPT2 total energy        =   -113.105649496912903
    max(T1)                        =      0.177766889956652
    max(T2)                        =      0.065586243932729
    ||T1||                         =      0.393219870410398
    ||T2||                         =      1.767557261141897

  Energy took      0.640 s


  ==> DSRG-MRPT2 (unrelaxed) Dipole Moments (a.u.) <==

    Nuclear dipole moment:
      X:   0.000000  Y:   0.000000  Z:   0.002323

    Reference electronic dipole moment:
      X:   0.000000  Y:   0.000000  Z:   0.145287

    DSRG-MRPT2 electronic dipole moment:
      X:   0.000000  Y:   0.000000  Z:   0.075832

    Reference dipole moment:
      X:   0.000000  Y:   0.000000  Z:   0.147610  Total:   0.147610

    DSRG-MRPT2 dipole moment:
      X:   0.000000  Y:   0.000000  Z:   0.078155  Total:   0.078155


  ==> De-Normal-Order the DSRG Transformed Hamiltonian <==

    Computing the scalar term   ...      Done. Timing      0.002 s
    Computing the one-body term ...      Done. Timing      0.002 s
    Updating integrals          ...      Done. Timing      0.007 s

  ==> Scalar of the DSRG Hamiltonian (WRT True Vacuum) <==

    Scalar0                        =   -135.623828585849083
    Scalar1                        =      7.916814847342930
    Scalar2                        =     21.724871368976743
    Total Scalar W/O Frozen-Core   =   -105.982142369529413
    Total Scalar W/  Frozen-Core   =   -105.982142369529413

  ==> Test De-Normal-Ordered Hamiltonian <==

    One-Body Energy (after)        =    -29.415760343589920
    Two-Body Energy (after)        =     -0.225925872729751
    Total Energy (after)           =   -113.105649496912918
    Total Energy (before)          =   -113.105649496912903
  Frozen Orbitals takes     0.000 s.

              ---------------------------------------------------
                Complete Active Space Configuration Interaction
                                  Chenyang Li
              ---------------------------------------------------


  ==> Input Summary <==

    number of atoms                =     2
    number of electrons            =    14
    molecular charge               =     0
    number of alpha electrons      =     7
    number of beta electrons       =     7
    multiplicity                   =     1
    ms (2 * Sz)                    =     0
    number of molecular orbitals   =    36

  ==> Orbital Spaces <==

    TOTAL MO                      [   18     2     8     8 ]
    FROZEN CORE                   [    0     0     0     0 ]
    FROZEN VIRTUAL                [    0     0     0     0 ]
    CORRELATED MO                 [   18     2     8     8 ]
    CORE                          [    2     0     0     0 ]
    ACTIVE                        [    4     0     2     2 ]
    VIRTUAL                       [   12     2     6     6 ]
  Forming alpha and beta strings      ...  Done. Timing        0.000182 s
  Forming determinants                ...  Done. Timing        0.000368 s

  ==> Determinants Summary <==

    number of alpha active electrons    =     5
    number of beta active electrons     =     5
    root symmetry (zero based)          =     0
    number of determinants              =   792

  Diagonalizing Hamiltonian           ...
  Time spent building a_list   0.004700 s
  Time spent building b_list   0.004638 s
  Time spent building aa_list  0.007594 s
  Time spent building bb_list  0.007747 s
 Memory for AB_ann: 0.170 MB
  Time spent building ab_list  0.019311 s

  Davidson-Liu solver algorithm
  Using SPARSE sigma builder
  Initial guess space is incomplete.
  Trying to add 14 determinant(s).  14 determinant(s) added.
  Initial guess found 49 solutions with 2S+1 = 1 *
  Initial guess found 50 solutions with 2S+1 = 3  
  Initial guess found 14 solutions with 2S+1 = 5  
  Initial guess found 1 solutions with 2S+1 = 7  
  Adding guess 0 (multiplicity = 1.000000)
  Adding guess 1 (multiplicity = 1.000000)

  ==> Diagonalizing Hamiltonian <==

  ----------------------------------------
    Iter.      Avg. Energy       Delta_E
  ----------------------------------------
      1      -29.620914153518  -2.962e+01
      2      -29.643824606341  -2.291e-02
      3      -29.644850457671  -1.026e-03
      4      -29.644917057489  -6.660e-05
      5      -29.644937296205  -2.024e-05
      6      -29.644939098811  -1.803e-06
      7      -29.644939393484  -2.947e-07
      8      -29.644939447674  -5.419e-08
      9      -29.644939462135  -1.446e-08
     10      -29.644939464239  -2.104e-09
     11      -29.644939464585  -3.451e-10
     12      -29.644939464656  -7.094e-11
  ----------------------------------------
  The Davidson-Liu algorithm converged in 13 iterations.
  Davidson-Liu procedure took  0.141756 s  Done. Timing        0.191241 s

  * * * * * * * * * * * * * * * * *
  *  CI Vectors & Configurations  *
  * * * * * * * * * * * * * * * * *

  ==> Root No. 0 <==

    2220 20 20         -0.9692120487
    2220 20 02          0.0937718768
    2220 02 20          0.0937718747
    2220 ba ab          0.0655414165
    2220 ab ba          0.0655414165
    2200 22 20          0.0619951118
    2200 20 22          0.0619951098

    Total Energy:   -113.108902745248798



  ==> Permanent Dipole Moments (A1) <==

  Only print nonzero (> 1.0e-5) elements.
  Permanent dipole moments (a.u.) 0 -> 0:  X:  0.0000  Y:  0.0000  Z:  0.0733  Total:  0.0733


  ==> De-Normal-Order DSRG Transformed Dipole Z Integrals <==

    Computing the scalar term                ... Done. Timing    0.002 s
    Computing the 1-body term                ... Done. Timing    0.001 s

  ==> DSRG-MRPT2 Energy Summary <==

    DSRG-MRPT2 Total Energy (fixed)   =   -113.105649496912903
    DSRG-MRPT2 Total Energy (relaxed) =   -113.108902745248798


  ==> DSRG-MRPT2 Dipole Moment Summary <==

    DSRG-MRPT2 unrelaxed dipole moment:
      X:   0.000000  Y:   0.000000  Z:   0.078155  Total:   0.078155

    DSRG-MRPT2 partially relaxed dipole moment:
      X:   0.000000  Y:   0.000000  Z:   0.008671  Total:   0.008671


  ==> Total Timings (s) for Computing Commutators <==

             [H1, T1]    [H1, T2]    [H2, T1]    [H2, T2]
    -----------------------------------------------------
    -> C0       0.007       0.018       0.012       0.677
    -> C1       0.011       0.070       0.014       0.359
    -> C2                   0.212       0.018       0.137
    -----------------------------------------------------
	DSRG-MRPT2 unrelaxed energy.......................................PASSED
	DSRG-MRPT2 partially relaxed energy...............................PASSED
	DSRG-MRPT2 unrelaxed dipole moment................................PASSED
	DSRG-MRPT2 partially relaxed dipole moment........................PASSED

*** Psi4 exiting successfully. Buy a developer a beer!
