
    -----------------------------------------------------------------------
          Psi4: An Open-Source Ab Initio Electronic Structure Package
                               Psi4 1.3a2.dev26 

                         Git: Rev {master} e20a281 


    R. M. Parrish, L. A. Burns, D. G. A. Smith, A. C. Simmonett,
    A. E. DePrince III, E. G. Hohenstein, U. Bozkaya, A. Yu. Sokolov,
    R. Di Remigio, R. M. Richard, J. F. Gonthier, A. M. James,
    H. R. McAlexander, A. Kumar, M. Saitow, X. Wang, B. P. Pritchard,
    P. Verma, H. F. Schaefer III, K. Patkowski, R. A. King, E. F. Valeev,
    F. A. Evangelista, J. M. Turney, T. D. Crawford, and C. D. Sherrill,
    J. Chem. Theory Comput. 13(7) pp 3185--3197 (2017).
    (doi: 10.1021/acs.jctc.7b00174)


                         Additional Contributions by
    P. Kraus, H. Kruse, M. H. Lechner, M. C. Schieber, and R. A. Shaw

    -----------------------------------------------------------------------


    Psi4 started on: Tuesday, 06 November 2018 08:46PM

    Process ID: 58901
    Host:       dhcp189-8.emerson.emory.edu
    PSIDATADIR: /Users/york/src/psi4new/psi4/share/psi4
    Memory:     500.0 MiB
    Threads:    1
    
  ==> Input File <==

--------------------------------------------------------------------------
#! Generated using commit GITCOMMIT

import forte

refmcscf   = -99.406065223640
refdsrg    = -99.497356555037214 # no relaxation semi-canonical orbitals

memory 500 mb

molecule HF{
  0 1
  F
  H  1 R
  R = 1.50
}

set globals{
   basis                  3-21g
   reference              twocon
   scf_type               pk
   e_convergence          8
   maxiter                100
   docc                   [3,0,1,1]
}

set mcscf{
   docc                   [2,0,1,1]
   socc                   [2,0,0,0]
   maxiter                1000
   level_shift            0.5
   d_convergence          10
   e_convergence          12
}

set forte{
   job_type               mrdsrg
   corr_level             ldsrg2_qc
   frozen_docc            [1,0,0,0]
   restricted_docc        [1,0,1,1]
   active                 [2,0,0,0]
   root_sym               0
   nroot                  1
   dsrg_s                 1.0
   maxiter                100
   e_convergence          8
   semi_canonical         false
}

Emcscf, wfn = energy('mcscf', return_wfn=True)
compare_values(refmcscf,get_variable("CURRENT ENERGY"),10,"MCSCF energy") #TEST

energy('forte', ref_wfn=wfn)
compare_values(refdsrg,get_variable("CURRENT ENERGY"),8,"MRDSRG relaxed energy") #TEST
--------------------------------------------------------------------------

  Memory set to 476.837 MiB by Python driver.
   => Loading Basis Set <=

    Name: 3-21G
    Role: ORBITAL
    Keyword: BASIS
    atoms 1 entry F          line   101 file /Users/york/src/psi4new/psi4/share/psi4/basis/3-21g.gbs 
    atoms 2 entry H          line    21 file /Users/york/src/psi4new/psi4/share/psi4/basis/3-21g.gbs 


*** tstart() called on dhcp189-8.emerson.emory.edu
*** at Tue Nov  6 20:46:09 2018


         ------------------------------------------
           MCSCF: a self-consistent field program
            written by Francesco A. Evangelista
         ------------------------------------------

  MOs per irrep:                                      A1  A2  B1  B2 Total
  ----------------------------------------------------------------------------
  Total                                                7    0    2    2    11
  Doubly Occupied                                      2    0    1    1     4
  Active/Singly Occupied                               2    0    0    0     2
  ----------------------------------------------------------------------------

  Running an SCF calculation
  TWOCON MOs = [2 (A1),3 (A1)]

  Generated 66 pairs
  Distributed as [34 A1][4 A2][14 B1][14 B2]
  batch   0 pq = [       0,      34] index = [               0,             595]

  Allocated the PK matrix (595 elements) 
  Allocated the  K matrix (595 elements) 
  Reading the two-electron integrals to form PK and K ... 
  batch   0 ... done.


  =========================================================================================
         Cycle          Energy               D(Energy)            D(Density)            DIIS
  ===========================================================================================
  Setting level shift to 0.500 S
  @SCF    0      -90.711680138176     -90.711680138176       0.179571426993
    ci      = [ 0.00000000, 0.00000000]
    ci_grad = [ 0.00000000, 0.00000000]
  Setting level shift to 0.500 S
  @SCF    1      -99.209208290096      -8.497528151920       0.171539036662
    ci      = [ 0.00000000, 0.00000000]
    ci_grad = [ 0.00000000, 0.00000000]
  Setting level shift to 0.500 S
  @SCF    2      -99.181126225880       0.028082064215       0.014194650111
    ci      = [ 0.00000000, 0.00000000]
    ci_grad = [ 0.00000000, 0.00000000]
  Setting level shift to 0.500 S
  @SCF    3      -99.187147056378      -0.006020830498       0.007187093304
    ci      = [ 0.00000000, 0.00000000]
    ci_grad = [ 0.00000000, 0.00000000]
  Setting level shift to 0.500 S
  @SCF    4      -99.185505238746       0.001641817632       0.004582734282
    ci      = [ 0.00000000, 0.00000000]
    ci_grad = [ 0.00000000, 0.00000000]
  Setting level shift to 0.500 S
  @SCF    5      -99.188474395194      -0.002969156448       0.002877713567
    ci      = [ 0.00000000, 0.00000000]
    ci_grad = [ 0.00000000, 0.00000000]
  Setting level shift to 0.500 S
  @SCF    6      -99.186908015658       0.001566379537       0.001957181741
    ci      = [ 0.00000000, 0.00000000]
    ci_grad = [ 0.00000000, 0.00000000]
  Setting level shift to 0.500 S/E
  @SCF    7      -99.189018416397      -0.002110400739       0.001358833744
    ci      = [ 0.00000000, 0.00000000]
    ci_grad = [ 0.00000000, 0.00000000]
  Setting level shift to 0.500 S/E
  @SCF    8      -99.188321587265       0.000696829132       0.000571003453
    ci      = [ 0.00000000, 0.00000000]
    ci_grad = [ 0.00000000, 0.00000000]
  Setting level shift to 0.500 S/E
  @SCF    9      -99.188265995912       0.000055591352       0.000013369739
    ci      = [ 0.00000000, 0.00000000]
    ci_grad = [ 0.00000000, 0.00000000]
  Setting level shift to 0.500 S/E
  @SCF   10      -99.188257103781       0.000008892132       0.000002169527
    ci      = [-0.93934204, 0.34298182]
    ci_grad = [ 0.00000000, 0.00000000]
  Setting level shift to 0.500 S/E
  @SCF   11      -99.188255335433       0.000001768348       0.000000855765
    ci      = [-0.93934230, 0.34298111]
    ci_grad = [-0.00000152, 0.00000100]
  Setting level shift to 0.500 S/E
  @SCF   12      -99.188255068850       0.000000266583       0.000000113202
    ci      = [-0.93934223, 0.34298130]
    ci_grad = [-0.00000029,-0.00000001]
  Setting level shift to 0.500 S/E
  @SCF   13      -99.188257583891      -0.000002515042       0.000000557796
    ci      = [-0.93934249, 0.34298060]
    ci_grad = [ 0.00000250,-0.00000048]
  Setting level shift to 0.500 S/E
  @SCF   14      -99.188256442094       0.000001141797       0.000000350212
    ci      = [-0.93934242, 0.34298079]
    ci_grad = [-0.00000111, 0.00000029]
  Setting level shift to 0.500 S/E
  @SCF   15      -99.188256647610      -0.000000205516       0.000000028652
    ci      = [-0.93934243, 0.34298075]
    ci_grad = [ 0.00000020,-0.00000005]
  Setting level shift to 0.500 S/E
  @SCF   16      -99.188272219598      -0.000015571987       0.000001970923
    ci      = [-0.93934243, 0.34298075]
    ci_grad = [ 0.00001560,-0.00000267]
  Setting level shift to 0.500 S/E
  @SCF   17      -99.188250651916       0.000021567682       0.000002909252
    ci      = [-0.93934243, 0.34298075]
    ci_grad = [-0.00002006, 0.00000794]
  Setting level shift to 0.500 S/E
  @SCF   18      -99.338121751280      -0.149871099364       0.036391840947
    ci      = [-0.93934243, 0.34298075]
    ci_grad = [ 0.16012530, 0.02802378]
  Setting level shift to 0.500 S/E
  @SCF   19      -99.382222254159      -0.044100502880       0.017282268121
    ci      = [-0.93934243, 0.34298075]
    ci_grad = [ 0.05049211, 0.01325425]
  Setting level shift to 0.500 S/E
  @SCF   20      -99.390701242223      -0.008478988064       0.006387057079
    ci      = [-0.93934243, 0.34298075]
    ci_grad = [ 0.01846823, 0.03066260]
  Setting level shift to 0.500 S/E
  @SCF   21      -99.396313560851      -0.005612318628       0.005228732828
    ci      = [-0.93934243, 0.34298075]
    ci_grad = [ 0.01366243, 0.02392754]
  Setting level shift to 0.500 S/E
  @SCF   22      -99.401926327835      -0.005612766984       0.006534702139
    ci      = [-0.93934243, 0.34298075]
    ci_grad = [ 0.01346055, 0.02315755]
  Setting level shift to 0.500 S/E
  @SCF   23      -99.404359609559      -0.002433281724       0.004417717383
    ci      = [-0.93934243, 0.34298075]
    ci_grad = [ 0.00887264, 0.01884807]
  Setting level shift to 0.500 S/E
  @SCF   24      -99.405870291462      -0.001510681903       0.005264129063
    ci      = [-0.93934243, 0.34298075]
    ci_grad = [ 0.00790990, 0.01881699]
  Setting level shift to 0.500 S/E
  @SCF   25      -99.405927833285      -0.000057541822       0.000690372400
    ci      = [-0.93934243, 0.34298075]
    ci_grad = [ 0.00656544, 0.01937843]
  Setting level shift to 0.500 S/E
  @SCF   26      -99.405962481476      -0.000034648191       0.000462739471
    ci      = [-0.93934243, 0.34298075]
    ci_grad = [ 0.00660658, 0.01958740]
  Setting level shift to 0.500 S/E
  @SCF   27      -99.405975041833      -0.000012560358       0.000398214983
    ci      = [-0.93934243, 0.34298075]
    ci_grad = [ 0.00657727, 0.01956717]
  Setting level shift to 0.500 S/E
  @SCF   28      -99.405965394572       0.000009647261       0.000243880385
    ci      = [-0.94798049, 0.31832844]
    ci_grad = [ 0.00648583, 0.01934506]
  Setting level shift to 0.500 S/E
  @SCF   29      -99.405972667346      -0.000007272774       0.000130654592
    ci      = [-0.94802528, 0.31819502]
    ci_grad = [ 0.00004188, 0.00010193]
  Setting level shift to 0.500 S/E
  @SCF   30      -99.405974887487      -0.000002220141       0.000011460523
    ci      = [-0.94804257, 0.31814348]
    ci_grad = [ 0.00001562, 0.00003956]
  Setting level shift to 0.500 S/E
  @SCF   31      -99.405974062535       0.000000824952       0.000005015609
    ci      = [-0.94803621, 0.31816244]
    ci_grad = [-0.00000575,-0.00001455]
  Setting level shift to 0.500 S/E
  @SCF   32      -99.405991943305      -0.000017880770       0.000137892289
    ci      = [-0.94803621, 0.31816244]
    ci_grad = [ 0.00012965, 0.00033062]
  Setting level shift to 0.500 S/E
  @SCF   33      -99.406007360116      -0.000015416811       0.000143496643
    ci      = [-0.94803621, 0.31816244]
    ci_grad = [ 0.00023643, 0.00065799]
  Setting level shift to 0.500 S/E
  @SCF   34      -99.406041652868      -0.000034292752       0.000443585337
    ci      = [-0.94803621, 0.31816244]
    ci_grad = [ 0.00057366, 0.00161329]
  Setting level shift to 0.500 S/E
  @SCF   35      -99.406049028233      -0.000007375366       0.000160955312
    ci      = [-0.94884968, 0.31572819]
    ci_grad = [ 0.00064473, 0.00191423]
  Setting level shift to 0.500 S/E
  @SCF   36      -99.406062448737      -0.000013420503       0.000413469389
    ci      = [-0.94884968, 0.31572819]
    ci_grad = [ 0.00030373, 0.00087373]
  Setting level shift to 0.500 S/E
  @SCF   37      -99.406061952750       0.000000495987       0.000578632483
    ci      = [-0.94969892, 0.31316444]
    ci_grad = [ 0.00067069, 0.00203550]
  Setting level shift to 0.500 S/E
  @SCF   38      -99.406064526402      -0.000002573652       0.000402517109
    ci      = [-0.94931616, 0.31432280]
    ci_grad = [-0.00030080,-0.00091667]
  Setting level shift to 0.500 S/E
  @SCF   39      -99.406064792340      -0.000000265938       0.000249416800
    ci      = [-0.94953421, 0.31366348]
    ci_grad = [ 0.00017287, 0.00052248]
  Setting level shift to 0.500 S/E
  @SCF   40      -99.406065210159      -0.000000417819       0.000094216739
    ci      = [-0.94945275, 0.31390998]
    ci_grad = [-0.00006414,-0.00019532]
  Setting level shift to 0.500 S/E
  @SCF   41      -99.406065178827       0.000000031332       0.000019627187
    ci      = [-0.94946838, 0.31386270]
    ci_grad = [ 0.00001235, 0.00003746]
  Setting level shift to 0.500 S/E
  @SCF   42      -99.406065219436      -0.000000040609       0.000025997913
    ci      = [-0.94944611, 0.31393006]
    ci_grad = [-0.00001760,-0.00005335]
  Setting level shift to 0.500 S/E
  @SCF   43      -99.406065223523      -0.000000004087       0.000010944920
    ci      = [-0.94943813, 0.31395420]
    ci_grad = [-0.00000632,-0.00001911]
  Setting level shift to 0.500 S/E
  @SCF   44      -99.406065223492       0.000000000031       0.000000938478
    ci      = [-0.94943870, 0.31395248]
    ci_grad = [ 0.00000045, 0.00000136]
  Setting level shift to 0.500 S/E
  @SCF   45      -99.406065223633      -0.000000000141       0.000002021055
    ci      = [-0.94943701, 0.31395760]
    ci_grad = [-0.00000134,-0.00000405]
  Setting level shift to 0.500 S/E
  @SCF   46      -99.406065223637      -0.000000000003       0.000000408047
    ci      = [-0.94943714, 0.31395720]
    ci_grad = [ 0.00000010, 0.00000031]
  Setting level shift to 0.500 S/E
  @SCF   47      -99.406065223638      -0.000000000001       0.000000124993
    ci      = [-0.94943709, 0.31395734]
    ci_grad = [-0.00000004,-0.00000011]
  Setting level shift to 0.500 S/E
  @SCF   48      -99.406065223639      -0.000000000001       0.000000169006
    ci      = [-0.94943701, 0.31395758]
    ci_grad = [-0.00000006,-0.00000019]
  Setting level shift to 0.500 S/E
  @SCF   49      -99.406065223640      -0.000000000001       0.000000108802
    ci      = [-0.94943699, 0.31395764]
    ci_grad = [-0.00000001,-0.00000004]
  Setting level shift to 0.500 S/E
  @SCF   50      -99.406065223640       0.000000000000       0.000000061851
    ci      = [-0.94943696, 0.31395774]
    ci_grad = [-0.00000003,-0.00000008]
  Setting level shift to 0.500 S/E
  @SCF   51      -99.406065223640      -0.000000000000       0.000000011604
    ci      = [-0.94943696, 0.31395773]
    ci_grad = [ 0.00000000, 0.00000001]
  Setting level shift to 0.500 S/E
  @SCF   52      -99.406065223640      -0.000000000000       0.000000007888
    ci      = [-0.94943696, 0.31395774]
    ci_grad = [-0.00000000,-0.00000000]
  Setting level shift to 0.500 S/E
  @SCF   53      -99.406065223640       0.000000000000       0.000000010279
    ci      = [-0.94943697, 0.31395772]
    ci_grad = [ 0.00000001, 0.00000002]
  Setting level shift to 0.500 S/E
  @SCF   54      -99.406065223639       0.000000000000       0.000000003115
    ci      = [-0.94943696, 0.31395772]
    ci_grad = [-0.00000000,-0.00000000]
  Setting level shift to 0.500 S/E
  @SCF   55      -99.406065223640      -0.000000000000       0.000000005943
    ci      = [-0.94943697, 0.31395771]
    ci_grad = [ 0.00000000, 0.00000001]
  Setting level shift to 0.500 S/E
  @SCF   56      -99.406065223640      -0.000000000000       0.000000000629
    ci      = [-0.94943697, 0.31395771]
    ci_grad = [ 0.00000000, 0.00000000]
  Setting level shift to 0.500 S/E
  @SCF   57      -99.406065223640       0.000000000000       0.000000001170
    ci      = [-0.94943697, 0.31395771]
    ci_grad = [ 0.00000000, 0.00000000]
  Setting level shift to 0.500 S/E
  @SCF   58      -99.406065223640       0.000000000000       0.000000000386
    ci      = [-0.94943697, 0.31395771]
    ci_grad = [ 0.00000000, 0.00000000]
  Setting level shift to 0.500 S/E
  @SCF   59      -99.406065223639       0.000000000000       0.000000000973
    ci      = [-0.94943697, 0.31395771]
    ci_grad = [-0.00000000,-0.00000000]
  Setting level shift to 0.500 S/E
  @SCF   60      -99.406065223640      -0.000000000000       0.000000000193
    ci      = [-0.94943697, 0.31395771]
    ci_grad = [ 0.00000000, 0.00000000]
  Setting level shift to 0.500 S/E
  @SCF   61      -99.406065223639       0.000000000000       0.000000000279
    ci      = [-0.94943697, 0.31395771]
    ci_grad = [-0.00000000,-0.00000000]
  Setting level shift to 0.500 S/E
  @SCF   62      -99.406065223640      -0.000000000000       0.000000000036
    ci      = [-0.94943697, 0.31395771]
    ci_grad = [ 0.00000000, 0.00000000]
  Setting level shift to 0.500 S/E
  @SCF   63      -99.406065223640      -0.000000000000       0.000000000057
    ci      = [-0.94943697, 0.31395771]
    ci_grad = [-0.00000000,-0.00000000]
  Setting level shift to 0.500 S/E
  @SCF   64      -99.406065223640       0.000000000000       0.000000000034
    ci      = [-0.94943697, 0.31395771]
    ci_grad = [ 0.00000000, 0.00000000]
  =========================================================================================

      * SCF total energy   =     -99.406065223640


      CI coefficients  = [-0.949436969, 0.313957709]

  End of SCF
  MOs orthonormality check passed.

  Orbitals are canonicalized as:
  inactive (docc + uocc) : Fock(core)
  active   (actv)        : Fock(core)

  =========================================================================
  Eigenvalues (Eh)
  -------------------------------------------------------------------------
  Doubly occupied orbitals
      1    -26.175209  A1      2     -1.495695  A1      3     -0.623385  B1
      4     -0.623385  B2
  Active orbitals
      5     -0.510102  A1      6      0.074682  A1
  Unoccupied orbitals
      7      1.595133  A1      8      2.709370  B1      9      2.709370  B2
     10      2.796416  A1     11      3.870480  A1
  =========================================================================


  MCSCF Execution Completed.


*** tstop() called on dhcp189-8.emerson.emory.edu at Tue Nov  6 20:46:10 2018
Module time:
	user time   =       0.05 seconds =       0.00 minutes
	system time =       0.02 seconds =       0.00 minutes
	total time  =          1 seconds =       0.02 minutes
Total time:
	user time   =       0.05 seconds =       0.00 minutes
	system time =       0.02 seconds =       0.00 minutes
	total time  =          1 seconds =       0.02 minutes
	MCSCF energy......................................................PASSED
   => Loading Basis Set <=

    Name: STO-3G
    Role: ORBITAL
    Keyword: MINAO_BASIS
    atoms 1 entry F          line    91 file /Users/york/src/psi4new/psi4/share/psi4/basis/sto-3g.gbs 
    atoms 2 entry H          line    19 file /Users/york/src/psi4new/psi4/share/psi4/basis/sto-3g.gbs 


Reading options from the FORTE block
Calling plugin forte.so.



  Forte
  ----------------------------------------------------------------------------
  A suite of quantum chemistry methods for strongly correlated electrons

    git branch: dwsa-dsrg-pt - git commit: 84cccd4f

  Developed by:
    Francesco A. Evangelista, Chenyang Li, Kevin P. Hannon,
    Jeffrey B. Schriber, Tianyuan Zhang, Chenxi Cai
  ----------------------------------------------------------------------------

  Size of Determinant class: 16

  ==> MO Space Information <==

  Read options for space FROZEN_DOCC
  Read options for space RESTRICTED_DOCC
  Read options for space ACTIVE
  -------------------------------------------------
                       A1    A2    B1    B2   Sum
  -------------------------------------------------
    FROZEN_DOCC         1     0     0     0     1
    RESTRICTED_DOCC     1     0     1     1     3
    ACTIVE              2     0     0     0     2
    RESTRICTED_UOCC     3     0     1     1     5
    FROZEN_UOCC         0     0     0     0     0
    Total               7     0     2     2    11
  -------------------------------------------------

  ==> Integral Transformation <==

  Number of molecular orbitals:                    11
  Number of correlated molecular orbitals:         10
  Number of frozen occupied orbitals:               1
  Number of frozen unoccupied orbitals:             0
  Two-electron integral type:              Conventional


  Overall Conventional Integrals timings

	Presorting SO-basis two-electron integrals.
	Sorting File: SO Ints (nn|nn) nbuckets = 1
	Transforming the one-electron integrals and constructing Fock matrices
	Starting first half-transformation.
	Sorting half-transformed integrals.
	First half integral transformation complete.
	Starting second half-transformation.
	Two-electron integral transformation complete.

  Integral transformation done. 0.00694645 s
  Reading the two-electron integrals from disk
  Size of two-electron integrals:   0.000327 GB  Using in-core PK algorithm.
   Calculation information:
      Number of atoms:                   2
      Number of AO shells:               7
      Number of primitives:             12
      Number of atomic orbitals:        11
      Number of basis functions:        11

      Integral cutoff                 1.00e-12
      Number of threads:                 1

  Performing in-core PK
  Using 4422 doubles for integral storage.
  We computed 406 shell quartets total.
  Whereas there are 406 unique shell quartets.


  Frozen-core energy            -75.818535539737 a.u.
  Timing for frozen one-body operator:                        0.029 s.
  Resorting integrals after freezing core.
  Timing for freezing core and virtual orbitals:              0.030 s.
  Conventional integrals take 0.05927903 s

                -----------------------------------------------
                  String-based Full Configuration Interaction
                          by Francesco A. Evangelista
                -----------------------------------------------

  Number of electrons: 10
  Charge: 0
  Multiplicity: 1
  Davidson subspace max dim: 8
  Davidson subspace min dim: 2
  M_s: 0

  ==> String Lists <==

  Number of alpha electrons     = 1
  Number of beta electrons      = 1
  Number of alpha strings       = 2
  Number of beta strings        = 2
  Timing for strings        =      0.000 s
  Timing for NN strings     =      0.000 s
  Timing for VO strings     =      0.000 s
  Timing for OO strings     =      0.000 s
  Timing for VVOO strings   =      0.000 s
  Timing for VOVO strings   =      0.000 s
  Timing for 1-hole strings =      0.000 s
  Timing for 2-hole strings =      0.000 s
  Timing for 3-hole strings =      0.000 s
  Total timing              =      0.000 s

  ==> FCI Solver <==

    Number of determinants                           4
    Symmetry                                         0
    Multiplicity                                     1
    Number of roots                                  1
    Target root                                      0
    Trial vectors per root                          10

  Allocating memory for the Hamiltonian algorithm. Size: 2 x 2 x 2.   Memory: 0.000000 GB

  ==> FCI Initial Guess <==

  ---------------------------------------------
    Root            Energy     <S^2>   Spin
  ---------------------------------------------
      0      -99.406065223640  0.000  singlet
      1      -99.266219554016  2.000  triplet
      2      -98.863152603389  0.000  singlet
      3      -98.545355419275  0.000  singlet
  ---------------------------------------------
  Timing for initial guess  =      0.000 s

  Projecting out root 1
  ==> Diagonalizing Hamiltonian <==

  ----------------------------------------
    Iter.      Avg. Energy       Delta_E
  ----------------------------------------
      1      -99.406065223639  -9.941e+01
      2      -99.406065223639  +0.000e+00
  ----------------------------------------
  The Davidson-Liu algorithm converged in 3 iterations.

  ==> Root No. 0 <==

    20     -0.94943697
    02      0.31395771

    Total Energy:       -99.406065223639445

  ==> Computing RDMs for Root No. 0 <==

    Timing for 1-RDM: 0.000 s
    Timing for 2-RDM: 0.000 s
    Timing for 3-RDM: 0.000 s

  ==> NATURAL ORBITALS <==

        1A1     1.802861      2A1     0.197139  


  ==> Multireference Driven Similarity Renormalization Group <==

    Reading DSRG options ............................ Done
    Setting ambit MO space .......................... Done
    Preparing tensors for density cumulants ......... Done
    Building Fock matrix ............................ Done
    Checking reference energy ....................... Done

           ----------------------------------------------------------
             Multireference Driven Similarity Renormalization Group
                                  Chenyang Li
           ----------------------------------------------------------

  Additional contributions by: Tianyuan Zhang

  ==> Density Cumulant Summary <==

    2-body             AA           AB           BB
    -----------------------------------------------
    max          0.088854     0.298083     0.088854
    norm         0.177707     0.457479     0.177707
    -----------------------------------------------
    3-body            AAA          AAB          ABB          BBB
    ------------------------------------------------------------
    max          0.000000     0.071337     0.071337     0.000000
    norm         0.000000     0.201772     0.201772     0.000000
    ------------------------------------------------------------

  ==> Checking Semicanonical Orbitals <==

    Abs. max of Fock core, active, virtual blocks (Fij, i != j)
                  core          active         virtual
    --------------------------------------------------
    Fα    0.0000000000    0.0348818653    0.0000000000
    Fβ    0.0000000000    0.0348818653    0.0000000000
    --------------------------------------------------

    1-Norm of Fock core, active, virtual blocks (Fij, i != j)
                  core          active         virtual
    --------------------------------------------------
    Fα    0.0000000000    0.0697637307    0.0000000000
    Fβ    0.0000000000    0.0697637307    0.0000000000
    --------------------------------------------------

    Warning! Orbitals are not semi-canonicalized!
    Orbital invariant formalism will be employed for MR-DSRG.

  ==> Calculation Information <==

    ntamp                                            15
    diis_min_vecs                                     2
    diis_max_vecs                                     5
    flow parameter                            1.000e+00
    taylor expansion threshold                1.000e-03
    intruder_tamp                             1.000e-01
    corr_level                                LDSRG2_QC
    int_type                               CONVENTIONAL
    source operator                            STANDARD
    smart_dsrg_s                                 DSRG_S
    reference relaxation                           NONE
    dsrg transformation type                    UNITARY
    core virtual source type                     NORMAL
    sequential dsrg transformation                FALSE
    omit blocks of >= 3 virtual indices           FALSE


  ==> Build Initial Amplitude from DSRG-MRPT2 <==

    Computing T2 amplitudes ...          Done. Timing      0.224 s
    Computing T1 amplitudes ...          Done. Timing      0.017 s

  ==> First-Order Excitation Amplitudes Summary <==

    Active Indices:    1    2 
    Largest T1 amplitudes for spin case A:
       i       a                  i       a                  i       a               
    --------------------------------------------------------------------------------
    [  2       4    ] 0.103516 [  2       3    ]-0.095610 [  0       1    ]-0.039975 
    [  1       4    ] 0.014373 [  1       3    ] 0.013263 [  2       5    ]-0.005067 
    [  0       2    ] 0.004406 [  1       5    ]-0.002786 [  6       7    ] 0.000313 
    [  8       9    ] 0.000313 [  0       3    ] 0.000094 [  0       5    ]-0.000043 
    [  0       4    ] 0.000023 
    --------------------------------------------------------------------------------
    Norm of T1A vector: (nonzero elements: 13)                    0.147953920208688.
    --------------------------------------------------------------------------------
    Largest T1 amplitudes for spin case B:
       _       _                  _       _                  _       _               
       i       a                  i       a                  i       a               
    --------------------------------------------------------------------------------
    [  2       4    ] 0.103516 [  2       3    ]-0.095610 [  0       1    ]-0.039975 
    [  1       4    ] 0.014373 [  1       3    ] 0.013263 [  2       5    ]-0.005067 
    [  0       2    ] 0.004406 [  1       5    ]-0.002786 [  6       7    ] 0.000313 
    [  8       9    ] 0.000313 [  0       3    ] 0.000094 [  0       5    ]-0.000043 
    [  0       4    ] 0.000023 
    --------------------------------------------------------------------------------
    Norm of T1B vector: (nonzero elements: 13)                    0.147953920208688.
    --------------------------------------------------------------------------------
    Largest T2 amplitudes for spin case AA:
       i   j   a   b              i   j   a   b              i   j   a   b           
    --------------------------------------------------------------------------------
    [  2   6   1   7]-0.045763 [  2   8   1   9]-0.045763 [  1   6   1   7]-0.042298 
    [  1   8   1   9]-0.042298 [  2   6   2   7]-0.040617 [  2   8   2   9]-0.040617 
    [  0   1   1   2]-0.035177 [  1   6   2   7]-0.031143 [  1   8   2   9]-0.031143 
    [  6   8   7   9]-0.024088 [  1   2   1   3]-0.023914 [  2   6   4   7] 0.020515 
    [  2   8   4   9] 0.020515 [  0   1   1   5]-0.019273 [  1   2   1   4] 0.019057 
    --------------------------------------------------------------------------------
    Norm of T2AA vector: (nonzero elements: 240)                  0.282244264026581.
    --------------------------------------------------------------------------------
    Largest T2 amplitudes for spin case AB:
           _       _                  _       _                  _       _           
       i   j   a   b              i   j   a   b              i   j   a   b           
    --------------------------------------------------------------------------------
    [  2   2   1   4] 0.076922 [  2   2   2   3]-0.069894 [  0   0   1   1]-0.056124 
    [  1   2   1   3]-0.052174 [  2   6   1   7]-0.050242 [  2   8   1   9]-0.050242 
    [  1   2   2   4] 0.048389 [  2   2   3   3]-0.048352 [  2   6   2   7]-0.044842 
    [  2   8   2   9]-0.044842 [  1   2   1   4] 0.044731 [  1   6   1   7]-0.043821 
    [  1   8   1   9]-0.043821 [  2   2   2   4] 0.037717 [  6   6   7   7]-0.036327 
    --------------------------------------------------------------------------------
    Norm of T2AB vector: (nonzero elements: 405)                  0.349806856595550.
    --------------------------------------------------------------------------------
    Largest T2 amplitudes for spin case BB:
       _   _   _   _              _   _   _   _              _   _   _   _           
       i   j   a   b              i   j   a   b              i   j   a   b           
    --------------------------------------------------------------------------------
    [  2   6   1   7]-0.045763 [  2   8   1   9]-0.045763 [  1   6   1   7]-0.042298 
    [  1   8   1   9]-0.042298 [  2   6   2   7]-0.040617 [  2   8   2   9]-0.040617 
    [  0   1   1   2]-0.035177 [  1   6   2   7]-0.031143 [  1   8   2   9]-0.031143 
    [  6   8   7   9]-0.024088 [  1   2   1   3]-0.023914 [  2   6   4   7] 0.020515 
    [  2   8   4   9] 0.020515 [  0   1   1   5]-0.019273 [  1   2   1   4] 0.019057 
    --------------------------------------------------------------------------------
    Norm of T2BB vector: (nonzero elements: 240)                  0.282244264026581.
    --------------------------------------------------------------------------------

  ==> Possible Intruders <==

    T1 amplitudes larger than 0.1000 for spin case A:
        Amplitude         Value                  Denominator              
    ----------------------------------------------------------------------
    [  2       4    ]    0.10351614 (  0.076755 -   2.296416 =  -2.219660)
    ----------------------------------------------------------------------
    T1 amplitudes larger than 0.1000 for spin case B:
        Amplitude         Value                  Denominator              
    ----------------------------------------------------------------------
    [  2       4    ]    0.10351614 (  0.076755 -   2.296416 =  -2.219660)
    ----------------------------------------------------------------------
    T2 amplitudes larger than 0.1000 for spin case AA: NULL
    T2 amplitudes larger than 0.1000 for spin case AB: NULL
    T2 amplitudes larger than 0.1000 for spin case BB: NULL

  ==> Computing MR-LDSRG(2)-QC Energy <==

    DSRG transformed Hamiltonian is truncated to quadratic nested commutator.
    Reference:
      J. Chem. Phys. (in preparation)

                  Energy (a.u.)           Non-Diagonal Norm        Amplitude RMS         Timings (s)   
           ---------------------------  ---------------------  ---------------------  -----------------
    Iter.        Corr.         Delta       Hbar1      Hbar2        T1         T2        Hbar     Amp.  
    ---------------------------------------------------------------------------------------------------
        0   -0.088647290798 -8.865e-02   1.457e-01  6.696e-01   4.339e-02  1.764e-01     3.806    0.343
        1   -0.090872624875 -2.225e-03   1.416e-01  2.729e-01   2.134e-02  6.240e-02     3.868    0.336
        2   -0.091201341903 -3.287e-04   1.107e-01  1.651e-01   5.031e-03  2.548e-02     3.851    0.332
        3   -0.091292000800 -9.066e-05   1.147e-01  1.647e-01   2.331e-03  1.067e-02     3.852    0.341
        4   -0.091289214891  2.786e-06   1.122e-01  1.551e-01   8.228e-04  4.485e-03     3.869    0.335
        5   -0.091292051445 -2.837e-06   1.129e-01  1.576e-01   3.645e-04  1.910e-03     3.864    0.330 -> DIIS
        6   -0.091291975836  7.561e-08   1.126e-01  1.562e-01   1.446e-04  8.111e-04     3.839    0.340 -> DIIS
        7   -0.091291245104  7.307e-07   1.127e-01  1.566e-01   1.621e-06  6.207e-06     3.849    0.331 -> DIIS
        8   -0.091291325559 -8.045e-08   1.127e-01  1.566e-01   4.777e-07  1.660e-06     3.846    0.341 -> DIIS
        9   -0.091291323289  2.270e-09   1.127e-01  1.566e-01   9.106e-08  4.773e-07     3.879    0.356
    ---------------------------------------------------------------------------------------------------

  ==> MR-LDSRG(2)-QC Energy Summary <==

    E0 (reference)                      =     -99.406065223639445
    MR-LDSRG(2)-QC correlation energy   =      -0.091291323288796
    MR-LDSRG(2)-QC total energy         =     -99.497356546928245

  ==> Final Excitation Amplitudes Summary <==

    Active Indices:    1    2 
    Largest T1 amplitudes for spin case A:
       i       a                  i       a                  i       a               
    --------------------------------------------------------------------------------
    [  2       4    ] 0.089023 [  2       3    ]-0.085647 [  0       1    ]-0.048800 
    [  1       3    ] 0.011551 [  1       4    ] 0.008705 [  0       2    ] 0.008266 
    [  2       5    ]-0.002667 [  1       5    ]-0.001863 [  0       4    ] 0.000663 
    [  0       3    ]-0.000642 [  0       5    ]-0.000592 [  6       7    ] 0.000206 
    [  8       9    ] 0.000206 
    --------------------------------------------------------------------------------
    Norm of T1A vector: (nonzero elements: 13)                    0.133908108589901.
    --------------------------------------------------------------------------------
    Largest T1 amplitudes for spin case B:
       _       _                  _       _                  _       _               
       i       a                  i       a                  i       a               
    --------------------------------------------------------------------------------
    [  2       4    ] 0.089023 [  2       3    ]-0.085647 [  0       1    ]-0.048800 
    [  1       3    ] 0.011551 [  1       4    ] 0.008705 [  0       2    ] 0.008266 
    [  2       5    ]-0.002667 [  1       5    ]-0.001863 [  0       4    ] 0.000663 
    [  0       3    ]-0.000642 [  0       5    ]-0.000592 [  6       7    ] 0.000206 
    [  8       9    ] 0.000206 
    --------------------------------------------------------------------------------
    Norm of T1B vector: (nonzero elements: 13)                    0.133908108589901.
    --------------------------------------------------------------------------------
    Largest T2 amplitudes for spin case AA:
       i   j   a   b              i   j   a   b              i   j   a   b           
    --------------------------------------------------------------------------------
    [  0   1   1   2]-0.042287 [  1   6   1   7]-0.034985 [  1   8   1   9]-0.034985 
    [  2   6   1   7]-0.031010 [  2   8   1   9]-0.031010 [  2   6   2   7]-0.028548 
    [  2   8   2   9]-0.028548 [  1   6   2   7]-0.026560 [  1   8   2   9]-0.026560 
    [  6   8   7   9]-0.023101 [  1   2   1   3]-0.019149 [  1   2   2   3]-0.016814 
    [  0   1   1   5]-0.015102 [  2   6   4   7] 0.014018 [  2   8   4   9] 0.014018 
    --------------------------------------------------------------------------------
    Norm of T2AA vector: (nonzero elements: 240)                  0.228381733916774.
    --------------------------------------------------------------------------------
    Largest T2 amplitudes for spin case AB:
           _       _                  _       _                  _       _           
       i   j   a   b              i   j   a   b              i   j   a   b           
    --------------------------------------------------------------------------------
    [  0   0   1   1]-0.062411 [  2   2   2   3]-0.051237 [  1   2   1   3]-0.046021 
    [  0   0   1   2]-0.042203 [  6   6   7   7]-0.041786 [  8   8   9   9]-0.041786 
    [  1   6   1   7]-0.037927 [  1   8   1   9]-0.037927 [  2   6   1   7]-0.036181 
    [  2   8   1   9]-0.036181 [  1   1   1   3] 0.036124 [  2   2   1   4] 0.035348 
    [  2   6   2   7]-0.034846 [  2   8   2   9]-0.034846 [  0   0   2   2]-0.034601 
    --------------------------------------------------------------------------------
    Norm of T2AB vector: (nonzero elements: 405)                  0.295719386633689.
    --------------------------------------------------------------------------------
    Largest T2 amplitudes for spin case BB:
       _   _   _   _              _   _   _   _              _   _   _   _           
       i   j   a   b              i   j   a   b              i   j   a   b           
    --------------------------------------------------------------------------------
    [  0   1   1   2]-0.042287 [  1   6   1   7]-0.034985 [  1   8   1   9]-0.034985 
    [  2   6   1   7]-0.031010 [  2   8   1   9]-0.031010 [  2   6   2   7]-0.028548 
    [  2   8   2   9]-0.028548 [  1   6   2   7]-0.026560 [  1   8   2   9]-0.026560 
    [  6   8   7   9]-0.023101 [  1   2   1   3]-0.019149 [  1   2   2   3]-0.016814 
    [  0   1   1   5]-0.015102 [  2   6   4   7] 0.014018 [  2   8   4   9] 0.014018 
    --------------------------------------------------------------------------------
    Norm of T2BB vector: (nonzero elements: 240)                  0.228381733916774.
    --------------------------------------------------------------------------------

  ==> Possible Intruders <==

    T1 amplitudes larger than 0.1000 for spin case A: NULL
    T1 amplitudes larger than 0.1000 for spin case B: NULL
    T2 amplitudes larger than 0.1000 for spin case AA: NULL
    T2 amplitudes larger than 0.1000 for spin case AB: NULL
    T2 amplitudes larger than 0.1000 for spin case BB: NULL

  ==> Total Timings (s) for Computing Commutators <==

             [H1, T1]    [H1, T2]    [H2, T1]    [H2, T2]
    -----------------------------------------------------
    -> C0       0.013       0.026       0.081       1.322
    -> C1       0.082       0.472       0.725      10.713
    -> C2                   1.517       3.601      19.368
    -----------------------------------------------------
	MRDSRG relaxed energy.............................................PASSED

    Psi4 stopped on: Tuesday, 06 November 2018 08:46PM
    Psi4 wall time for execution: 0:00:42.47

*** Psi4 exiting successfully. Buy a developer a beer!
