
    -----------------------------------------------------------------------
          Psi4: An Open-Source Ab Initio Electronic Structure Package
                               Psi4 undefined 

                         Git: Rev {HEAD} f016cba 


    D. G. A. Smith, L. A. Burns, A. C. Simmonett, R. M. Parrish,
    M. C. Schieber, R. Galvelis, P. Kraus, H. Kruse, R. Di Remigio,
    A. Alenaizan, A. M. James, S. Lehtola, J. P. Misiewicz, M. Scheurer,
    R. A. Shaw, J. B. Schriber, Y. Xie, Z. L. Glick, D. A. Sirianni,
    J. S. O'Brien, J. M. Waldrop, A. Kumar, E. G. Hohenstein,
    B. P. Pritchard, B. R. Brooks, H. F. Schaefer III, A. Yu. Sokolov,
    K. Patkowski, A. E. DePrince III, U. Bozkaya, R. A. King,
    F. A. Evangelista, J. M. Turney, T. D. Crawford, C. D. Sherrill,
    J. Chem. Phys. 152(18) 184108 (2020). https://doi.org/10.1063/5.0006002

                            Additional Code Authors
    E. T. Seidl, C. L. Janssen, E. F. Valeev, M. L. Leininger,
    J. F. Gonthier, R. M. Richard, H. R. McAlexander, M. Saitow, X. Wang,
    P. Verma, M. H. Lechner, and A. Jiang

             Previous Authors, Complete List of Code Contributors,
                       and Citations for Specific Modules
    https://github.com/psi4/psi4/blob/master/codemeta.json
    https://github.com/psi4/psi4/graphs/contributors
    http://psicode.org/psi4manual/master/introduction.html#citing-psifour

    -----------------------------------------------------------------------


    Psi4 started on: Sunday, 16 January 2022 01:07AM

    Process ID: 62752
    Host:       Yorks-Mac.local
    PSIDATADIR: /Users/york/src/psi4new/psi4/share/psi4
    Memory:     500.0 MiB
    Threads:    1
    
  ==> Input File <==

--------------------------------------------------------------------------
import forte
refcasscf = -109.090695044539

molecule N2 {
N  0.0000  0.0000  0.0000
N  0.0000  0.0000  2.1180
units au
}

set {
basis              cc-pvdz
reference          rhf
e_convergence      1e-12
d_convergence      1e-12
scf_type           cd
cholesky_tolerance 1e-10
}

set forte{
job_type                  casscf
int_type                  cholesky
cholesky_tolerance        1e-10
casscf_g_convergence      1e-7
casscf_e_convergence      1e-8
casscf_ci_solver          dmrg
restricted_docc           [2,0,0,0,0,2,0,0]
active                    [1,0,1,1,0,1,1,1]
dmrg_sweep_states         [   500,  1000,  2000 ]
dmrg_sweep_energy_conv    [  1e-8,  1e-8,  1e-8 ]
dmrg_sweep_max_sweeps     [     5,     5,    10 ]
dmrg_sweep_noise_prefac   [  0.03,  0.03,   0.0 ]
dmrg_sweep_dvdson_rtol    [  1e-6,  1e-6,  1e-8 ]
}

dmrgscf = energy('forte')
compare_values(refcasscf, dmrgscf, 6, "DMRG-SCF Energy")
--------------------------------------------------------------------------

Scratch directory: /Users/york/scratch/psi4/

  Forte
  ----------------------------------------------------------------------------
  A suite of quantum chemistry methods for strongly correlated electrons

    git branch: dmrg-york - git commit: efc3d7bd

  Developed by:
    Francesco A. Evangelista, Chenyang Li, Kevin P. Hannon,
    Jeffrey B. Schriber, Tianyuan Zhang, Chenxi Cai,
    Nan He, Nicholas Stair, Shuhe Wang, Renke Huang
  ----------------------------------------------------------------------------

  Size of Determinant class: 128 bits

  Preparing forte objects from a Psi4 Wavefunction object
  No reference wave function provided for Forte. Computing SCF orbitals using Psi4 ...

*** tstart() called on Yorks-Mac.local
*** at Sun Jan 16 01:07:47 2022

   => Loading Basis Set <=

    Name: CC-PVDZ
    Role: ORBITAL
    Keyword: BASIS
    atoms 1-2 entry N          line   168 file /Users/york/src/psi4new/psi4/share/psi4/basis/cc-pvdz.gbs 


         ---------------------------------------------------------
                                   SCF
               by Justin Turney, Rob Parrish, Andy Simmonett
                          and Daniel G. A. Smith
                              RHF Reference
                        1 Threads,    500 MiB Core
         ---------------------------------------------------------

  ==> Geometry <==

    Molecular point group: d2h
    Full point group: D_inf_h

    Geometry (in Bohr), charge = 0, multiplicity = 1:

       Center              X                  Y                   Z               Mass       
    ------------   -----------------  -----------------  -----------------  -----------------
         N            0.000000000000     0.000000000000    -1.059000000000    14.003074004430
         N            0.000000000000     0.000000000000     1.059000000000    14.003074004430

  Running in d2h symmetry.

  Rotational constants: A = ************  B =      1.91668  C =      1.91668 [cm^-1]
  Rotational constants: A = ************  B =  57460.53085  C =  57460.53085 [MHz]
  Nuclear repulsion =   23.135033050047216

  Charge       = 0
  Multiplicity = 1
  Electrons    = 14
  Nalpha       = 7
  Nbeta        = 7

  ==> Algorithm <==

  SCF Algorithm Type is CD.
  DIIS enabled.
  MOM disabled.
  Fractional occupation disabled.
  Guess Type is SAD.
  Energy threshold   = 1.00e-12
  Density threshold  = 1.00e-12
  Integral threshold = 1.00e-12

  ==> Primary Basis <==

  Basis Set: CC-PVDZ
    Blend: CC-PVDZ
    Number of shells: 12
    Number of basis functions: 28
    Number of Cartesian functions: 30
    Spherical Harmonics?: true
    Max angular momentum: 2

  ==> Integral Setup <==

  ==> CDJK: Cholesky-decomposed J/K Matrices <==

    J tasked:                     Yes
    K tasked:                     Yes
    wK tasked:                     No
    OpenMP threads:                 1
    Integrals threads:              1
    Memory [MiB]:                 375
    Algorithm:                   Core
    Integral Cache:              NONE
    Schwarz Cutoff:             1E-12
    Cholesky tolerance:      1.00E-10
    No. Cholesky vectors:         318

  Minimum eigenvalue in the overlap matrix is 1.2536843068E-02.
  Reciprocal condition number of the overlap matrix is 4.4699771221E-03.
    Using symmetric orthogonalization.

  ==> Pre-Iterations <==

  SCF Guess: Superposition of Atomic Densities via on-the-fly atomic UHF (no occupation information).

   -------------------------
    Irrep   Nso     Nmo    
   -------------------------
     Ag         7       7 
     B1g        1       1 
     B2g        3       3 
     B3g        3       3 
     Au         1       1 
     B1u        7       7 
     B2u        3       3 
     B3u        3       3 
   -------------------------
    Total      28      28
   -------------------------

  ==> Iterations <==

                        Total Energy        Delta E     RMS |[F,P]|

   @RHF iter SAD:  -108.01608225178370   -1.08016e+02   0.00000e+00 
   @RHF iter   1:  -108.94350733992975   -9.27425e-01   9.21822e-03 DIIS
   @RHF iter   2:  -108.94910729353251   -5.59995e-03   1.68000e-03 DIIS
   @RHF iter   3:  -108.94935660870222   -2.49315e-04   4.50637e-04 DIIS
   @RHF iter   4:  -108.94937735858701   -2.07499e-05   7.14712e-05 DIIS
   @RHF iter   5:  -108.94937786473598   -5.06149e-07   1.19972e-05 DIIS
   @RHF iter   6:  -108.94937787883329   -1.40973e-08   7.10001e-07 DIIS
   @RHF iter   7:  -108.94937787887102   -3.77298e-11   2.64200e-08 DIIS
   @RHF iter   8:  -108.94937787887105   -2.84217e-14   1.78708e-09 DIIS
   @RHF iter   9:  -108.94937787887108   -2.84217e-14   3.00768e-10 DIIS
   @RHF iter  10:  -108.94937787887109   -1.42109e-14   1.37324e-11 DIIS
   @RHF iter  11:  -108.94937787887106    2.84217e-14   4.37720e-13 DIIS
  Energy and wave function converged.


  ==> Post-Iterations <==

    Orbital Energies [Eh]
    ---------------------

    Doubly Occupied:                                                      

       1Ag   -15.693712     1B1u  -15.690731     2Ag    -1.454249  
       2B1u   -0.781546     3Ag    -0.624167     1B2u   -0.598535  
       1B3u   -0.598535  

    Virtual:                                                              

       1B3g    0.163558     1B2g    0.163558     3B1u    0.586680  
       4Ag     0.828753     2B2u    0.878573     2B3u    0.878573  
       5Ag     0.989625     2B3g    1.045916     2B2g    1.045916  
       4B1u    1.109574     5B1u    1.620391     6Ag     1.765040  
       1B1g    1.765040     3B2u    1.859141     3B3u    1.859141  
       6B1u    2.283338     1Au     2.283338     7Ag     2.846742  
       3B3g    2.970439     3B2g    2.970439     7B1u    3.235993  

    Final Occupation by Irrep:
             Ag   B1g   B2g   B3g    Au   B1u   B2u   B3u 
    DOCC [     3,    0,    0,    0,    0,    2,    1,    1 ]

  @RHF Final Energy:  -108.94937787887106

   => Energetics <=

    Nuclear Repulsion Energy =             23.1350330500472161
    One-Electron Energy =                -193.2858766547816458
    Two-Electron Energy =                  61.2014657258633790
    Total Energy =                       -108.9493778788710472

Computation Completed


Properties will be evaluated at   0.000000,   0.000000,   0.000000 [a0]

Properties computed using the SCF density matrix

  Nuclear Dipole Moment: [e a0]
     X:     0.0000      Y:     0.0000      Z:     0.0000

  Electronic Dipole Moment: [e a0]
     X:     0.0000      Y:     0.0000      Z:     0.0000

  Dipole Moment: [e a0]
     X:     0.0000      Y:     0.0000      Z:     0.0000     Total:     0.0000

  Dipole Moment: [D]
     X:     0.0000      Y:     0.0000      Z:     0.0000     Total:     0.0000


*** tstop() called on Yorks-Mac.local at Sun Jan 16 01:07:48 2022
Module time:
	user time   =       1.09 seconds =       0.02 minutes
	system time =       0.02 seconds =       0.00 minutes
	total time  =          1 seconds =       0.02 minutes
Total time:
	user time   =       1.09 seconds =       0.02 minutes
	system time =       0.02 seconds =       0.00 minutes
	total time  =          1 seconds =       0.02 minutes

  Read options for space RESTRICTED_DOCC
  Read options for space ACTIVE
  Read options for space RESTRICTED_DOCC

  ==> MO Space Information <==

  -------------------------------------------------------------------------
                       Ag   B1g   B2g   B3g    Au   B1u   B2u   B3u   Sum
  -------------------------------------------------------------------------
    FROZEN_DOCC         0     0     0     0     0     0     0     0     0
    RESTRICTED_DOCC     2     0     0     0     0     2     0     0     4
    GAS1                1     0     1     1     0     1     1     1     6
    GAS2                0     0     0     0     0     0     0     0     0
    GAS3                0     0     0     0     0     0     0     0     0
    GAS4                0     0     0     0     0     0     0     0     0
    GAS5                0     0     0     0     0     0     0     0     0
    GAS6                0     0     0     0     0     0     0     0     0
    RESTRICTED_UOCC     4     1     2     2     1     4     2     2    18
    FROZEN_UOCC         0     0     0     0     0     0     0     0     0
    Total               7     1     3     3     1     7     3     3    28
  -------------------------------------------------------------------------   => Loading Basis Set <=

    Name: STO-3G
    Role: ORBITAL
    Keyword: MINAO_BASIS
    atoms 1-2 entry N          line    71 file /Users/york/src/psi4new/psi4/share/psi4/basis/sto-3g.gbs 


  Forte will use psi4 integrals

  ==> Primary Basis Set Summary <==

  Basis Set: CC-PVDZ
    Blend: CC-PVDZ
    Number of shells: 12
    Number of basis functions: 28
    Number of Cartesian functions: 30
    Spherical Harmonics?: true
    Max angular momentum: 2


  JK created using Cholesky integrals
  ==> CDJK: Cholesky-decomposed J/K Matrices <==

    J tasked:                     Yes
    K tasked:                     Yes
    wK tasked:                     No
    OpenMP threads:                 1
    Integrals threads:              1
    Memory [MiB]:                 400
    Algorithm:                   Core
    Integral Cache:              NONE
    Schwarz Cutoff:             1E-12
    Cholesky tolerance:      1.00E-10
    No. Cholesky vectors:         318



  ==> Integral Transformation <==

  Number of molecular orbitals:                         28
  Number of correlated molecular orbitals:              28
  Number of frozen occupied orbitals:                    0
  Number of frozen unoccupied orbitals:                  0
  Two-electron integral type:              Cholesky decomposition


  Computing the Cholesky Vectors 

  Computing CD Integrals
  Timing for cholesky transformation:                         0.745 s.
  Need 1.99 MB to store CD integrals in core

  Number of Cholesky vectors required for 1.000e-10 tolerance: 318

  Timing for freezing core and virtual orbitals:              0.000 s.
  Timing for computing Cholesky integrals:                    0.818 s.

                -----------------------------------------------
                  Complete Active Space Self Consistent Field
                                 Kevin Hannon
                -----------------------------------------------


  ==> CASSCF Iteration <==

  iter    ||g||           Delta_E            E_CASSCF       CONV_TYPE

  Transform Integrals takes 0.00573800 s.

  Performing a CAS with DMRG

  ==> Summary of Active Space Solver Input <==

    Irrep.  Multi.(2ms)      N
    --------------------------
       Ag      1  (  0)      1
    --------------------------
    N: number of roots
    ms: spin z component
    Total number of roots:   1
    --------------------------


                    ----------------------------------------
                      Density Matrix Renormalization Group
                               Sebastian Wouters
                    ----------------------------------------
MPS files will be dumped to "/Users/york/src/forte/tests/methods/dmrgscf-1/1Ag_CAS6"

   CheMPS2: a spin-adapted implementation of DMRG for ab initio quantum chemistry
   Copyright (C) 2013-2021 Sebastian Wouters

   This program is free software; you can redistribute it and/or modify
   it under the terms of the GNU General Public License as published by
   the Free Software Foundation; either version 2 of the License, or
   (at your option) any later version.

   This program is distributed in the hope that it will be useful,
   but WITHOUT ANY WARRANTY; without even the implied warranty of
   MERCHANTABILITY or FITNESS FOR A PARTICULAR PURPOSE.  See the
   GNU General Public License for more details.

   You should have received a copy of the GNU General Public License along
   with this program; if not, write to the Free Software Foundation, Inc.,
   51 Franklin Street, Fifth Floor, Boston, MA 02110-1301 USA.


  ==> Computing Energy for Singlet (Ms = 0) Ag <==

   Stats: nIt(DAVIDSON) = 8
Energy at sites (4, 5) is -108.305393862994
   Stats: nIt(DAVIDSON) = 15
Energy at sites (3, 4) is -109.021679633703
   Stats: nIt(DAVIDSON) = 1
Energy at sites (2, 3) is -109.021679633703
   Stats: nIt(DAVIDSON) = 1
Energy at sites (1, 2) is -109.021679633703
******************************************************************
***  Information on left sweep 0 of instruction 0:
***     Elapsed wall time        = 0.015732 seconds
***       |--> S.join            = 5.8e-05 seconds
***       |--> S.solve           = 0.007703 seconds
***       |--> S.split           = 0.000148 seconds
***       |--> Tensor update     = 0.007758 seconds
***              |--> create     = 0.00046 seconds
***              |--> destroy    = 0.000112 seconds
***              |--> disk write = 0.003484 seconds
***              |--> disk read  = 0.002864 seconds
***              |--> calc       = 0.00083 seconds
***     Disk write bandwidth     = 2.13509175314832 MB/s
***     Disk read  bandwidth     = 2.59729737010082 MB/s
***     Minimum energy           = -109.021679633703
***     Maximum discarded weight = 0
******************************************************************
   Stats: nIt(DAVIDSON) = 1
Energy at sites (0, 1) is -109.021679633703
   Stats: nIt(DAVIDSON) = 1
Energy at sites (1, 2) is -109.021679633703
   Stats: nIt(DAVIDSON) = 1
Energy at sites (2, 3) is -109.021679633703
   Stats: nIt(DAVIDSON) = 1
Energy at sites (3, 4) is -109.021679633703
******************************************************************
***  Information on right sweep 0 of instruction 0:
***     Elapsed wall time        = 0.008278 seconds
***       |--> S.join            = 5.1e-05 seconds
***       |--> S.solve           = 0.00147 seconds
***       |--> S.split           = 0.000119 seconds
***       |--> Tensor update     = 0.006586 seconds
***              |--> create     = 0.000425 seconds
***              |--> destroy    = 0.000112 seconds
***              |--> disk write = 0.003142 seconds
***              |--> disk read  = 0.002636 seconds
***              |--> calc       = 0.000263 seconds
***     Disk write bandwidth     = 2.3674919376094 MB/s
***     Disk read  bandwidth     = 2.8219497981672 MB/s
***     Minimum energy           = -109.021679633703
***     Maximum discarded weight = 0
***     Energy difference with respect to previous leftright sweep = 109.021679633703
******************************************************************
   Stats: nIt(DAVIDSON) = 1
Energy at sites (4, 5) is -109.021679633703
   Stats: nIt(DAVIDSON) = 1
Energy at sites (3, 4) is -109.021679633703
   Stats: nIt(DAVIDSON) = 1
Energy at sites (2, 3) is -109.021679633703
   Stats: nIt(DAVIDSON) = 1
Energy at sites (1, 2) is -109.021679633703
******************************************************************
***  Information on left sweep 1 of instruction 0:
***     Elapsed wall time        = 0.006804 seconds
***       |--> S.join            = 4.6e-05 seconds
***       |--> S.solve           = 0.001207 seconds
***       |--> S.split           = 0.000102 seconds
***       |--> Tensor update     = 0.005403 seconds
***              |--> create     = 0.000349 seconds
***              |--> destroy    = 9.4e-05 seconds
***              |--> disk write = 0.002565 seconds
***              |--> disk read  = 0.002181 seconds
***              |--> calc       = 0.000209 seconds
***     Disk write bandwidth     = 2.90006224872076 MB/s
***     Disk read  bandwidth     = 3.4106646804075 MB/s
***     Minimum energy           = -109.021679633703
***     Maximum discarded weight = 0
******************************************************************
   Stats: nIt(DAVIDSON) = 1
Energy at sites (0, 1) is -109.021679633703
   Stats: nIt(DAVIDSON) = 1
Energy at sites (1, 2) is -109.021679633703
   Stats: nIt(DAVIDSON) = 1
Energy at sites (2, 3) is -109.021679633703
   Stats: nIt(DAVIDSON) = 1
Energy at sites (3, 4) is -109.021679633703
******************************************************************
***  Information on right sweep 1 of instruction 0:
***     Elapsed wall time        = 0.006784 seconds
***       |--> S.join            = 4.1e-05 seconds
***       |--> S.solve           = 0.001167 seconds
***       |--> S.split           = 9.9e-05 seconds
***       |--> Tensor update     = 0.005447 seconds
***              |--> create     = 0.000344 seconds
***              |--> destroy    = 8.8e-05 seconds
***              |--> disk write = 0.002662 seconds
***              |--> disk read  = 0.002138 seconds
***              |--> calc       = 0.000214 seconds
***     Disk write bandwidth     = 2.79438755370727 MB/s
***     Disk read  bandwidth     = 3.47926083628099 MB/s
***     Minimum energy           = -109.021679633703
***     Maximum discarded weight = 0
***     Energy difference with respect to previous leftright sweep = 0
******************************************************************
***  Information on completed instruction 0:
***     The reduced virtual dimension DSU(2)               = 500
***     The total number of reduced MPS variables          = 86
***     Minimum energy encountered during all instructions = -109.021679633703
***     Minimum energy encountered during the last sweep   = -109.021679633703
***     Maximum discarded weight during the last sweep     = 0
******************************************************************
   Stats: nIt(DAVIDSON) = 1
Energy at sites (4, 5) is -109.021679633703
   Stats: nIt(DAVIDSON) = 1
Energy at sites (3, 4) is -109.021679633703
   Stats: nIt(DAVIDSON) = 1
Energy at sites (2, 3) is -109.021679633703
   Stats: nIt(DAVIDSON) = 1
Energy at sites (1, 2) is -109.021679633703
******************************************************************
***  Information on left sweep 0 of instruction 1:
***     Elapsed wall time        = 0.006847 seconds
***       |--> S.join            = 4.5e-05 seconds
***       |--> S.solve           = 0.001276 seconds
***       |--> S.split           = 0.000103 seconds
***       |--> Tensor update     = 0.005392 seconds
***              |--> create     = 0.00035 seconds
***              |--> destroy    = 0.000107 seconds
***              |--> disk write = 0.002539 seconds
***              |--> disk read  = 0.002185 seconds
***              |--> calc       = 0.000207 seconds
***     Disk write bandwidth     = 2.92975961715981 MB/s
***     Disk read  bandwidth     = 3.4044209006722 MB/s
***     Minimum energy           = -109.021679633703
***     Maximum discarded weight = 0
******************************************************************
   Stats: nIt(DAVIDSON) = 1
Energy at sites (0, 1) is -109.021679633703
   Stats: nIt(DAVIDSON) = 1
Energy at sites (1, 2) is -109.021679633703
   Stats: nIt(DAVIDSON) = 1
Energy at sites (2, 3) is -109.021679633703
   Stats: nIt(DAVIDSON) = 1
Energy at sites (3, 4) is -109.021679633703
******************************************************************
***  Information on right sweep 0 of instruction 1:
***     Elapsed wall time        = 0.007784 seconds
***       |--> S.join            = 4.5e-05 seconds
***       |--> S.solve           = 0.001345 seconds
***       |--> S.split           = 9.9e-05 seconds
***       |--> Tensor update     = 0.006264 seconds
***              |--> create     = 0.000362 seconds
***              |--> destroy    = 9e-05 seconds
***              |--> disk write = 0.003431 seconds
***              |--> disk read  = 0.00216 seconds
***              |--> calc       = 0.000215 seconds
***     Disk write bandwidth     = 2.16807335120045 MB/s
***     Disk read  bandwidth     = 3.4438239203559 MB/s
***     Minimum energy           = -109.021679633703
***     Maximum discarded weight = 0
***     Energy difference with respect to previous leftright sweep = 0
******************************************************************
***  Information on completed instruction 1:
***     The reduced virtual dimension DSU(2)               = 1000
***     The total number of reduced MPS variables          = 86
***     Minimum energy encountered during all instructions = -109.021679633703
***     Minimum energy encountered during the last sweep   = -109.021679633703
***     Maximum discarded weight during the last sweep     = 0
******************************************************************
   Stats: nIt(DAVIDSON) = 4
Energy at sites (4, 5) is -109.021679633703
   Stats: nIt(DAVIDSON) = 4
Energy at sites (3, 4) is -109.021679633703
   Stats: nIt(DAVIDSON) = 1
Energy at sites (2, 3) is -109.021679633703
   Stats: nIt(DAVIDSON) = 1
Energy at sites (1, 2) is -109.021679633703
******************************************************************
***  Information on left sweep 0 of instruction 2:
***     Elapsed wall time        = 0.008194 seconds
***       |--> S.join            = 4.9e-05 seconds
***       |--> S.solve           = 0.00216 seconds
***       |--> S.split           = 0.000103 seconds
***       |--> Tensor update     = 0.005852 seconds
***              |--> create     = 0.000347 seconds
***              |--> destroy    = 9.5e-05 seconds
***              |--> disk write = 0.003039 seconds
***              |--> disk read  = 0.002158 seconds
***              |--> calc       = 0.00021 seconds
***     Disk write bandwidth     = 2.44773269758761 MB/s
***     Disk read  bandwidth     = 3.44701560146837 MB/s
***     Minimum energy           = -109.021679633703
***     Maximum discarded weight = 0
******************************************************************
   Stats: nIt(DAVIDSON) = 1
Energy at sites (0, 1) is -109.021679633703
   Stats: nIt(DAVIDSON) = 1
Energy at sites (1, 2) is -109.021679633703
   Stats: nIt(DAVIDSON) = 1
Energy at sites (2, 3) is -109.021679633703
   Stats: nIt(DAVIDSON) = 1
Energy at sites (3, 4) is -109.021679633703
******************************************************************
***  Information on right sweep 0 of instruction 2:
***     Elapsed wall time        = 0.007529 seconds
***       |--> S.join            = 4e-05 seconds
***       |--> S.solve           = 0.00117 seconds
***       |--> S.split           = 9.7e-05 seconds
***       |--> Tensor update     = 0.006189 seconds
***              |--> create     = 0.000344 seconds
***              |--> destroy    = 8.6e-05 seconds
***              |--> disk write = 0.003316 seconds
***              |--> disk read  = 0.002222 seconds
***              |--> calc       = 0.000216 seconds
***     Disk write bandwidth     = 2.24326286730059 MB/s
***     Disk read  bandwidth     = 3.34773162374831 MB/s
***     Minimum energy           = -109.021679633703
***     Maximum discarded weight = 0
***     Energy difference with respect to previous leftright sweep = 2.27373675443232e-13
******************************************************************
***  Information on completed instruction 2:
***     The reduced virtual dimension DSU(2)               = 2000
***     The total number of reduced MPS variables          = 86
***     Minimum energy encountered during all instructions = -109.021679633703
***     Minimum energy encountered during the last sweep   = -109.021679633703
***     Maximum discarded weight during the last sweep     = 0
******************************************************************


  ==> Energy Summary <==

    Multi.(2ms)  Irrep.  No.               Energy      <S^2>
    --------------------------------------------------------
       1  (  0)    Ag     0     -109.021679633703       n/a
    --------------------------------------------------------
   CheMPS2: a spin-adapted implementation of DMRG for ab initio quantum chemistry
   Copyright (C) 2013-2021 Sebastian Wouters

   This program is free software; you can redistribute it and/or modify
   it under the terms of the GNU General Public License as published by
   the Free Software Foundation; either version 2 of the License, or
   (at your option) any later version.

   This program is distributed in the hope that it will be useful,
   but WITHOUT ANY WARRANTY; without even the implied warranty of
   MERCHANTABILITY or FITNESS FOR A PARTICULAR PURPOSE.  See the
   GNU General Public License for more details.

   You should have received a copy of the GNU General Public License along
   with this program; if not, write to the Free Software Foundation, Inc.,
   51 Franklin Street, Fifth Floor, Boston, MA 02110-1301 USA.

Loaded MPS CheMPS2_MPS0.h5 converged y/n? : 0
********************************************
***  2-RDM and Correlations calculation  ***
********************************************
   N(N-1)                     = 30
   Double trace of DMRG 2-RDM = 30
   Econst + 0.5 * trace(2DM-A * Ham) = -109.021679633703
   NOON of irrep Ag = [ 1.9931548621638 ].
   NOON of irrep B2g = [ 0.0586918715283926 ].
   NOON of irrep B3g = [ 0.0586918713971239 ].
   NOON of irrep B1u = [ 0.00146978691414796 ].
   NOON of irrep B2u = [ 1.94399580414261 ].
   NOON of irrep B3u = [ 1.94399580385392 ].
   Single-orbital entropies (Hamiltonian index order is used!) = [ 0.0287392409644943 , 0.211176636712789 , 0.211176636406165 , 0.010920891019597 , 0.205821024325967 , 0.205821024953664 ].
   Idistance(0) = 1.04752156502761
   Idistance(1) = 1.59335473993552
   Idistance(2) = 3.16335346772529
***************************************************
***  Timing information 2-RDM and Correlations  ***
***************************************************
***     Elapsed wall time        = 0.017898 seconds
***       |--> MPS gauge change  = 0.000118 seconds
***       |--> Diagram calc      = 0.000343 seconds
***       |--> Tensor update     = 0.017262 seconds
***              |--> create     = 0.000939 seconds
***              |--> destroy    = 0.000273 seconds
***              |--> disk write = 0.009007 seconds
***              |--> disk read  = 0.006449 seconds
***              |--> calc       = 0.000581 seconds
***     Disk write bandwidth     = 2.14473486767237 MB/s
***     Disk read  bandwidth     = 2.99544533309428 MB/s
***************************************************


 CAS took 0.174527 seconds.

 FormFockIntermediates took 0.00627700 s.

 FormOrbitalGradient took 0.00057900 s.

 FormDiagHessian took 0.00009100 s.

 Update function takes 0.00698000 s
    1 0.009467022133  -109.021679633703  -109.021679633703    0.2 s       ~

  Transform Integrals takes 0.00598600 s.

  Performing a CAS with DMRG

  ==> Summary of Active Space Solver Input <==

    Irrep.  Multi.(2ms)      N
    --------------------------
       Ag      1  (  0)      1
    --------------------------
    N: number of roots
    ms: spin z component
    Total number of roots:   1
    --------------------------


                    ----------------------------------------
                      Density Matrix Renormalization Group
                               Sebastian Wouters
                    ----------------------------------------
MPS files will be dumped to "/Users/york/src/forte/tests/methods/dmrgscf-1/1Ag_CAS6"

   CheMPS2: a spin-adapted implementation of DMRG for ab initio quantum chemistry
   Copyright (C) 2013-2021 Sebastian Wouters

   This program is free software; you can redistribute it and/or modify
   it under the terms of the GNU General Public License as published by
   the Free Software Foundation; either version 2 of the License, or
   (at your option) any later version.

   This program is distributed in the hope that it will be useful,
   but WITHOUT ANY WARRANTY; without even the implied warranty of
   MERCHANTABILITY or FITNESS FOR A PARTICULAR PURPOSE.  See the
   GNU General Public License for more details.

   You should have received a copy of the GNU General Public License along
   with this program; if not, write to the Free Software Foundation, Inc.,
   51 Franklin Street, Fifth Floor, Boston, MA 02110-1301 USA.


  ==> Computing Energy for Singlet (Ms = 0) Ag <==

   Stats: nIt(DAVIDSON) = 8
Energy at sites (4, 5) is -108.324711971369
   Stats: nIt(DAVIDSON) = 15
Energy at sites (3, 4) is -109.029997623517
   Stats: nIt(DAVIDSON) = 1
Energy at sites (2, 3) is -109.029997623517
   Stats: nIt(DAVIDSON) = 1
Energy at sites (1, 2) is -109.029997623517
******************************************************************
***  Information on left sweep 0 of instruction 0:
***     Elapsed wall time        = 0.011987 seconds
***       |--> S.join            = 4.8e-05 seconds
***       |--> S.solve           = 0.006183 seconds
***       |--> S.split           = 0.000105 seconds
***       |--> Tensor update     = 0.005606 seconds
***              |--> create     = 0.000345 seconds
***              |--> destroy    = 9e-05 seconds
***              |--> disk write = 0.002694 seconds
***              |--> disk read  = 0.002266 seconds
***              |--> calc       = 0.000205 seconds
***     Disk write bandwidth     = 2.76119512545239 MB/s
***     Disk read  bandwidth     = 3.2827271261998 MB/s
***     Minimum energy           = -109.029997623517
***     Maximum discarded weight = 0
******************************************************************
   Stats: nIt(DAVIDSON) = 1
Energy at sites (0, 1) is -109.029997623517
   Stats: nIt(DAVIDSON) = 1
Energy at sites (1, 2) is -109.029997623517
   Stats: nIt(DAVIDSON) = 1
Energy at sites (2, 3) is -109.029997623517
   Stats: nIt(DAVIDSON) = 1
Energy at sites (3, 4) is -109.029997623517
******************************************************************
***  Information on right sweep 0 of instruction 0:
***     Elapsed wall time        = 0.00656 seconds
***       |--> S.join            = 4.2e-05 seconds
***       |--> S.solve           = 0.001158 seconds
***       |--> S.split           = 9.5e-05 seconds
***       |--> Tensor update     = 0.005223 seconds
***              |--> create     = 0.000325 seconds
***              |--> destroy    = 0.00011 seconds
***              |--> disk write = 0.002479 seconds
***              |--> disk read  = 0.002098 seconds
***              |--> calc       = 0.000209 seconds
***     Disk write bandwidth     = 3.00066949091115 MB/s
***     Disk read  bandwidth     = 3.54559564726823 MB/s
***     Minimum energy           = -109.029997623517
***     Maximum discarded weight = 0
***     Energy difference with respect to previous leftright sweep = 109.029997623517
******************************************************************
   Stats: nIt(DAVIDSON) = 1
Energy at sites (4, 5) is -109.029997623517
   Stats: nIt(DAVIDSON) = 1
Energy at sites (3, 4) is -109.029997623517
   Stats: nIt(DAVIDSON) = 1
Energy at sites (2, 3) is -109.029997623517
   Stats: nIt(DAVIDSON) = 1
Energy at sites (1, 2) is -109.029997623517
******************************************************************
***  Information on left sweep 1 of instruction 0:
***     Elapsed wall time        = 0.00667 seconds
***       |--> S.join            = 4.6e-05 seconds
***       |--> S.solve           = 0.001214 seconds
***       |--> S.split           = 0.000103 seconds
***       |--> Tensor update     = 0.005263 seconds
***              |--> create     = 0.000322 seconds
***              |--> destroy    = 9.6e-05 seconds
***              |--> disk write = 0.002521 seconds
***              |--> disk read  = 0.00212 seconds
***              |--> calc       = 0.000201 seconds
***     Disk write bandwidth     = 2.95067817055484 MB/s
***     Disk read  bandwidth     = 3.50880173017394 MB/s
***     Minimum energy           = -109.029997623517
***     Maximum discarded weight = 0
******************************************************************
   Stats: nIt(DAVIDSON) = 1
Energy at sites (0, 1) is -109.029997623517
   Stats: nIt(DAVIDSON) = 1
Energy at sites (1, 2) is -109.029997623517
   Stats: nIt(DAVIDSON) = 1
Energy at sites (2, 3) is -109.029997623517
   Stats: nIt(DAVIDSON) = 1
Energy at sites (3, 4) is -109.029997623517
******************************************************************
***  Information on right sweep 1 of instruction 0:
***     Elapsed wall time        = 0.006686 seconds
***       |--> S.join            = 4.1e-05 seconds
***       |--> S.solve           = 0.001184 seconds
***       |--> S.split           = 9.6e-05 seconds
***       |--> Tensor update     = 0.005334 seconds
***              |--> create     = 0.000319 seconds
***              |--> destroy    = 8.4e-05 seconds
***              |--> disk write = 0.002635 seconds
***              |--> disk read  = 0.002083 seconds
***              |--> calc       = 0.00021 seconds
***     Disk write bandwidth     = 2.82302074685721 MB/s
***     Disk read  bandwidth     = 3.57112802110838 MB/s
***     Minimum energy           = -109.029997623517
***     Maximum discarded weight = 0
***     Energy difference with respect to previous leftright sweep = 0
******************************************************************
***  Information on completed instruction 0:
***     The reduced virtual dimension DSU(2)               = 500
***     The total number of reduced MPS variables          = 86
***     Minimum energy encountered during all instructions = -109.029997623517
***     Minimum energy encountered during the last sweep   = -109.029997623517
***     Maximum discarded weight during the last sweep     = 0
******************************************************************
   Stats: nIt(DAVIDSON) = 1
Energy at sites (4, 5) is -109.029997623517
   Stats: nIt(DAVIDSON) = 1
Energy at sites (3, 4) is -109.029997623517
   Stats: nIt(DAVIDSON) = 1
Energy at sites (2, 3) is -109.029997623517
   Stats: nIt(DAVIDSON) = 1
Energy at sites (1, 2) is -109.029997623517
******************************************************************
***  Information on left sweep 0 of instruction 1:
***     Elapsed wall time        = 0.006742 seconds
***       |--> S.join            = 4.9e-05 seconds
***       |--> S.solve           = 0.001173 seconds
***       |--> S.split           = 0.000108 seconds
***       |--> Tensor update     = 0.005384 seconds
***              |--> create     = 0.000327 seconds
***              |--> destroy    = 9.5e-05 seconds
***              |--> disk write = 0.002561 seconds
***              |--> disk read  = 0.00219 seconds
***              |--> calc       = 0.000208 seconds
***     Disk write bandwidth     = 2.90459182661802 MB/s
***     Disk read  bandwidth     = 3.39664825021404 MB/s
***     Minimum energy           = -109.029997623517
***     Maximum discarded weight = 0
******************************************************************
   Stats: nIt(DAVIDSON) = 1
Energy at sites (0, 1) is -109.029997623517
   Stats: nIt(DAVIDSON) = 1
Energy at sites (1, 2) is -109.029997623517
   Stats: nIt(DAVIDSON) = 1
Energy at sites (2, 3) is -109.029997623517
   Stats: nIt(DAVIDSON) = 1
Energy at sites (3, 4) is -109.029997623517
******************************************************************
***  Information on right sweep 0 of instruction 1:
***     Elapsed wall time        = 0.006852 seconds
***       |--> S.join            = 4.3e-05 seconds
***       |--> S.solve           = 0.001143 seconds
***       |--> S.split           = 9.7e-05 seconds
***       |--> Tensor update     = 0.00554 seconds
***              |--> create     = 0.000322 seconds
***              |--> destroy    = 9e-05 seconds
***              |--> disk write = 0.002631 seconds
***              |--> disk read  = 0.002282 seconds
***              |--> calc       = 0.000213 seconds
***     Disk write bandwidth     = 2.8273126826183 MB/s
***     Disk read  bandwidth     = 3.25971063451742 MB/s
***     Minimum energy           = -109.029997623517
***     Maximum discarded weight = 0
***     Energy difference with respect to previous leftright sweep = 0
******************************************************************
***  Information on completed instruction 1:
***     The reduced virtual dimension DSU(2)               = 1000
***     The total number of reduced MPS variables          = 86
***     Minimum energy encountered during all instructions = -109.029997623517
***     Minimum energy encountered during the last sweep   = -109.029997623517
***     Maximum discarded weight during the last sweep     = 0
******************************************************************
   Stats: nIt(DAVIDSON) = 3
Energy at sites (4, 5) is -109.029997623517
   Stats: nIt(DAVIDSON) = 4
Energy at sites (3, 4) is -109.029997623517
   Stats: nIt(DAVIDSON) = 1
Energy at sites (2, 3) is -109.029997623517
   Stats: nIt(DAVIDSON) = 1
Energy at sites (1, 2) is -109.029997623517
******************************************************************
***  Information on left sweep 0 of instruction 2:
***     Elapsed wall time        = 0.007636 seconds
***       |--> S.join            = 4.6e-05 seconds
***       |--> S.solve           = 0.002139 seconds
***       |--> S.split           = 0.000102 seconds
***       |--> Tensor update     = 0.005321 seconds
***              |--> create     = 0.000329 seconds
***              |--> destroy    = 9.8e-05 seconds
***              |--> disk write = 0.002546 seconds
***              |--> disk read  = 0.002138 seconds
***              |--> calc       = 0.000209 seconds
***     Disk write bandwidth     = 2.92170450430823 MB/s
***     Disk read  bandwidth     = 3.47926083628099 MB/s
***     Minimum energy           = -109.029997623517
***     Maximum discarded weight = 0
******************************************************************
   Stats: nIt(DAVIDSON) = 1
Energy at sites (0, 1) is -109.029997623517
   Stats: nIt(DAVIDSON) = 1
Energy at sites (1, 2) is -109.029997623517
   Stats: nIt(DAVIDSON) = 1
Energy at sites (2, 3) is -109.029997623517
   Stats: nIt(DAVIDSON) = 1
Energy at sites (3, 4) is -109.029997623517
******************************************************************
***  Information on right sweep 0 of instruction 2:
***     Elapsed wall time        = 0.006752 seconds
***       |--> S.join            = 4.3e-05 seconds
***       |--> S.solve           = 0.001258 seconds
***       |--> S.split           = 0.0001 seconds
***       |--> Tensor update     = 0.005322 seconds
***              |--> create     = 0.000329 seconds
***              |--> destroy    = 8.6e-05 seconds
***              |--> disk write = 0.002562 seconds
***              |--> disk read  = 0.002125 seconds
***              |--> calc       = 0.000215 seconds
***     Disk write bandwidth     = 2.90345810615486 MB/s
***     Disk read  bandwidth     = 3.50054572610294 MB/s
***     Minimum energy           = -109.029997623517
***     Maximum discarded weight = 0
***     Energy difference with respect to previous leftright sweep = 1.84741111297626e-13
******************************************************************
***  Information on completed instruction 2:
***     The reduced virtual dimension DSU(2)               = 2000
***     The total number of reduced MPS variables          = 86
***     Minimum energy encountered during all instructions = -109.029997623517
***     Minimum energy encountered during the last sweep   = -109.029997623517
***     Maximum discarded weight during the last sweep     = 0
******************************************************************


  ==> Energy Summary <==

    Multi.(2ms)  Irrep.  No.               Energy      <S^2>
    --------------------------------------------------------
       1  (  0)    Ag     0     -109.029997623517       n/a
    --------------------------------------------------------
   CheMPS2: a spin-adapted implementation of DMRG for ab initio quantum chemistry
   Copyright (C) 2013-2021 Sebastian Wouters

   This program is free software; you can redistribute it and/or modify
   it under the terms of the GNU General Public License as published by
   the Free Software Foundation; either version 2 of the License, or
   (at your option) any later version.

   This program is distributed in the hope that it will be useful,
   but WITHOUT ANY WARRANTY; without even the implied warranty of
   MERCHANTABILITY or FITNESS FOR A PARTICULAR PURPOSE.  See the
   GNU General Public License for more details.

   You should have received a copy of the GNU General Public License along
   with this program; if not, write to the Free Software Foundation, Inc.,
   51 Franklin Street, Fifth Floor, Boston, MA 02110-1301 USA.

Loaded MPS CheMPS2_MPS0.h5 converged y/n? : 0
********************************************
***  2-RDM and Correlations calculation  ***
********************************************
   N(N-1)                     = 30
   Double trace of DMRG 2-RDM = 30
   Econst + 0.5 * trace(2DM-A * Ham) = -109.029997623517
   NOON of irrep Ag = [ 1.99115211836531 ].
   NOON of irrep B2g = [ 0.0627870925482852 ].
   NOON of irrep B3g = [ 0.0627870925205829 ].
   NOON of irrep B1u = [ 0.00342120751087748 ].
   NOON of irrep B2u = [ 1.93992624462332 ].
   NOON of irrep B3u = [ 1.93992624443162 ].
   Single-orbital entropies (Hamiltonian index order is used!) = [ 0.0412092456664611 , 0.22292778810482 , 0.222927787916548 , 0.0236330318809924 , 0.217619742102647 , 0.217619742613855 ].
   Idistance(0) = 1.10375156659448
   Idistance(1) = 1.68243883890947
   Idistance(2) = 3.38401638370228
***************************************************
***  Timing information 2-RDM and Correlations  ***
***************************************************
***     Elapsed wall time        = 0.016742 seconds
***       |--> MPS gauge change  = 0.000116 seconds
***       |--> Diagram calc      = 0.000284 seconds
***       |--> Tensor update     = 0.016237 seconds
***              |--> create     = 0.000943 seconds
***              |--> destroy    = 0.000276 seconds
***              |--> disk write = 0.007854 seconds
***              |--> disk read  = 0.006572 seconds
***              |--> calc       = 0.00058 seconds
***     Disk write bandwidth     = 2.45959090312261 MB/s
***     Disk read  bandwidth     = 2.93938328562462 MB/s
***************************************************


 CAS took 0.161774 seconds.

 FormFockIntermediates took 0.00513200 s.

 FormOrbitalGradient took 0.00048100 s.

 FormDiagHessian took 0.00007200 s.

 Update function takes 0.00571700 s
    2 0.009143858134    -0.008317989814  -109.029997623517    0.2 s       ~

  Transform Integrals takes 0.00459300 s.

  Performing a CAS with DMRG

  ==> Summary of Active Space Solver Input <==

    Irrep.  Multi.(2ms)      N
    --------------------------
       Ag      1  (  0)      1
    --------------------------
    N: number of roots
    ms: spin z component
    Total number of roots:   1
    --------------------------


                    ----------------------------------------
                      Density Matrix Renormalization Group
                               Sebastian Wouters
                    ----------------------------------------
MPS files will be dumped to "/Users/york/src/forte/tests/methods/dmrgscf-1/1Ag_CAS6"

   CheMPS2: a spin-adapted implementation of DMRG for ab initio quantum chemistry
   Copyright (C) 2013-2021 Sebastian Wouters

   This program is free software; you can redistribute it and/or modify
   it under the terms of the GNU General Public License as published by
   the Free Software Foundation; either version 2 of the License, or
   (at your option) any later version.

   This program is distributed in the hope that it will be useful,
   but WITHOUT ANY WARRANTY; without even the implied warranty of
   MERCHANTABILITY or FITNESS FOR A PARTICULAR PURPOSE.  See the
   GNU General Public License for more details.

   You should have received a copy of the GNU General Public License along
   with this program; if not, write to the Free Software Foundation, Inc.,
   51 Franklin Street, Fifth Floor, Boston, MA 02110-1301 USA.


  ==> Computing Energy for Singlet (Ms = 0) Ag <==

   Stats: nIt(DAVIDSON) = 8
Energy at sites (4, 5) is -108.321398588435
   Stats: nIt(DAVIDSON) = 15
Energy at sites (3, 4) is -109.040301880894
   Stats: nIt(DAVIDSON) = 1
Energy at sites (2, 3) is -109.040301880894
   Stats: nIt(DAVIDSON) = 1
Energy at sites (1, 2) is -109.040301880894
******************************************************************
***  Information on left sweep 0 of instruction 0:
***     Elapsed wall time        = 0.012496 seconds
***       |--> S.join            = 4.6e-05 seconds
***       |--> S.solve           = 0.005808 seconds
***       |--> S.split           = 0.000102 seconds
***       |--> Tensor update     = 0.006495 seconds
***              |--> create     = 0.000337 seconds
***              |--> destroy    = 9.2e-05 seconds
***              |--> disk write = 0.002656 seconds
***              |--> disk read  = 0.002149 seconds
***              |--> calc       = 0.001259 seconds
***     Disk write bandwidth     = 2.80070017619305 MB/s
***     Disk read  bandwidth     = 3.46145168355921 MB/s
***     Minimum energy           = -109.040301880894
***     Maximum discarded weight = 0
******************************************************************
   Stats: nIt(DAVIDSON) = 1
Energy at sites (0, 1) is -109.040301880894
   Stats: nIt(DAVIDSON) = 1
Energy at sites (1, 2) is -109.040301880894
   Stats: nIt(DAVIDSON) = 1
Energy at sites (2, 3) is -109.040301880894
   Stats: nIt(DAVIDSON) = 1
Energy at sites (3, 4) is -109.040301880894
******************************************************************
***  Information on right sweep 0 of instruction 0:
***     Elapsed wall time        = 0.007233 seconds
***       |--> S.join            = 4.1e-05 seconds
***       |--> S.solve           = 0.001187 seconds
***       |--> S.split           = 9.9e-05 seconds
***       |--> Tensor update     = 0.005859 seconds
***              |--> create     = 0.000391 seconds
***              |--> destroy    = 9.2e-05 seconds
***              |--> disk write = 0.002646 seconds
***              |--> disk read  = 0.002143 seconds
***              |--> calc       = 0.000583 seconds
***     Disk write bandwidth     = 2.81128483294359 MB/s
***     Disk read  bandwidth     = 3.4711431021786 MB/s
***     Minimum energy           = -109.040301880894
***     Maximum discarded weight = 0
***     Energy difference with respect to previous leftright sweep = 109.040301880894
******************************************************************
   Stats: nIt(DAVIDSON) = 1
Energy at sites (4, 5) is -109.040301880894
   Stats: nIt(DAVIDSON) = 1
Energy at sites (3, 4) is -109.040301880894
   Stats: nIt(DAVIDSON) = 1
Energy at sites (2, 3) is -109.040301880894
   Stats: nIt(DAVIDSON) = 1
Energy at sites (1, 2) is -109.040301880894
******************************************************************
***  Information on left sweep 1 of instruction 0:
***     Elapsed wall time        = 0.006713 seconds
***       |--> S.join            = 4.7e-05 seconds
***       |--> S.solve           = 0.001206 seconds
***       |--> S.split           = 0.000106 seconds
***       |--> Tensor update     = 0.005312 seconds
***              |--> create     = 0.000331 seconds
***              |--> destroy    = 8.9e-05 seconds
***              |--> disk write = 0.002524 seconds
***              |--> disk read  = 0.002154 seconds
***              |--> calc       = 0.000208 seconds
***     Disk write bandwidth     = 2.9471710253442 MB/s
***     Disk read  bandwidth     = 3.45341674464659 MB/s
***     Minimum energy           = -109.040301880894
***     Maximum discarded weight = 0
******************************************************************
   Stats: nIt(DAVIDSON) = 1
Energy at sites (0, 1) is -109.040301880894
   Stats: nIt(DAVIDSON) = 1
Energy at sites (1, 2) is -109.040301880894
   Stats: nIt(DAVIDSON) = 1
Energy at sites (2, 3) is -109.040301880894
   Stats: nIt(DAVIDSON) = 1
Energy at sites (3, 4) is -109.040301880894
******************************************************************
***  Information on right sweep 1 of instruction 0:
***     Elapsed wall time        = 0.006686 seconds
***       |--> S.join            = 4.3e-05 seconds
***       |--> S.solve           = 0.001167 seconds
***       |--> S.split           = 9.9e-05 seconds
***       |--> Tensor update     = 0.005349 seconds
***              |--> create     = 0.000329 seconds
***              |--> destroy    = 8.5e-05 seconds
***              |--> disk write = 0.002591 seconds
***              |--> disk read  = 0.002124 seconds
***              |--> calc       = 0.000216 seconds
***     Disk write bandwidth     = 2.8709608907637 MB/s
***     Disk read  bandwidth     = 3.50219381731109 MB/s
***     Minimum energy           = -109.040301880894
***     Maximum discarded weight = 0
***     Energy difference with respect to previous leftright sweep = 0
******************************************************************
***  Information on completed instruction 0:
***     The reduced virtual dimension DSU(2)               = 500
***     The total number of reduced MPS variables          = 86
***     Minimum energy encountered during all instructions = -109.040301880894
***     Minimum energy encountered during the last sweep   = -109.040301880894
***     Maximum discarded weight during the last sweep     = 0
******************************************************************
   Stats: nIt(DAVIDSON) = 1
Energy at sites (4, 5) is -109.040301880894
   Stats: nIt(DAVIDSON) = 1
Energy at sites (3, 4) is -109.040301880894
   Stats: nIt(DAVIDSON) = 1
Energy at sites (2, 3) is -109.040301880894
   Stats: nIt(DAVIDSON) = 1
Energy at sites (1, 2) is -109.040301880894
******************************************************************
***  Information on left sweep 0 of instruction 1:
***     Elapsed wall time        = 0.007568 seconds
***       |--> S.join            = 5.3e-05 seconds
***       |--> S.solve           = 0.00121 seconds
***       |--> S.split           = 0.00011 seconds
***       |--> Tensor update     = 0.006163 seconds
***              |--> create     = 0.00034 seconds
***              |--> destroy    = 0.000101 seconds
***              |--> disk write = 0.003028 seconds
***              |--> disk read  = 0.002437 seconds
***              |--> calc       = 0.000251 seconds
***     Disk write bandwidth     = 2.45662472522086 MB/s
***     Disk read  bandwidth     = 3.0523839425395 MB/s
***     Minimum energy           = -109.040301880894
***     Maximum discarded weight = 0
******************************************************************
   Stats: nIt(DAVIDSON) = 1
Energy at sites (0, 1) is -109.040301880894
   Stats: nIt(DAVIDSON) = 1
Energy at sites (1, 2) is -109.040301880894
   Stats: nIt(DAVIDSON) = 1
Energy at sites (2, 3) is -109.040301880894
   Stats: nIt(DAVIDSON) = 1
Energy at sites (3, 4) is -109.040301880894
******************************************************************
***  Information on right sweep 0 of instruction 1:
***     Elapsed wall time        = 0.006996 seconds
***       |--> S.join            = 4.3e-05 seconds
***       |--> S.solve           = 0.001298 seconds
***       |--> S.split           = 0.0001 seconds
***       |--> Tensor update     = 0.005522 seconds
***              |--> create     = 0.000372 seconds
***              |--> destroy    = 9.4e-05 seconds
***              |--> disk write = 0.002619 seconds
***              |--> disk read  = 0.002145 seconds
***              |--> calc       = 0.000287 seconds
***     Disk write bandwidth     = 2.84026715080899 MB/s
***     Disk read  bandwidth     = 3.46790660511364 MB/s
***     Minimum energy           = -109.040301880894
***     Maximum discarded weight = 0
***     Energy difference with respect to previous leftright sweep = 0
******************************************************************
***  Information on completed instruction 1:
***     The reduced virtual dimension DSU(2)               = 1000
***     The total number of reduced MPS variables          = 86
***     Minimum energy encountered during all instructions = -109.040301880894
***     Minimum energy encountered during the last sweep   = -109.040301880894
***     Maximum discarded weight during the last sweep     = 0
******************************************************************
   Stats: nIt(DAVIDSON) = 3
Energy at sites (4, 5) is -109.040301880894
   Stats: nIt(DAVIDSON) = 4
Energy at sites (3, 4) is -109.040301880894
   Stats: nIt(DAVIDSON) = 1
Energy at sites (2, 3) is -109.040301880894
   Stats: nIt(DAVIDSON) = 1
Energy at sites (1, 2) is -109.040301880894
******************************************************************
***  Information on left sweep 0 of instruction 2:
***     Elapsed wall time        = 0.008527 seconds
***       |--> S.join            = 5e-05 seconds
***       |--> S.solve           = 0.002231 seconds
***       |--> S.split           = 0.000107 seconds
***       |--> Tensor update     = 0.006107 seconds
***              |--> create     = 0.000351 seconds
***              |--> destroy    = 9.2e-05 seconds
***              |--> disk write = 0.002779 seconds
***              |--> disk read  = 0.002339 seconds
***              |--> calc       = 0.000541 seconds
***     Disk write bandwidth     = 2.67673971499415 MB/s
***     Disk read  bandwidth     = 3.18027347925128 MB/s
***     Minimum energy           = -109.040301880894
***     Maximum discarded weight = 0
******************************************************************
   Stats: nIt(DAVIDSON) = 1
Energy at sites (0, 1) is -109.040301880894
   Stats: nIt(DAVIDSON) = 1
Energy at sites (1, 2) is -109.040301880894
   Stats: nIt(DAVIDSON) = 1
Energy at sites (2, 3) is -109.040301880894
   Stats: nIt(DAVIDSON) = 1
Energy at sites (3, 4) is -109.040301880894
******************************************************************
***  Information on right sweep 0 of instruction 2:
***     Elapsed wall time        = 0.006686 seconds
***       |--> S.join            = 4.2e-05 seconds
***       |--> S.solve           = 0.001168 seconds
***       |--> S.split           = 0.0001 seconds
***       |--> Tensor update     = 0.005346 seconds
***              |--> create     = 0.000331 seconds
***              |--> destroy    = 8.6e-05 seconds
***              |--> disk write = 0.002524 seconds
***              |--> disk read  = 0.002183 seconds
***              |--> calc       = 0.000217 seconds
***     Disk write bandwidth     = 2.9471710253442 MB/s
***     Disk read  bandwidth     = 3.40753993035673 MB/s
***     Minimum energy           = -109.040301880894
***     Maximum discarded weight = 0
***     Energy difference with respect to previous leftright sweep = 2.1316282072803e-13
******************************************************************
***  Information on completed instruction 2:
***     The reduced virtual dimension DSU(2)               = 2000
***     The total number of reduced MPS variables          = 86
***     Minimum energy encountered during all instructions = -109.040301880894
***     Minimum energy encountered during the last sweep   = -109.040301880894
***     Maximum discarded weight during the last sweep     = 0
******************************************************************


  ==> Energy Summary <==

    Multi.(2ms)  Irrep.  No.               Energy      <S^2>
    --------------------------------------------------------
       1  (  0)    Ag     0     -109.040301880894       n/a
    --------------------------------------------------------
   CheMPS2: a spin-adapted implementation of DMRG for ab initio quantum chemistry
   Copyright (C) 2013-2021 Sebastian Wouters

   This program is free software; you can redistribute it and/or modify
   it under the terms of the GNU General Public License as published by
   the Free Software Foundation; either version 2 of the License, or
   (at your option) any later version.

   This program is distributed in the hope that it will be useful,
   but WITHOUT ANY WARRANTY; without even the implied warranty of
   MERCHANTABILITY or FITNESS FOR A PARTICULAR PURPOSE.  See the
   GNU General Public License for more details.

   You should have received a copy of the GNU General Public License along
   with this program; if not, write to the Free Software Foundation, Inc.,
   51 Franklin Street, Fifth Floor, Boston, MA 02110-1301 USA.

Loaded MPS CheMPS2_MPS0.h5 converged y/n? : 0
********************************************
***  2-RDM and Correlations calculation  ***
********************************************
   N(N-1)                     = 30
   Double trace of DMRG 2-RDM = 30
   Econst + 0.5 * trace(2DM-A * Ham) = -109.040301880894
   NOON of irrep Ag = [ 1.98868776518002 ].
   NOON of irrep B2g = [ 0.0662754029839012 ].
   NOON of irrep B3g = [ 0.0662754029922859 ].
   NOON of irrep B1u = [ 0.00629853183069658 ].
   NOON of irrep B2u = [ 1.93623144849035 ].
   NOON of irrep B3u = [ 1.93623144852274 ].
   Single-orbital entropies (Hamiltonian index order is used!) = [ 0.0561370550747041 , 0.233373194502108 , 0.233373194333759 , 0.0402682532200018 , 0.228538603963646 , 0.228538604082766 ].
   Idistance(0) = 1.15795224021005
   Idistance(1) = 1.76436179779702
   Idistance(2) = 3.58443806575622
***************************************************
***  Timing information 2-RDM and Correlations  ***
***************************************************
***     Elapsed wall time        = 0.018485 seconds
***       |--> MPS gauge change  = 0.000124 seconds
***       |--> Diagram calc      = 0.000297 seconds
***       |--> Tensor update     = 0.017952 seconds
***              |--> create     = 0.000998 seconds
***              |--> destroy    = 0.000298 seconds
***              |--> disk write = 0.008444 seconds
***              |--> disk read  = 0.007111 seconds
***              |--> calc       = 0.001082 seconds
***     Disk write bandwidth     = 2.28773412519244 MB/s
***     Disk read  bandwidth     = 2.71658373690409 MB/s
***************************************************


 CAS took 0.168051 seconds.

 FormFockIntermediates took 0.00752700 s.

 FormOrbitalGradient took 0.00069600 s.

 FormDiagHessian took 0.00009400 s.

 Update function takes 0.00838800 s
    3 0.008685968158    -0.010304257377  -109.040301880894    0.2 s       ~

  Transform Integrals takes 0.00576500 s.

  Performing a CAS with DMRG

  ==> Summary of Active Space Solver Input <==

    Irrep.  Multi.(2ms)      N
    --------------------------
       Ag      1  (  0)      1
    --------------------------
    N: number of roots
    ms: spin z component
    Total number of roots:   1
    --------------------------


                    ----------------------------------------
                      Density Matrix Renormalization Group
                               Sebastian Wouters
                    ----------------------------------------
MPS files will be dumped to "/Users/york/src/forte/tests/methods/dmrgscf-1/1Ag_CAS6"

   CheMPS2: a spin-adapted implementation of DMRG for ab initio quantum chemistry
   Copyright (C) 2013-2021 Sebastian Wouters

   This program is free software; you can redistribute it and/or modify
   it under the terms of the GNU General Public License as published by
   the Free Software Foundation; either version 2 of the License, or
   (at your option) any later version.

   This program is distributed in the hope that it will be useful,
   but WITHOUT ANY WARRANTY; without even the implied warranty of
   MERCHANTABILITY or FITNESS FOR A PARTICULAR PURPOSE.  See the
   GNU General Public License for more details.

   You should have received a copy of the GNU General Public License along
   with this program; if not, write to the Free Software Foundation, Inc.,
   51 Franklin Street, Fifth Floor, Boston, MA 02110-1301 USA.


  ==> Computing Energy for Singlet (Ms = 0) Ag <==

   Stats: nIt(DAVIDSON) = 8
Energy at sites (4, 5) is -108.292976080069
   Stats: nIt(DAVIDSON) = 15
Energy at sites (3, 4) is -109.052648987745
   Stats: nIt(DAVIDSON) = 1
Energy at sites (2, 3) is -109.052648987745
   Stats: nIt(DAVIDSON) = 1
Energy at sites (1, 2) is -109.052648987745
******************************************************************
***  Information on left sweep 0 of instruction 0:
***     Elapsed wall time        = 0.012519 seconds
***       |--> S.join            = 5e-05 seconds
***       |--> S.solve           = 0.006682 seconds
***       |--> S.split           = 0.000108 seconds
***       |--> Tensor update     = 0.00563 seconds
***              |--> create     = 0.000377 seconds
***              |--> destroy    = 9e-05 seconds
***              |--> disk write = 0.002581 seconds
***              |--> disk read  = 0.002366 seconds
***              |--> calc       = 0.000213 seconds
***     Disk write bandwidth     = 2.88208433474186 MB/s
***     Disk read  bandwidth     = 3.14398126287775 MB/s
***     Minimum energy           = -109.052648987745
***     Maximum discarded weight = 0
******************************************************************
   Stats: nIt(DAVIDSON) = 1
Energy at sites (0, 1) is -109.052648987745
   Stats: nIt(DAVIDSON) = 1
Energy at sites (1, 2) is -109.052648987745
   Stats: nIt(DAVIDSON) = 1
Energy at sites (2, 3) is -109.052648987745
   Stats: nIt(DAVIDSON) = 1
Energy at sites (3, 4) is -109.052648987745
******************************************************************
***  Information on right sweep 0 of instruction 0:
***     Elapsed wall time        = 0.006533 seconds
***       |--> S.join            = 4.1e-05 seconds
***       |--> S.solve           = 0.001151 seconds
***       |--> S.split           = 9.6e-05 seconds
***       |--> Tensor update     = 0.005206 seconds
***              |--> create     = 0.000337 seconds
***              |--> destroy    = 8.5e-05 seconds
***              |--> disk write = 0.002496 seconds
***              |--> disk read  = 0.002076 seconds
***              |--> calc       = 0.00021 seconds
***     Disk write bandwidth     = 2.98023223876953 MB/s
***     Disk read  bandwidth     = 3.5831693969021 MB/s
***     Minimum energy           = -109.052648987745
***     Maximum discarded weight = 0
***     Energy difference with respect to previous leftright sweep = 109.052648987745
******************************************************************
   Stats: nIt(DAVIDSON) = 1
Energy at sites (4, 5) is -109.052648987745
   Stats: nIt(DAVIDSON) = 1
Energy at sites (3, 4) is -109.052648987745
   Stats: nIt(DAVIDSON) = 1
Energy at sites (2, 3) is -109.052648987745
   Stats: nIt(DAVIDSON) = 1
Energy at sites (1, 2) is -109.052648987745
******************************************************************
***  Information on left sweep 1 of instruction 0:
***     Elapsed wall time        = 0.007004 seconds
***       |--> S.join            = 4.9e-05 seconds
***       |--> S.solve           = 0.001202 seconds
***       |--> S.split           = 0.000105 seconds
***       |--> Tensor update     = 0.005602 seconds
***              |--> create     = 0.000357 seconds
***              |--> destroy    = 9.1e-05 seconds
***              |--> disk write = 0.002695 seconds
***              |--> disk read  = 0.002245 seconds
***              |--> calc       = 0.000212 seconds
***     Disk write bandwidth     = 2.76017056325371 MB/s
***     Disk read  bandwidth     = 3.31343415054287 MB/s
***     Minimum energy           = -109.052648987745
***     Maximum discarded weight = 0
******************************************************************
   Stats: nIt(DAVIDSON) = 1
Energy at sites (0, 1) is -109.052648987745
   Stats: nIt(DAVIDSON) = 1
Energy at sites (1, 2) is -109.052648987745
   Stats: nIt(DAVIDSON) = 1
Energy at sites (2, 3) is -109.052648987745
   Stats: nIt(DAVIDSON) = 1
Energy at sites (3, 4) is -109.052648987745
******************************************************************
***  Information on right sweep 1 of instruction 0:
***     Elapsed wall time        = 0.007795 seconds
***       |--> S.join            = 4.4e-05 seconds
***       |--> S.solve           = 0.001215 seconds
***       |--> S.split           = 0.000104 seconds
***       |--> Tensor update     = 0.0064 seconds
***              |--> create     = 0.00041 seconds
***              |--> destroy    = 9e-05 seconds
***              |--> disk write = 0.002774 seconds
***              |--> disk read  = 0.002302 seconds
***              |--> calc       = 0.00082 seconds
***     Disk write bandwidth     = 2.68156440806372 MB/s
***     Disk read  bandwidth     = 3.23138995133308 MB/s
***     Minimum energy           = -109.052648987745
***     Maximum discarded weight = 0
***     Energy difference with respect to previous leftright sweep = 0
******************************************************************
***  Information on completed instruction 0:
***     The reduced virtual dimension DSU(2)               = 500
***     The total number of reduced MPS variables          = 86
***     Minimum energy encountered during all instructions = -109.052648987745
***     Minimum energy encountered during the last sweep   = -109.052648987745
***     Maximum discarded weight during the last sweep     = 0
******************************************************************
   Stats: nIt(DAVIDSON) = 1
Energy at sites (4, 5) is -109.052648987745
   Stats: nIt(DAVIDSON) = 1
Energy at sites (3, 4) is -109.052648987745
   Stats: nIt(DAVIDSON) = 1
Energy at sites (2, 3) is -109.052648987745
   Stats: nIt(DAVIDSON) = 1
Energy at sites (1, 2) is -109.052648987745
******************************************************************
***  Information on left sweep 0 of instruction 1:
***     Elapsed wall time        = 0.007402 seconds
***       |--> S.join            = 4.7e-05 seconds
***       |--> S.solve           = 0.001191 seconds
***       |--> S.split           = 0.000105 seconds
***       |--> Tensor update     = 0.006029 seconds
***              |--> create     = 0.000361 seconds
***              |--> destroy    = 8.6e-05 seconds
***              |--> disk write = 0.002738 seconds
***              |--> disk read  = 0.002337 seconds
***              |--> calc       = 0.000499 seconds
***     Disk write bandwidth     = 2.71682237690604 MB/s
***     Disk read  bandwidth     = 3.18299515103498 MB/s
***     Minimum energy           = -109.052648987745
***     Maximum discarded weight = 0
******************************************************************
   Stats: nIt(DAVIDSON) = 1
Energy at sites (0, 1) is -109.052648987745
   Stats: nIt(DAVIDSON) = 1
Energy at sites (1, 2) is -109.052648987745
   Stats: nIt(DAVIDSON) = 1
Energy at sites (2, 3) is -109.052648987745
   Stats: nIt(DAVIDSON) = 1
Energy at sites (3, 4) is -109.052648987745
******************************************************************
***  Information on right sweep 0 of instruction 1:
***     Elapsed wall time        = 0.007711 seconds
***       |--> S.join            = 4.2e-05 seconds
***       |--> S.solve           = 0.001175 seconds
***       |--> S.split           = 0.000101 seconds
***       |--> Tensor update     = 0.006361 seconds
***              |--> create     = 0.000358 seconds
***              |--> destroy    = 8.5e-05 seconds
***              |--> disk write = 0.002804 seconds
***              |--> disk read  = 0.002443 seconds
***              |--> calc       = 0.000664 seconds
***     Disk write bandwidth     = 2.6528743466365 MB/s
***     Disk read  bandwidth     = 3.04488729757215 MB/s
***     Minimum energy           = -109.052648987745
***     Maximum discarded weight = 0
***     Energy difference with respect to previous leftright sweep = 0
******************************************************************
***  Information on completed instruction 1:
***     The reduced virtual dimension DSU(2)               = 1000
***     The total number of reduced MPS variables          = 86
***     Minimum energy encountered during all instructions = -109.052648987745
***     Minimum energy encountered during the last sweep   = -109.052648987745
***     Maximum discarded weight during the last sweep     = 0
******************************************************************
   Stats: nIt(DAVIDSON) = 4
Energy at sites (4, 5) is -109.052648987745
   Stats: nIt(DAVIDSON) = 4
Energy at sites (3, 4) is -109.052648987745
   Stats: nIt(DAVIDSON) = 1
Energy at sites (2, 3) is -109.052648987745
   Stats: nIt(DAVIDSON) = 1
Energy at sites (1, 2) is -109.052648987745
******************************************************************
***  Information on left sweep 0 of instruction 2:
***     Elapsed wall time        = 0.008375 seconds
***       |--> S.join            = 4.7e-05 seconds
***       |--> S.solve           = 0.002176 seconds
***       |--> S.split           = 0.000103 seconds
***       |--> Tensor update     = 0.006019 seconds
***              |--> create     = 0.000365 seconds
***              |--> destroy    = 9.6e-05 seconds
***              |--> disk write = 0.002742 seconds
***              |--> disk read  = 0.002331 seconds
***              |--> calc       = 0.000482 seconds
***     Disk write bandwidth     = 2.71285910575082 MB/s
***     Disk read  bandwidth     = 3.19118818874678 MB/s
***     Minimum energy           = -109.052648987745
***     Maximum discarded weight = 0
******************************************************************
   Stats: nIt(DAVIDSON) = 1
Energy at sites (0, 1) is -109.052648987745
   Stats: nIt(DAVIDSON) = 1
Energy at sites (1, 2) is -109.052648987745
   Stats: nIt(DAVIDSON) = 1
Energy at sites (2, 3) is -109.052648987745
   Stats: nIt(DAVIDSON) = 1
Energy at sites (3, 4) is -109.052648987745
******************************************************************
***  Information on right sweep 0 of instruction 2:
***     Elapsed wall time        = 0.007569 seconds
***       |--> S.join            = 4.3e-05 seconds
***       |--> S.solve           = 0.001174 seconds
***       |--> S.split           = 0.000101 seconds
***       |--> Tensor update     = 0.00622 seconds
***              |--> create     = 0.000397 seconds
***              |--> destroy    = 8.9e-05 seconds
***              |--> disk write = 0.002822 seconds
***              |--> disk read  = 0.002302 seconds
***              |--> calc       = 0.000607 seconds
***     Disk write bandwidth     = 2.63595310700523 MB/s
***     Disk read  bandwidth     = 3.23138995133308 MB/s
***     Minimum energy           = -109.052648987745
***     Maximum discarded weight = 0
***     Energy difference with respect to previous leftright sweep = 3.26849658449646e-13
******************************************************************
***  Information on completed instruction 2:
***     The reduced virtual dimension DSU(2)               = 2000
***     The total number of reduced MPS variables          = 86
***     Minimum energy encountered during all instructions = -109.052648987745
***     Minimum energy encountered during the last sweep   = -109.052648987745
***     Maximum discarded weight during the last sweep     = 0
******************************************************************


  ==> Energy Summary <==

    Multi.(2ms)  Irrep.  No.               Energy      <S^2>
    --------------------------------------------------------
       1  (  0)    Ag     0     -109.052648987745       n/a
    --------------------------------------------------------
   CheMPS2: a spin-adapted implementation of DMRG for ab initio quantum chemistry
   Copyright (C) 2013-2021 Sebastian Wouters

   This program is free software; you can redistribute it and/or modify
   it under the terms of the GNU General Public License as published by
   the Free Software Foundation; either version 2 of the License, or
   (at your option) any later version.

   This program is distributed in the hope that it will be useful,
   but WITHOUT ANY WARRANTY; without even the implied warranty of
   MERCHANTABILITY or FITNESS FOR A PARTICULAR PURPOSE.  See the
   GNU General Public License for more details.

   You should have received a copy of the GNU General Public License along
   with this program; if not, write to the Free Software Foundation, Inc.,
   51 Franklin Street, Fifth Floor, Boston, MA 02110-1301 USA.

Loaded MPS CheMPS2_MPS0.h5 converged y/n? : 0
********************************************
***  2-RDM and Correlations calculation  ***
********************************************
   N(N-1)                     = 30
   Double trace of DMRG 2-RDM = 30
   Econst + 0.5 * trace(2DM-A * Ham) = -109.052648987745
   NOON of irrep Ag = [ 1.98591888427607 ].
   NOON of irrep B2g = [ 0.0684227034858386 ].
   NOON of irrep B3g = [ 0.0684227033990819 ].
   NOON of irrep B1u = [ 0.0100443187754326 ].
   NOON of irrep B2u = [ 1.93359569490634 ].
   NOON of irrep B3u = [ 1.93359569515725 ].
   Single-orbital entropies (Hamiltonian index order is used!) = [ 0.0723033168960861 , 0.24071920881919 , 0.240719208165301 , 0.0598159782527197 , 0.236854464178461 , 0.236854464178848 ].
   Idistance(0) = 1.20329083942835
   Idistance(1) = 1.8260361321774
   Idistance(2) = 3.72699267121163
***************************************************
***  Timing information 2-RDM and Correlations  ***
***************************************************
***     Elapsed wall time        = 0.016541 seconds
***       |--> MPS gauge change  = 0.000114 seconds
***       |--> Diagram calc      = 0.000275 seconds
***       |--> Tensor update     = 0.016049 seconds
***              |--> create     = 0.000972 seconds
***              |--> destroy    = 0.000268 seconds
***              |--> disk write = 0.007585 seconds
***              |--> disk read  = 0.006421 seconds
***              |--> calc       = 0.000794 seconds
***     Disk write bandwidth     = 2.54681963785432 MB/s
***     Disk read  bandwidth     = 3.00850754604034 MB/s
***************************************************


 CAS took 0.166540 seconds.

 FormFockIntermediates took 0.00510200 s.

 FormOrbitalGradient took 0.00056400 s.

 FormDiagHessian took 0.00007100 s.

 Update function takes 0.00576600 s
    4 0.008026183999    -0.012347106851  -109.052648987745    0.2 s       ~

  Transform Integrals takes 0.00459300 s.

  Performing a CAS with DMRG

  ==> Summary of Active Space Solver Input <==

    Irrep.  Multi.(2ms)      N
    --------------------------
       Ag      1  (  0)      1
    --------------------------
    N: number of roots
    ms: spin z component
    Total number of roots:   1
    --------------------------


                    ----------------------------------------
                      Density Matrix Renormalization Group
                               Sebastian Wouters
                    ----------------------------------------
MPS files will be dumped to "/Users/york/src/forte/tests/methods/dmrgscf-1/1Ag_CAS6"

   CheMPS2: a spin-adapted implementation of DMRG for ab initio quantum chemistry
   Copyright (C) 2013-2021 Sebastian Wouters

   This program is free software; you can redistribute it and/or modify
   it under the terms of the GNU General Public License as published by
   the Free Software Foundation; either version 2 of the License, or
   (at your option) any later version.

   This program is distributed in the hope that it will be useful,
   but WITHOUT ANY WARRANTY; without even the implied warranty of
   MERCHANTABILITY or FITNESS FOR A PARTICULAR PURPOSE.  See the
   GNU General Public License for more details.

   You should have received a copy of the GNU General Public License along
   with this program; if not, write to the Free Software Foundation, Inc.,
   51 Franklin Street, Fifth Floor, Boston, MA 02110-1301 USA.


  ==> Computing Energy for Singlet (Ms = 0) Ag <==

   Stats: nIt(DAVIDSON) = 8
Energy at sites (4, 5) is -108.232412667764
   Stats: nIt(DAVIDSON) = 15
Energy at sites (3, 4) is -109.066750547135
   Stats: nIt(DAVIDSON) = 1
Energy at sites (2, 3) is -109.066750547135
   Stats: nIt(DAVIDSON) = 1
Energy at sites (1, 2) is -109.066750547135
******************************************************************
***  Information on left sweep 0 of instruction 0:
***     Elapsed wall time        = 0.012291 seconds
***       |--> S.join            = 4.2e-05 seconds
***       |--> S.solve           = 0.005675 seconds
***       |--> S.split           = 0.0001 seconds
***       |--> Tensor update     = 0.00643 seconds
***              |--> create     = 0.000323 seconds
***              |--> destroy    = 8.5e-05 seconds
***              |--> disk write = 0.002653 seconds
***              |--> disk read  = 0.002099 seconds
***              |--> calc       = 0.001265 seconds
***     Disk write bandwidth     = 2.80386719486195 MB/s
***     Disk read  bandwidth     = 3.5439064640156 MB/s
***     Minimum energy           = -109.066750547135
***     Maximum discarded weight = 0
******************************************************************
   Stats: nIt(DAVIDSON) = 1
Energy at sites (0, 1) is -109.066750547135
   Stats: nIt(DAVIDSON) = 1
Energy at sites (1, 2) is -109.066750547135
   Stats: nIt(DAVIDSON) = 1
Energy at sites (2, 3) is -109.066750547135
   Stats: nIt(DAVIDSON) = 1
Energy at sites (3, 4) is -109.066750547135
******************************************************************
***  Information on right sweep 0 of instruction 0:
***     Elapsed wall time        = 0.007138 seconds
***       |--> S.join            = 3.9e-05 seconds
[...]
       1  (  0)    Ag     0     -109.090695044380       n/a
    --------------------------------------------------------
   CheMPS2: a spin-adapted implementation of DMRG for ab initio quantum chemistry
   Copyright (C) 2013-2021 Sebastian Wouters

   This program is free software; you can redistribute it and/or modify
   it under the terms of the GNU General Public License as published by
   the Free Software Foundation; either version 2 of the License, or
   (at your option) any later version.

   This program is distributed in the hope that it will be useful,
   but WITHOUT ANY WARRANTY; without even the implied warranty of
   MERCHANTABILITY or FITNESS FOR A PARTICULAR PURPOSE.  See the
   GNU General Public License for more details.

   You should have received a copy of the GNU General Public License along
   with this program; if not, write to the Free Software Foundation, Inc.,
   51 Franklin Street, Fifth Floor, Boston, MA 02110-1301 USA.

Loaded MPS CheMPS2_MPS0.h5 converged y/n? : 0
********************************************
***  2-RDM and Correlations calculation  ***
********************************************
   N(N-1)                     = 30
   Double trace of DMRG 2-RDM = 30
   Econst + 0.5 * trace(2DM-A * Ham) = -109.09069504438
   NOON of irrep Ag = [ 1.98068496165702 ].
   NOON of irrep B2g = [ 0.062424588047255 ].
   NOON of irrep B3g = [ 0.0624245898482279 ].
   NOON of irrep B1u = [ 0.0195020844694835 ].
   NOON of irrep B2u = [ 1.93748188710575 ].
   NOON of irrep B3u = [ 1.93748188887227 ].
   Single-orbital entropies (Hamiltonian index order is used!) = [ 0.100386261049351 , 0.229298623142642 , 0.229298626766209 , 0.1009268749591 , 0.229483877797022 , 0.229483874244014 ].
   Idistance(0) = 1.19424666049352
   Idistance(1) = 1.79462397710347
   Idistance(2) = 3.67124966829924
***************************************************
***  Timing information 2-RDM and Correlations  ***
***************************************************
***     Elapsed wall time        = 0.019336 seconds
***       |--> MPS gauge change  = 0.000127 seconds
***       |--> Diagram calc      = 0.000286 seconds
***       |--> Tensor update     = 0.018813 seconds
***              |--> create     = 0.000943 seconds
***              |--> destroy    = 0.000266 seconds
***              |--> disk write = 0.008814 seconds
***              |--> disk read  = 0.00743 seconds
***              |--> calc       = 0.001342 seconds
***     Disk write bandwidth     = 2.19169808862321 MB/s
***     Disk read  bandwidth     = 2.59994979180686 MB/s
***************************************************


 CAS took 0.162645 seconds.

 FormFockIntermediates took 0.00518600 s.

 FormOrbitalGradient took 0.00047600 s.

 FormDiagHessian took 0.00007100 s.

 Update function takes 0.00576300 s
   19 0.000001681863    -0.000000000012  -109.090695044380    0.2 s  DIIS ~

  Transform Integrals takes 0.00433500 s.

  Performing a CAS with DMRG

  ==> Summary of Active Space Solver Input <==

    Irrep.  Multi.(2ms)      N
    --------------------------
       Ag      1  (  0)      1
    --------------------------
    N: number of roots
    ms: spin z component
    Total number of roots:   1
    --------------------------


                    ----------------------------------------
                      Density Matrix Renormalization Group
                               Sebastian Wouters
                    ----------------------------------------
MPS files will be dumped to "/Users/york/src/forte/tests/methods/dmrgscf-1/1Ag_CAS6"

   CheMPS2: a spin-adapted implementation of DMRG for ab initio quantum chemistry
   Copyright (C) 2013-2021 Sebastian Wouters

   This program is free software; you can redistribute it and/or modify
   it under the terms of the GNU General Public License as published by
   the Free Software Foundation; either version 2 of the License, or
   (at your option) any later version.

   This program is distributed in the hope that it will be useful,
   but WITHOUT ANY WARRANTY; without even the implied warranty of
   MERCHANTABILITY or FITNESS FOR A PARTICULAR PURPOSE.  See the
   GNU General Public License for more details.

   You should have received a copy of the GNU General Public License along
   with this program; if not, write to the Free Software Foundation, Inc.,
   51 Franklin Street, Fifth Floor, Boston, MA 02110-1301 USA.


  ==> Computing Energy for Singlet (Ms = 0) Ag <==

   Stats: nIt(DAVIDSON) = 8
Energy at sites (4, 5) is -107.587517988302
   Stats: nIt(DAVIDSON) = 17
Energy at sites (3, 4) is -109.090695044385
   Stats: nIt(DAVIDSON) = 1
Energy at sites (2, 3) is -109.090695044385
   Stats: nIt(DAVIDSON) = 1
Energy at sites (1, 2) is -109.090695044385
******************************************************************
***  Information on left sweep 0 of instruction 0:
***     Elapsed wall time        = 0.012763 seconds
***       |--> S.join            = 4.3e-05 seconds
***       |--> S.solve           = 0.006367 seconds
***       |--> S.split           = 0.000101 seconds
***       |--> Tensor update     = 0.006208 seconds
***              |--> create     = 0.000334 seconds
***              |--> destroy    = 9.1e-05 seconds
***              |--> disk write = 0.002927 seconds
***              |--> disk read  = 0.002271 seconds
***              |--> calc       = 0.000584 seconds
***     Disk write bandwidth     = 2.54139380525068 MB/s
***     Disk read  bandwidth     = 3.27549963362781 MB/s
***     Minimum energy           = -109.090695044385
***     Maximum discarded weight = 0
******************************************************************
   Stats: nIt(DAVIDSON) = 1
Energy at sites (0, 1) is -109.090695044385
   Stats: nIt(DAVIDSON) = 1
Energy at sites (1, 2) is -109.090695044385
   Stats: nIt(DAVIDSON) = 1
Energy at sites (2, 3) is -109.090695044385
   Stats: nIt(DAVIDSON) = 1
Energy at sites (3, 4) is -109.090695044385
******************************************************************
***  Information on right sweep 0 of instruction 0:
***     Elapsed wall time        = 0.007281 seconds
***       |--> S.join            = 4.1e-05 seconds
***       |--> S.solve           = 0.001163 seconds
***       |--> S.split           = 9.7e-05 seconds
***       |--> Tensor update     = 0.00594 seconds
***              |--> create     = 0.000335 seconds
***              |--> destroy    = 9e-05 seconds
***              |--> disk write = 0.002755 seconds
***              |--> disk read  = 0.002262 seconds
***              |--> calc       = 0.000494 seconds
***     Disk write bandwidth     = 2.70005795570554 MB/s
***     Disk read  bandwidth     = 3.28853212553879 MB/s
***     Minimum energy           = -109.090695044385
***     Maximum discarded weight = 0
***     Energy difference with respect to previous leftright sweep = 109.090695044385
******************************************************************
   Stats: nIt(DAVIDSON) = 1
Energy at sites (4, 5) is -109.090695044385
   Stats: nIt(DAVIDSON) = 1
Energy at sites (3, 4) is -109.090695044385
   Stats: nIt(DAVIDSON) = 1
Energy at sites (2, 3) is -109.090695044385
   Stats: nIt(DAVIDSON) = 1
Energy at sites (1, 2) is -109.090695044385
******************************************************************
***  Information on left sweep 1 of instruction 0:
***     Elapsed wall time        = 0.006747 seconds
***       |--> S.join            = 4.8e-05 seconds
***       |--> S.solve           = 0.001208 seconds
***       |--> S.split           = 0.000106 seconds
***       |--> Tensor update     = 0.005341 seconds
***              |--> create     = 0.000333 seconds
***              |--> destroy    = 8.9e-05 seconds
***              |--> disk write = 0.002562 seconds
***              |--> disk read  = 0.002146 seconds
***              |--> calc       = 0.00021 seconds
***     Disk write bandwidth     = 2.90345810615486 MB/s
***     Disk read  bandwidth     = 3.46629061881116 MB/s
***     Minimum energy           = -109.090695044385
***     Maximum discarded weight = 0
******************************************************************
   Stats: nIt(DAVIDSON) = 1
Energy at sites (0, 1) is -109.090695044385
   Stats: nIt(DAVIDSON) = 1
Energy at sites (1, 2) is -109.090695044385
   Stats: nIt(DAVIDSON) = 1
Energy at sites (2, 3) is -109.090695044385
   Stats: nIt(DAVIDSON) = 1
Energy at sites (3, 4) is -109.090695044385
******************************************************************
***  Information on right sweep 1 of instruction 0:
***     Elapsed wall time        = 0.006736 seconds
***       |--> S.join            = 4.3e-05 seconds
***       |--> S.solve           = 0.001167 seconds
***       |--> S.split           = 9.9e-05 seconds
***       |--> Tensor update     = 0.005396 seconds
***              |--> create     = 0.000329 seconds
***              |--> destroy    = 8.6e-05 seconds
***              |--> disk write = 0.002647 seconds
***              |--> disk read  = 0.002117 seconds
***              |--> calc       = 0.000216 seconds
***     Disk write bandwidth     = 2.81022276840527 MB/s
***     Disk read  bandwidth     = 3.51377405194556 MB/s
***     Minimum energy           = -109.090695044385
***     Maximum discarded weight = 0
***     Energy difference with respect to previous leftright sweep = 1.4210854715202e-14
******************************************************************
***  Information on completed instruction 0:
***     The reduced virtual dimension DSU(2)               = 500
***     The total number of reduced MPS variables          = 86
***     Minimum energy encountered during all instructions = -109.090695044385
***     Minimum energy encountered during the last sweep   = -109.090695044385
***     Maximum discarded weight during the last sweep     = 0
******************************************************************
   Stats: nIt(DAVIDSON) = 1
Energy at sites (4, 5) is -109.090695044385
   Stats: nIt(DAVIDSON) = 1
Energy at sites (3, 4) is -109.090695044385
   Stats: nIt(DAVIDSON) = 1
Energy at sites (2, 3) is -109.090695044385
   Stats: nIt(DAVIDSON) = 1
Energy at sites (1, 2) is -109.090695044385
******************************************************************
***  Information on left sweep 0 of instruction 1:
***     Elapsed wall time        = 0.006701 seconds
***       |--> S.join            = 4.4e-05 seconds
***       |--> S.solve           = 0.001175 seconds
***       |--> S.split           = 0.0001 seconds
***       |--> Tensor update     = 0.00535 seconds
***              |--> create     = 0.000335 seconds
***              |--> destroy    = 9.9e-05 seconds
***              |--> disk write = 0.002568 seconds
***              |--> disk read  = 0.002136 seconds
***              |--> calc       = 0.000206 seconds
***     Disk write bandwidth     = 2.896674325533 MB/s
***     Disk read  bandwidth     = 3.48251857114642 MB/s
***     Minimum energy           = -109.090695044385
***     Maximum discarded weight = 0
******************************************************************
   Stats: nIt(DAVIDSON) = 1
Energy at sites (0, 1) is -109.090695044385
   Stats: nIt(DAVIDSON) = 1
Energy at sites (1, 2) is -109.090695044385
   Stats: nIt(DAVIDSON) = 1
Energy at sites (2, 3) is -109.090695044385
   Stats: nIt(DAVIDSON) = 1
Energy at sites (3, 4) is -109.090695044385
******************************************************************
***  Information on right sweep 0 of instruction 1:
***     Elapsed wall time        = 0.00694 seconds
***       |--> S.join            = 4.2e-05 seconds
***       |--> S.solve           = 0.001175 seconds
***       |--> S.split           = 9.9e-05 seconds
***       |--> Tensor update     = 0.00559 seconds
***              |--> create     = 0.000336 seconds
***              |--> destroy    = 9.1e-05 seconds
***              |--> disk write = 0.002792 seconds
***              |--> disk read  = 0.002152 seconds
***              |--> calc       = 0.000215 seconds
***     Disk write bandwidth     = 2.66427638537563 MB/s
***     Disk read  bandwidth     = 3.45662623976243 MB/s
***     Minimum energy           = -109.090695044385
***     Maximum discarded weight = 0
***     Energy difference with respect to previous leftright sweep = 1.4210854715202e-14
******************************************************************
***  Information on completed instruction 1:
***     The reduced virtual dimension DSU(2)               = 1000
***     The total number of reduced MPS variables          = 86
***     Minimum energy encountered during all instructions = -109.090695044385
***     Minimum energy encountered during the last sweep   = -109.090695044385
***     Maximum discarded weight during the last sweep     = 0
******************************************************************
   Stats: nIt(DAVIDSON) = 4
Energy at sites (4, 5) is -109.090695044385
   Stats: nIt(DAVIDSON) = 4
Energy at sites (3, 4) is -109.090695044385
   Stats: nIt(DAVIDSON) = 1
Energy at sites (2, 3) is -109.090695044385
   Stats: nIt(DAVIDSON) = 1
Energy at sites (1, 2) is -109.090695044385
******************************************************************
***  Information on left sweep 0 of instruction 2:
***     Elapsed wall time        = 0.007757 seconds
***       |--> S.join            = 4.7e-05 seconds
***       |--> S.solve           = 0.002161 seconds
***       |--> S.split           = 9.9e-05 seconds
***       |--> Tensor update     = 0.005416 seconds
***              |--> create     = 0.000334 seconds
***              |--> destroy    = 9.2e-05 seconds
***              |--> disk write = 0.002606 seconds
***              |--> disk read  = 0.002172 seconds
***              |--> calc       = 0.00021 seconds
***     Disk write bandwidth     = 2.85443578970405 MB/s
***     Disk read  bandwidth     = 3.42479726886222 MB/s
***     Minimum energy           = -109.090695044385
***     Maximum discarded weight = 0
******************************************************************
   Stats: nIt(DAVIDSON) = 1
Energy at sites (0, 1) is -109.090695044385
   Stats: nIt(DAVIDSON) = 1
Energy at sites (1, 2) is -109.090695044385
   Stats: nIt(DAVIDSON) = 1
Energy at sites (2, 3) is -109.090695044385
   Stats: nIt(DAVIDSON) = 1
Energy at sites (3, 4) is -109.090695044385
******************************************************************
***  Information on right sweep 0 of instruction 2:
***     Elapsed wall time        = 0.006758 seconds
***       |--> S.join            = 4.1e-05 seconds
***       |--> S.solve           = 0.00122 seconds
***       |--> S.split           = 9.8e-05 seconds
***       |--> Tensor update     = 0.005368 seconds
***              |--> create     = 0.000331 seconds
***              |--> destroy    = 8.5e-05 seconds
***              |--> disk write = 0.002588 seconds
***              |--> disk read  = 0.00214 seconds
***              |--> calc       = 0.000218 seconds
***     Disk write bandwidth     = 2.87428889797865 MB/s
***     Disk read  bandwidth     = 3.4760091906396 MB/s
***     Minimum energy           = -109.090695044385
***     Maximum discarded weight = 0
***     Energy difference with respect to previous leftright sweep = 3.69482222595252e-13
******************************************************************
***  Information on completed instruction 2:
***     The reduced virtual dimension DSU(2)               = 2000
***     The total number of reduced MPS variables          = 86
***     Minimum energy encountered during all instructions = -109.090695044385
***     Minimum energy encountered during the last sweep   = -109.090695044385
***     Maximum discarded weight during the last sweep     = 0
******************************************************************


  ==> Energy Summary <==

    Multi.(2ms)  Irrep.  No.               Energy      <S^2>
    --------------------------------------------------------
       1  (  0)    Ag     0     -109.090695044385       n/a
    --------------------------------------------------------
   CheMPS2: a spin-adapted implementation of DMRG for ab initio quantum chemistry
   Copyright (C) 2013-2021 Sebastian Wouters

   This program is free software; you can redistribute it and/or modify
   it under the terms of the GNU General Public License as published by
   the Free Software Foundation; either version 2 of the License, or
   (at your option) any later version.

   This program is distributed in the hope that it will be useful,
   but WITHOUT ANY WARRANTY; without even the implied warranty of
   MERCHANTABILITY or FITNESS FOR A PARTICULAR PURPOSE.  See the
   GNU General Public License for more details.

   You should have received a copy of the GNU General Public License along
   with this program; if not, write to the Free Software Foundation, Inc.,
   51 Franklin Street, Fifth Floor, Boston, MA 02110-1301 USA.

Loaded MPS CheMPS2_MPS0.h5 converged y/n? : 0
********************************************
***  2-RDM and Correlations calculation  ***
********************************************
   N(N-1)                     = 30
   Double trace of DMRG 2-RDM = 30
   Econst + 0.5 * trace(2DM-A * Ham) = -109.090695044385
   NOON of irrep Ag = [ 1.98068496154258 ].
   NOON of irrep B2g = [ 0.0624245904391269 ].
   NOON of irrep B3g = [ 0.0624245922388451 ].
   NOON of irrep B1u = [ 0.019502084372448 ].
   NOON of irrep B2u = [ 1.93748188482083 ].
   NOON of irrep B3u = [ 1.93748188658617 ].
   Single-orbital entropies (Hamiltonian index order is used!) = [ 0.100386261349944 , 0.229298628889831 , 0.229298632511132 , 0.100926874648101 , 0.229483883330062 , 0.229483879779161 ].
   Idistance(0) = 1.19424668471916
   Idistance(1) = 1.79462401160999
   Idistance(2) = 3.6712497311284
***************************************************
***  Timing information 2-RDM and Correlations  ***
***************************************************
***     Elapsed wall time        = 0.01776 seconds
***       |--> MPS gauge change  = 0.000113 seconds
***       |--> Diagram calc      = 0.000277 seconds
***       |--> Tensor update     = 0.017262 seconds
***              |--> create     = 0.000933 seconds
***              |--> destroy    = 0.000266 seconds
***              |--> disk write = 0.008195 seconds
***              |--> disk read  = 0.006862 seconds
***              |--> calc       = 0.00099 seconds
***     Disk write bandwidth     = 2.35724550983832 MB/s
***     Disk read  bandwidth     = 2.8151598590972 MB/s
***************************************************


 CAS took 0.156915 seconds.

 FormFockIntermediates took 0.00503700 s.

 FormOrbitalGradient took 0.00048600 s.

 FormDiagHessian took 0.00007000 s.

 Update function takes 0.00563100 s
    20   0.000000055335   -0.000000000005   -109.090695044385    0.167210 s

  A miracle has come to pass: CASSCF iterations have converged.

 @ Final CASSCF Energy = -109.090695044385143


  ==> Semicanonicalize Orbitals <==

    MIX INACTIVE ORBITALS   ...... FALSE
    MIX GAS ACTIVE ORBITALS ...... FALSE
    FROZEN_DOCC     ...  CANONICAL
    FROZEN_UOCC     ...  CANONICAL
    GAS1            ...  CANONICAL
    RESTRICTED_DOCC ...  CANONICAL
    RESTRICTED_UOCC ...  CANONICAL

    Off-Diag. Elements       Max           2-Norm
    ------------------------------------------------
    GAS1                 0.0000000000   0.0000000000
    RESTRICTED_DOCC      0.0389331018   0.0552119947
    RESTRICTED_UOCC      0.3229860658   0.6147586275
    ------------------------------------------------
  Timing for orbital canonicalization:                        0.004 s.

  Time to prepare integrals:        1.611 seconds
  Time to run job          :        3.511 seconds
  Total                    :        5.122 seconds
    DMRG-SCF Energy.......................................................................PASSED

    Psi4 stopped on: Sunday, 16 January 2022 01:07AM
    Psi4 wall time for execution: 0:00:06.43

*** Psi4 exiting successfully. Buy a developer a beer!
