
    -----------------------------------------------------------------------
          Psi4: An Open-Source Ab Initio Electronic Structure Package
                               Psi4 1.8a1.dev5 

                         Git: Rev {master} 4d94910 


    D. G. A. Smith, L. A. Burns, A. C. Simmonett, R. M. Parrish,
    M. C. Schieber, R. Galvelis, P. Kraus, H. Kruse, R. Di Remigio,
    A. Alenaizan, A. M. James, S. Lehtola, J. P. Misiewicz, M. Scheurer,
    R. A. Shaw, J. B. Schriber, Y. Xie, Z. L. Glick, D. A. Sirianni,
    J. S. O'Brien, J. M. Waldrop, A. Kumar, E. G. Hohenstein,
    B. P. Pritchard, B. R. Brooks, H. F. Schaefer III, A. Yu. Sokolov,
    K. Patkowski, A. E. DePrince III, U. Bozkaya, R. A. King,
    F. A. Evangelista, J. M. Turney, T. D. Crawford, C. D. Sherrill,
    J. Chem. Phys. 152(18) 184108 (2020). https://doi.org/10.1063/5.0006002

                            Additional Code Authors
    E. T. Seidl, C. L. Janssen, E. F. Valeev, M. L. Leininger,
    J. F. Gonthier, R. M. Richard, H. R. McAlexander, M. Saitow, X. Wang,
    P. Verma, M. H. Lechner, A. Jiang, S. Behnle, A. G. Heide,
    M. F. Herbst, and D. L. Poole

             Previous Authors, Complete List of Code Contributors,
                       and Citations for Specific Modules
    https://github.com/psi4/psi4/blob/master/codemeta.json
    https://github.com/psi4/psi4/graphs/contributors
    http://psicode.org/psi4manual/master/introduction.html#citing-psifour

    -----------------------------------------------------------------------


    Psi4 started on: Sunday, 15 January 2023 11:17PM

    Process ID: 99694
    Host:       CHE-FEVANGE-01i
    PSIDATADIR: /Users/fevange/Source/psi4/objdir-Release/stage/share/psi4
    Memory:     500.0 MiB
    Threads:    1
    
  ==> Input File <==

--------------------------------------------------------------------------
import forte

refmcscf   = -99.406065223640
refdsrg    = -99.498963281410937 # no relaxation semi-canonical orbitals

memory 500 mb

molecule HF{
0 1
F
H 1 1.50
}

set {
   basis                  3-21g
}

set forte{
  job_type                mcscf_two_step
  active_space_solver     fci
  restricted_docc         [2,0,1,1]
  active                  [2,0,0,0]
  casscf_e_convergence    12
  casscf_g_convergence    8
}

Emcscf, wfn = energy('forte', return_wfn=True)
compare_values(refmcscf, variable("CURRENT ENERGY"), 10, "MCSCF energy")

set forte{
   job_type               newdriver
   correlation_solver     mrdsrg
   int_type               cholesky
   cholesky_tolerance     1e-4
   corr_level             ldsrg2
   frozen_docc            [1,0,0,0]
   restricted_docc        [1,0,1,1]
   active                 [2,0,0,0]
   active_space_solver aci
   sigma 0.0
   root_sym               0
   nroot                  1
   dsrg_s                 1.0
   maxiter                100
   e_convergence          8
   semi_canonical         false
}

energy('forte', ref_wfn=wfn)
compare_values(refdsrg,variable("CURRENT ENERGY"),8,"MRDSRG relaxed energy") #TEST
--------------------------------------------------------------------------

  Memory set to 476.837 MiB by Python driver.

Scratch directory: /tmp/

  Forte
  ----------------------------------------------------------------------------
  A suite of quantum chemistry methods for strongly correlated electrons

    git branch: master - git commit: 4225e1f0

  Developed by:
    Francesco A. Evangelista, Chenyang Li, Kevin P. Hannon,
    Jeffrey B. Schriber, Tianyuan Zhang, Chenxi Cai,
    Nan He, Nicholas Stair, Shuhe Wang, Renke Huang
  ----------------------------------------------------------------------------

  Size of Determinant class: 128 bits

  Preparing forte objects from a Psi4 Wavefunction object
  No reference wave function provided for Forte. Computing SCF orbitals using Psi4 ...

*** tstart() called on CHE-FEVANGE-01i
*** at Sun Jan 15 23:17:37 2023

   => Loading Basis Set <=

    Name: 3-21G
    Role: ORBITAL
    Keyword: BASIS
    atoms 1 entry F          line   101 file /Users/fevange/Source/psi4/objdir-Release/stage/share/psi4/basis/3-21g.gbs 
    atoms 2 entry H          line    21 file /Users/fevange/Source/psi4/objdir-Release/stage/share/psi4/basis/3-21g.gbs 


         ---------------------------------------------------------
                                   SCF
               by Justin Turney, Rob Parrish, Andy Simmonett
                          and Daniel G. A. Smith
                              RHF Reference
                        1 Threads,    476 MiB Core
         ---------------------------------------------------------

  ==> Geometry <==

    Molecular point group: c2v
    Full point group: C_inf_v

    Geometry (in Angstrom), charge = 0, multiplicity = 1:

       Center              X                  Y                   Z               Mass       
    ------------   -----------------  -----------------  -----------------  -----------------
         F            0.000000000000     0.000000000000    -0.075563346255    18.998403162730
         H            0.000000000000     0.000000000000     1.424436653745     1.007825032230

  Running in c2v symmetry.

  Rotational constants: A = ************  B =      7.82847  C =      7.82847 [cm^-1]
  Rotational constants: A = ************  B = 234691.66104  C = 234691.66104 [MHz]
  Nuclear repulsion =    3.175063264020000

  Charge       = 0
  Multiplicity = 1
  Electrons    = 10
  Nalpha       = 5
  Nbeta        = 5

  ==> Algorithm <==

  SCF Algorithm Type is PK.
  DIIS enabled.
  MOM disabled.
  Fractional occupation disabled.
  Guess Type is SAD.
  Energy threshold   = 1.00e-08
  Density threshold  = 1.00e-08
  Integral threshold = 1.00e-12

  ==> Primary Basis <==

  Basis Set: 3-21G
    Blend: 3-21G
    Number of shells: 7
    Number of basis functions: 11
    Number of Cartesian functions: 11
    Spherical Harmonics?: false
    Max angular momentum: 1

  ==> Integral Setup <==

  Using in-core PK algorithm.
   Calculation information:
      Number of atoms:                   2
      Number of AO shells:               7
      Number of primitives:             12
      Number of atomic orbitals:        11
      Number of basis functions:        11

      Integral cutoff                 1.00e-12
      Number of threads:                 1

  Performing in-core PK
  Using 4422 doubles for integral storage.
  We computed 406 shell quartets total.
  Whereas there are 406 unique shell quartets.

  ==> DiskJK: Disk-Based J/K Matrices <==

    J tasked:                  Yes
    K tasked:                  Yes
    wK tasked:                  No
    Memory [MiB]:              357
    Schwarz Cutoff:          1E-12

    OpenMP threads:              1

  Minimum eigenvalue in the overlap matrix is 2.1788495774E-01.
  Reciprocal condition number of the overlap matrix is 1.0486195573E-01.
    Using symmetric orthogonalization.

  ==> Pre-Iterations <==

  SCF Guess: Superposition of Atomic Densities via on-the-fly atomic UHF (no occupation information).

   -------------------------
    Irrep   Nso     Nmo    
   -------------------------
     A1         7       7 
     A2         0       0 
     B1         2       2 
     B2         2       2 
   -------------------------
    Total      11      11
   -------------------------

  ==> Iterations <==

                        Total Energy        Delta E     RMS |[F,P]|

   @RHF iter SAD:   -98.71800352121015   -9.87180e+01   0.00000e+00 
   @RHF iter   1:   -99.22384847589753   -5.05845e-01   5.37172e-02 ADIIS/DIIS
   @RHF iter   2:   -99.29951373350497   -7.56653e-02   5.06931e-02 ADIIS/DIIS
   @RHF iter   3:   -99.33020978828708   -3.06961e-02   1.12794e-02 ADIIS/DIIS
   @RHF iter   4:   -99.33381535596932   -3.60557e-03   1.15249e-03 ADIIS/DIIS
   @RHF iter   5:   -99.33384131215809   -2.59562e-05   8.01070e-05 DIIS
   @RHF iter   6:   -99.33384166382277   -3.51665e-07   4.96003e-06 DIIS
   @RHF iter   7:   -99.33384166434082   -5.18057e-10   7.07132e-07 DIIS
   @RHF iter   8:   -99.33384166435953   -1.87015e-11   5.66849e-08 DIIS
   @RHF iter   9:   -99.33384166435958   -5.68434e-14   7.08168e-09 DIIS
  Energy and wave function converged.


  ==> Post-Iterations <==

    Orbital Energies [Eh]
    ---------------------

    Doubly Occupied:                                                      

       1A1   -26.131616     2A1    -1.461547     1B2    -0.579580  
       1B1    -0.579580     3A1    -0.538989  

    Virtual:                                                              

       4A1     0.055584     5A1     1.078715     2B2     2.248770  
       2B1     2.248770     6A1     2.364315     7A1     3.411535  

    Final Occupation by Irrep:
             A1    A2    B1    B2 
    DOCC [     3,    0,    1,    1 ]
    NA   [     3,    0,    1,    1 ]
    NB   [     3,    0,    1,    1 ]

  @RHF Final Energy:   -99.33384166435958

   => Energetics <=

    Nuclear Repulsion Energy =              3.1750632640200003
    One-Electron Energy =                -146.4351859430729519
    Two-Electron Energy =                  43.9262810146933731
    Total Energy =                        -99.3338416643595821

Computation Completed


Properties will be evaluated at   0.000000,   0.000000,   0.000000 [a0]

Properties computed using the SCF density matrix


 Multipole Moments:

 ------------------------------------------------------------------------------------
     Multipole            Electronic (a.u.)      Nuclear  (a.u.)        Total (a.u.)
 ------------------------------------------------------------------------------------

 L = 1.  Multiply by 2.5417464519 to convert [e a0] to [Debye]
 Dipole X            :          0.0000000            0.0000000            0.0000000
 Dipole Y            :          0.0000000            0.0000000            0.0000000
 Dipole Z            :         -0.4552667            1.4066489            0.9513822
 Magnitude           :                                                    0.9513822

 ------------------------------------------------------------------------------------

*** tstop() called on CHE-FEVANGE-01i at Sun Jan 15 23:17:37 2023
Module time:
	user time   =       0.13 seconds =       0.00 minutes
	system time =       0.03 seconds =       0.00 minutes
	total time  =          0 seconds =       0.00 minutes
Total time:
	user time   =       0.13 seconds =       0.00 minutes
	system time =       0.03 seconds =       0.00 minutes
	total time  =          0 seconds =       0.00 minutes

  Read options for space RESTRICTED_DOCC
  Read options for space ACTIVE
  Read options for space RESTRICTED_DOCC

  ==> MO Space Information <==

  -------------------------------------------------
                       A1    A2    B1    B2   Sum
  -------------------------------------------------
    FROZEN_DOCC         0     0     0     0     0
    RESTRICTED_DOCC     2     0     1     1     4
    GAS1                2     0     0     0     2
    GAS2                0     0     0     0     0
    GAS3                0     0     0     0     0
    GAS4                0     0     0     0     0
    GAS5                0     0     0     0     0
    GAS6                0     0     0     0     0
    RESTRICTED_UOCC     3     0     1     1     5
    FROZEN_UOCC         0     0     0     0     0
    Total               7     0     2     2    11
  -------------------------------------------------   => Loading Basis Set <=

    Name: STO-3G
    Role: ORBITAL
    Keyword: MINAO_BASIS
    atoms 1 entry F          line    91 file /Users/fevange/Source/psi4/objdir-Release/stage/share/psi4/basis/sto-3g.gbs 
    atoms 2 entry H          line    19 file /Users/fevange/Source/psi4/objdir-Release/stage/share/psi4/basis/sto-3g.gbs 


  Forte will use psi4 integrals

  ==> Primary Basis Set Summary <==

  Basis Set: 3-21G
    Blend: 3-21G
    Number of shells: 7
    Number of basis functions: 11
    Number of Cartesian functions: 11
    Spherical Harmonics?: false
    Max angular momentum: 1


  JK created using conventional PK integrals
  Using in-core PK algorithm.
   Calculation information:
      Number of atoms:                   2
      Number of AO shells:               7
      Number of primitives:             12
      Number of atomic orbitals:        11
      Number of basis functions:        11

      Integral cutoff                 1.00e-12
      Number of threads:                 1

  Performing in-core PK
  Using 4422 doubles for integral storage.
  We computed 406 shell quartets total.
  Whereas there are 406 unique shell quartets.

  ==> DiskJK: Disk-Based J/K Matrices <==

    J tasked:                  Yes
    K tasked:                  Yes
    wK tasked:                  No
    Memory [MiB]:              381
    Schwarz Cutoff:          1E-12

    OpenMP threads:              1



  ==> Integral Transformation <==

  Number of molecular orbitals:                         11
  Number of correlated molecular orbitals:              11
  Number of frozen occupied orbitals:                    0
  Number of frozen unoccupied orbitals:                  0
  Two-electron integral type:                 Conventional


  Skip integral allocation and transformation for AO-driven CASSCF.

          -----------------------------------------------------------
                  Multi-Configurational Self Consistent Field
                Two-Step Approximate Second-Order AO Algorithm
            written by Chenyang Li, Kevin P. Hannon, and Shuhe Wang
          -----------------------------------------------------------


  ==> Calculation Information <==

    Integral type                               CONVENTIONAL
    CI solver type                                       FCI
    Final orbital type                             CANONICAL
    Derivative type                                     NONE
    Optimize orbitals                                   TRUE
    Include internal rotations                         FALSE
    Debug printing                                     FALSE
    Energy convergence                             1.000e-12
    Gradient convergence                           1.000e-08
    Max value for rotation                         2.000e-01
    Printing level                                         1
    Max number of macro iterations                       100
    Max number of micro iterations                        40
    Min number of micro iterations                         6
    DIIS start                                            15
    Min DIIS vectors                                       3
    Max DIIS vectors                                       8
    Frequency of DIIS extrapolation                        1


  ==> Independent Orbital Rotations <==

    ORBITAL SPACES                        A1     A2     B1     B2
    -------------------------------------------------------------
             ACTIVE / RESTRICTED_DOCC      4      0      0      0
    RESTRICTED_UOCC /          ACTIVE      6      0      0      0
    RESTRICTED_UOCC / RESTRICTED_DOCC      6      0      1      1
    -------------------------------------------------------------

  ==> Summary of Active Space Solver Input <==

    Irrep.  Multi.(2ms)      N
    --------------------------
       A1      1  (  0)      1
    --------------------------
    N: number of roots
    ms: spin z component
    Total number of roots:   1
    --------------------------


  ==> String Lists <==

  Number of alpha electrons     = 1
  Number of beta electrons      = 1
  Number of alpha strings       = 2
  Number of beta strings        = 2
  Timing for strings        =      0.000 s
  Timing for NN strings     =      0.000 s
  Timing for VO strings     =      0.000 s
  Timing for OO strings     =      0.000 s
  Timing for VVOO strings   =      0.000 s
  Timing for VOVO strings   =      0.000 s
  Timing for 1-hole strings =      0.000 s
  Timing for 2-hole strings =      0.000 s
  Timing for 3-hole strings =      0.000 s
  Total timing              =      0.000 s

  ==> FCI Solver <==

    Number of determinants                           4
    Symmetry                                         0
    Multiplicity                                     1
    Number of roots                                  1
    Target root                                      0
    Trial vectors per root                          10

  Allocating memory for the Hamiltonian algorithm. Size: 2 x 2 x 2.   Memory: 0.000000 GB

  ==> FCI Initial Guess <==

  ---------------------------------------------
    Root            Energy     <S^2>   Spin
  ---------------------------------------------
      0      -99.390528524764  0.000  singlet
      1      -99.260953774265  2.000  triplet
      2      -98.964719147363  0.000  singlet
      3      -98.580947013400  0.000  singlet
  ---------------------------------------------
  Timing for initial guess  =      0.000 s

  Projecting out root 1

  ==> Diagonalizing Hamiltonian <==

  Energy   convergence: 1.00e-12
  Residual convergence: 1.00e-06
  -----------------------------------------------------
    Iter.      Avg. Energy       Delta_E     Res. Norm
  -----------------------------------------------------
      1      -99.390528524764  -9.939e+01  +3.787e-14
      2      -99.390528524764  +0.000e+00  +3.787e-14
  -----------------------------------------------------
  The Davidson-Liu algorithm converged in 3 iterations.

  ==> Root No. 0 <==

    20     -0.95299145
    02      0.28806749

    Total Energy:     -99.390528524764, <S^2>: 0.000000

  ==> Energy Summary <==

    Multi.(2ms)  Irrep.  No.               Energy      <S^2>
    --------------------------------------------------------
       1  (  0)    A1     0      -99.390528524764   0.000000
    --------------------------------------------------------

  ==> Computing RDMs for Root No. 0 <==

    Timing for 1-RDM: 0.000 s

  ==> NATURAL ORBITALS <==

        1A1     1.829924      2A1     0.170076  


  ==> Permanent Dipole Moments [e a0] for Singlet (Ms = 0) A1 <==

       State           DM_X           DM_Y           DM_Z           |DM|
    --------------------------------------------------------------------
         0A1     0.00000000     0.00000000     0.50204946     0.50204946
    --------------------------------------------------------------------

  ==> Computing RDMs for Root No. 0 <==

    Timing for 1-RDM: 0.000 s
    Timing for 2-RDM: 0.000 s

  ==> NATURAL ORBITALS <==

        1A1     1.829924      2A1     0.170076  


  ==> Optimizing Orbitals for Current RDMs <==

    L-BFGS Iter:  1; fx =  -99.404245062678754; g_norm = 1.014201e-01; step = 1.000e+00
    L-BFGS Iter:  2; fx =  -99.405631536641863; g_norm = 2.951740e-02; step = 1.000e+00
    L-BFGS Iter:  3; fx =  -99.405685497947289; g_norm = 5.029744e-03; step = 1.000e+00
    L-BFGS Iter:  4; fx =  -99.405688008913515; g_norm = 5.463983e-04; step = 1.000e+00
    L-BFGS Iter:  5; fx =  -99.405688054836531; g_norm = 1.125121e-04; step = 1.000e+00
    L-BFGS Iter:  6; fx =  -99.405688056103983; g_norm = 1.125121e-04; step = 1.000e+00

  ==> MCSCF Macro Iter. 1 <==

             Energy CI (  Delta E  )         Energy Opt. (  Delta E  )  E_OPT - E_CI   Orbital RMS  Micro  DIIS
      -99.390528524764 (-9.9391e+01)    -99.405688056104 (-9.9406e+01)   -1.5160e-02    6.0709e-02    6/N

  ==> Summary of Active Space Solver Input <==

    Irrep.  Multi.(2ms)      N
    --------------------------
       A1      1  (  0)      1
    --------------------------
    N: number of roots
    ms: spin z component
    Total number of roots:   1
    --------------------------


  ==> String Lists <==

  Number of alpha electrons     = 1
  Number of beta electrons      = 1
  Number of alpha strings       = 2
  Number of beta strings        = 2
  Timing for strings        =      0.000 s
  Timing for NN strings     =      0.000 s
  Timing for VO strings     =      0.000 s
  Timing for OO strings     =      0.000 s
  Timing for VVOO strings   =      0.000 s
  Timing for VOVO strings   =      0.000 s
  Timing for 1-hole strings =      0.000 s
  Timing for 2-hole strings =      0.000 s
  Timing for 3-hole strings =      0.000 s
  Total timing              =      0.000 s

  ==> FCI Solver <==

    Number of determinants                           4
    Symmetry                                         0
    Multiplicity                                     1
    Number of roots                                  1
    Target root                                      0
    Trial vectors per root                          10

  Allocating memory for the Hamiltonian algorithm. Size: 2 x 2 x 2.   Memory: 0.000000 GB

  ==> FCI Initial Guess <==

  ---------------------------------------------
    Root            Energy     <S^2>   Spin
  ---------------------------------------------
      0      -99.406024298959  0.000  singlet
      1      -99.263155235700  2.000  triplet
      2      -98.856784254938  0.000  singlet
      3      -98.539165701161  0.000  singlet
  ---------------------------------------------
  Timing for initial guess  =      0.000 s

  Projecting out root 1

  ==> Diagonalizing Hamiltonian <==

  Energy   convergence: 3.03e-04
  Residual convergence: 3.04e-04
  -----------------------------------------------------
    Iter.      Avg. Energy       Delta_E     Res. Norm
  -----------------------------------------------------
      1      -99.406024298960  -9.941e+01  +2.274e-14
      2      -99.406024298960  +0.000e+00  +2.274e-14
  -----------------------------------------------------
  The Davidson-Liu algorithm converged in 3 iterations.

  ==> Root No. 0 <==

    20      0.94664001
    02     -0.30764330

    Total Energy:     -99.406024298960, <S^2>: -0.000000

  ==> Energy Summary <==

    Multi.(2ms)  Irrep.  No.               Energy      <S^2>
    --------------------------------------------------------
       1  (  0)    A1     0      -99.406024298960  -0.000000
    --------------------------------------------------------

  ==> Computing RDMs for Root No. 0 <==

    Timing for 1-RDM: 0.000 s

  ==> NATURAL ORBITALS <==

        1A1     1.806171      2A1     0.193829  


  ==> Permanent Dipole Moments [e a0] for Singlet (Ms = 0) A1 <==

       State           DM_X           DM_Y           DM_Z           |DM|
    --------------------------------------------------------------------
         0A1     0.00000000     0.00000000     0.47866471     0.47866471
    --------------------------------------------------------------------

  ==> Computing RDMs for Root No. 0 <==

    Timing for 1-RDM: 0.000 s
    Timing for 2-RDM: 0.000 s

  ==> NATURAL ORBITALS <==

        1A1     1.806171      2A1     0.193829  


  ==> Optimizing Orbitals for Current RDMs <==

    L-BFGS Iter:  1; fx =  -99.406058053337887; g_norm = 3.629238e-03; step = 1.000e+00
    L-BFGS Iter:  2; fx =  -99.406059017257249; g_norm = 1.200679e-03; step = 1.000e+00
    L-BFGS Iter:  3; fx =  -99.406059101510323; g_norm = 1.768811e-04; step = 1.000e+00
    L-BFGS Iter:  4; fx =  -99.406059105015544; g_norm = 3.354229e-05; step = 1.000e+00
    L-BFGS Iter:  5; fx =  -99.406059105158704; g_norm = 9.126560e-06; step = 1.000e+00
    L-BFGS Iter:  6; fx =  -99.406059105168680; g_norm = 9.126560e-06; step = 1.000e+00

  ==> MCSCF Macro Iter. 2 <==

             Energy CI (  Delta E  )         Energy Opt. (  Delta E  )  E_OPT - E_CI   Orbital RMS  Micro  DIIS
      -99.406024298960 (-1.5496e-02)    -99.406059105169 (-3.7105e-04)   -3.4806e-05    2.7390e-05    6/N

  ==> Summary of Active Space Solver Input <==

    Irrep.  Multi.(2ms)      N
    --------------------------
       A1      1  (  0)      1
    --------------------------
    N: number of roots
    ms: spin z component
    Total number of roots:   1
    --------------------------


  ==> String Lists <==

  Number of alpha electrons     = 1
  Number of beta electrons      = 1
  Number of alpha strings       = 2
  Number of beta strings        = 2
  Timing for strings        =      0.000 s
  Timing for NN strings     =      0.000 s
  Timing for VO strings     =      0.000 s
  Timing for OO strings     =      0.000 s
  Timing for VVOO strings   =      0.000 s
  Timing for VOVO strings   =      0.000 s
  Timing for 1-hole strings =      0.000 s
  Timing for 2-hole strings =      0.000 s
  Timing for 3-hole strings =      0.000 s
  Total timing              =      0.000 s

  ==> FCI Solver <==

    Number of determinants                           4
    Symmetry                                         0
    Multiplicity                                     1
    Number of roots                                  1
    Target root                                      0
    Trial vectors per root                          10

  Allocating memory for the Hamiltonian algorithm. Size: 2 x 2 x 2.   Memory: 0.000000 GB

  ==> FCI Initial Guess <==

  ---------------------------------------------
    Root            Energy     <S^2>   Spin
  ---------------------------------------------
      0      -99.406064089811  0.000  singlet
      1      -99.265785371828  2.000  triplet
      2      -98.862336513197  0.000  singlet
      3      -98.544477243680  0.000  singlet
  ---------------------------------------------
  Timing for initial guess  =      0.000 s

  Projecting out root 1

  ==> Diagonalizing Hamiltonian <==

  Energy   convergence: 6.96e-07
  Residual convergence: 1.00e-06
  -----------------------------------------------------
    Iter.      Avg. Energy       Delta_E     Res. Norm
  -----------------------------------------------------
      1      -99.406064089811  -9.941e+01  +4.984e-14
      2      -99.406064089811  +0.000e+00  +4.984e-14
  -----------------------------------------------------
  The Davidson-Liu algorithm converged in 3 iterations.

  ==> Root No. 0 <==

    20     -0.94577673
    02      0.30975267

    Total Energy:     -99.406064089811, <S^2>: -0.000000

  ==> Energy Summary <==

    Multi.(2ms)  Irrep.  No.               Energy      <S^2>
    --------------------------------------------------------
       1  (  0)    A1     0      -99.406064089811  -0.000000
    --------------------------------------------------------

  ==> Computing RDMs for Root No. 0 <==

    Timing for 1-RDM: 0.000 s

  ==> NATURAL ORBITALS <==

        1A1     1.803375      2A1     0.196625  


  ==> Permanent Dipole Moments [e a0] for Singlet (Ms = 0) A1 <==

       State           DM_X           DM_Y           DM_Z           |DM|
    --------------------------------------------------------------------
         0A1     0.00000000     0.00000000     0.47209091     0.47209091
    --------------------------------------------------------------------

  ==> Computing RDMs for Root No. 0 <==

    Timing for 1-RDM: 0.000 s
    Timing for 2-RDM: 0.000 s

  ==> NATURAL ORBITALS <==

        1A1     1.803375      2A1     0.196625  


  ==> Optimizing Orbitals for Current RDMs <==

    L-BFGS Iter:  1; fx =  -99.406064927334128; g_norm = 1.097818e-03; step = 1.000e+00
    L-BFGS Iter:  2; fx =  -99.406064977144965; g_norm = 1.951062e-04; step = 1.000e+00
    L-BFGS Iter:  3; fx =  -99.406064980688782; g_norm = 4.824941e-05; step = 1.000e+00
    L-BFGS Iter:  4; fx =  -99.406064980915232; g_norm = 6.713487e-06; step = 1.000e+00
    L-BFGS Iter:  5; fx =  -99.406064980920661; g_norm = 2.142296e-06; step = 1.000e+00
    L-BFGS Iter:  6; fx =  -99.406064980921244; g_norm = 2.142296e-06; step = 1.000e+00

  ==> MCSCF Macro Iter. 3 <==

             Energy CI (  Delta E  )         Energy Opt. (  Delta E  )  E_OPT - E_CI   Orbital RMS  Micro  DIIS
      -99.406064089811 (-3.9791e-05)    -99.406064980921 (-5.8758e-06)   -8.9111e-07    1.6805e-06    6/N

  ==> Summary of Active Space Solver Input <==

    Irrep.  Multi.(2ms)      N
    --------------------------
       A1      1  (  0)      1
    --------------------------
    N: number of roots
    ms: spin z component
    Total number of roots:   1
    --------------------------


  ==> String Lists <==

  Number of alpha electrons     = 1
  Number of beta electrons      = 1
  Number of alpha strings       = 2
  Number of beta strings        = 2
  Timing for strings        =      0.000 s
  Timing for NN strings     =      0.000 s
  Timing for VO strings     =      0.000 s
  Timing for OO strings     =      0.000 s
  Timing for VVOO strings   =      0.000 s
  Timing for VOVO strings   =      0.000 s
  Timing for 1-hole strings =      0.000 s
  Timing for 2-hole strings =      0.000 s
  Timing for 3-hole strings =      0.000 s
  Total timing              =      0.000 s

  ==> FCI Solver <==

    Number of determinants                           4
    Symmetry                                         0
    Multiplicity                                     1
    Number of roots                                  1
    Target root                                      0
    Trial vectors per root                          10

  Allocating memory for the Hamiltonian algorithm. Size: 2 x 2 x 2.   Memory: 0.000000 GB

  ==> FCI Initial Guess <==

  ---------------------------------------------
    Root            Energy     <S^2>   Spin
  ---------------------------------------------
      0      -99.406065169061  0.000  singlet
      1      -99.266138285998  2.000  triplet
      2      -98.863010546368  0.000  singlet
      3      -98.545191372963  0.000  singlet
  ---------------------------------------------
  Timing for initial guess  =      0.000 s

  Projecting out root 1

  ==> Diagonalizing Hamiltonian <==

  Energy   convergence: 1.78e-08
  Residual convergence: 1.00e-06
  -----------------------------------------------------
    Iter.      Avg. Energy       Delta_E     Res. Norm
  -----------------------------------------------------
      1      -99.406065169061  -9.941e+01  +2.866e-14
      2      -99.406065169061  +0.000e+00  +2.866e-14
  -----------------------------------------------------
  The Davidson-Liu algorithm converged in 3 iterations.

  ==> Root No. 0 <==

    20     -0.94563066
    02      0.31004506

    Total Energy:     -99.406065169061, <S^2>: 0.000000

  ==> Energy Summary <==

    Multi.(2ms)  Irrep.  No.               Energy      <S^2>
    --------------------------------------------------------
       1  (  0)    A1     0      -99.406065169061   0.000000
    --------------------------------------------------------

  ==> Computing RDMs for Root No. 0 <==

    Timing for 1-RDM: 0.000 s

  ==> NATURAL ORBITALS <==

        1A1     1.802961      2A1     0.197039  


  ==> Permanent Dipole Moments [e a0] for Singlet (Ms = 0) A1 <==

       State           DM_X           DM_Y           DM_Z           |DM|
    --------------------------------------------------------------------
         0A1     0.00000000     0.00000000     0.47051417     0.47051417
    --------------------------------------------------------------------

  ==> Computing RDMs for Root No. 0 <==

    Timing for 1-RDM: 0.000 s
    Timing for 2-RDM: 0.000 s

  ==> NATURAL ORBITALS <==

        1A1     1.802961      2A1     0.197039  


  ==> Optimizing Orbitals for Current RDMs <==

    L-BFGS Iter:  1; fx =  -99.406065208103328; g_norm = 2.757161e-04; step = 1.000e+00
    L-BFGS Iter:  2; fx =  -99.406065210941435; g_norm = 3.973865e-05; step = 1.000e+00
    L-BFGS Iter:  3; fx =  -99.406065211124854; g_norm = 1.135438e-05; step = 1.000e+00
    L-BFGS Iter:  4; fx =  -99.406065211138880; g_norm = 1.640387e-06; step = 1.000e+00
    L-BFGS Iter:  5; fx =  -99.406065211139165; g_norm = 4.514791e-07; step = 1.000e+00
    L-BFGS Iter:  6; fx =  -99.406065211139151; g_norm = 4.514791e-07; step = 1.000e+00

  ==> MCSCF Macro Iter. 4 <==

             Energy CI (  Delta E  )         Energy Opt. (  Delta E  )  E_OPT - E_CI   Orbital RMS  Micro  DIIS
      -99.406065169061 (-1.0793e-06)    -99.406065211139 (-2.3022e-07)   -4.2078e-08    4.0175e-07    6/N

  ==> Summary of Active Space Solver Input <==

    Irrep.  Multi.(2ms)      N
    --------------------------
       A1      1  (  0)      1
    --------------------------
    N: number of roots
    ms: spin z component
    Total number of roots:   1
    --------------------------


  ==> String Lists <==

  Number of alpha electrons     = 1
  Number of beta electrons      = 1
  Number of alpha strings       = 2
  Number of beta strings        = 2
  Timing for strings        =      0.000 s
  Timing for NN strings     =      0.000 s
  Timing for VO strings     =      0.000 s
  Timing for OO strings     =      0.000 s
  Timing for VVOO strings   =      0.000 s
  Timing for VOVO strings   =      0.000 s
  Timing for 1-hole strings =      0.000 s
  Timing for 2-hole strings =      0.000 s
  Timing for 3-hole strings =      0.000 s
  Total timing              =      0.000 s

  ==> FCI Solver <==

    Number of determinants                           4
    Symmetry                                         0
    Multiplicity                                     1
    Number of roots                                  1
    Target root                                      0
    Trial vectors per root                          10

  Allocating memory for the Hamiltonian algorithm. Size: 2 x 2 x 2.   Memory: 0.000000 GB

  ==> FCI Initial Guess <==

  ---------------------------------------------
    Root            Energy     <S^2>   Spin
  ---------------------------------------------
      0      -99.406065220763  0.000  singlet
      1      -99.266202144499  2.000  triplet
      2      -98.863123115381  0.000  singlet
      3      -98.545320313221  0.000  singlet
  ---------------------------------------------
  Timing for initial guess  =      0.000 s

  Projecting out root 1

  ==> Diagonalizing Hamiltonian <==

  Energy   convergence: 8.42e-10
  Residual convergence: 1.00e-06
  -----------------------------------------------------
    Iter.      Avg. Energy       Delta_E     Res. Norm
  -----------------------------------------------------
      1      -99.406065220763  -9.941e+01  +3.078e-14
      2      -99.406065220763  +0.000e+00  +3.078e-14
  -----------------------------------------------------
  The Davidson-Liu algorithm converged in 3 iterations.

  ==> Root No. 0 <==

    20     -0.94560086
    02      0.31009846

    Total Energy:     -99.406065220763, <S^2>: -0.000000

  ==> Energy Summary <==

    Multi.(2ms)  Irrep.  No.               Energy      <S^2>
    --------------------------------------------------------
       1  (  0)    A1     0      -99.406065220763  -0.000000
    --------------------------------------------------------

  ==> Computing RDMs for Root No. 0 <==

    Timing for 1-RDM: 0.000 s

  ==> NATURAL ORBITALS <==

        1A1     1.802883      2A1     0.197117  


  ==> Permanent Dipole Moments [e a0] for Singlet (Ms = 0) A1 <==

       State           DM_X           DM_Y           DM_Z           |DM|
    --------------------------------------------------------------------
         0A1     0.00000000     0.00000000     0.47014649     0.47014649
    --------------------------------------------------------------------

  ==> Computing RDMs for Root No. 0 <==

    Timing for 1-RDM: 0.000 s
    Timing for 2-RDM: 0.000 s

  ==> NATURAL ORBITALS <==

        1A1     1.802883      2A1     0.197117  


  ==> Optimizing Orbitals for Current RDMs <==

    L-BFGS Iter:  1; fx =  -99.406065222810639; g_norm = 6.523933e-05; step = 1.000e+00
    L-BFGS Iter:  2; fx =  -99.406065222965921; g_norm = 8.886917e-06; step = 1.000e+00
    L-BFGS Iter:  3; fx =  -99.406065222975570; g_norm = 2.626998e-06; step = 1.000e+00
    L-BFGS Iter:  4; fx =  -99.406065222976409; g_norm = 3.856048e-07; step = 1.000e+00
    L-BFGS Iter:  5; fx =  -99.406065222976395; g_norm = 1.009848e-07; step = 1.000e+00
    L-BFGS Iter:  6; fx =  -99.406065222976409; g_norm = 1.009848e-07; step = 1.000e+00

  ==> MCSCF Macro Iter. 5 <==

             Energy CI (  Delta E  )         Energy Opt. (  Delta E  )  E_OPT - E_CI   Orbital RMS  Micro  DIIS
      -99.406065220763 (-5.1702e-08)    -99.406065222976 (-1.1837e-08)   -2.2131e-09    8.2724e-08    6/N

  ==> Summary of Active Space Solver Input <==

    Irrep.  Multi.(2ms)      N
    --------------------------
       A1      1  (  0)      1
    --------------------------
    N: number of roots
    ms: spin z component
    Total number of roots:   1
    --------------------------


  ==> String Lists <==

  Number of alpha electrons     = 1
  Number of beta electrons      = 1
  Number of alpha strings       = 2
  Number of beta strings        = 2
  Timing for strings        =      0.000 s
  Timing for NN strings     =      0.000 s
  Timing for VO strings     =      0.000 s
  Timing for OO strings     =      0.000 s
  Timing for VVOO strings   =      0.000 s
  Timing for VOVO strings   =      0.000 s
  Timing for 1-hole strings =      0.000 s
  Timing for 2-hole strings =      0.000 s
  Timing for 3-hole strings =      0.000 s
  Total timing              =      0.000 s

  ==> FCI Solver <==

    Number of determinants                           4
    Symmetry                                         0
    Multiplicity                                     1
    Number of roots                                  1
    Target root                                      0
    Trial vectors per root                          10

  Allocating memory for the Hamiltonian algorithm. Size: 2 x 2 x 2.   Memory: 0.000000 GB

  ==> FCI Initial Guess <==

  ---------------------------------------------
    Root            Energy     <S^2>   Spin
  ---------------------------------------------
      0      -99.406065223487  0.000  singlet
      1      -99.266215633152  2.000  triplet
      2      -98.863146034965  0.000  singlet
      3      -98.545347515989  0.000  singlet
  ---------------------------------------------
  Timing for initial guess  =      0.000 s

  Projecting out root 1

  ==> Diagonalizing Hamiltonian <==

  Energy   convergence: 4.43e-11
  Residual convergence: 1.00e-06
  -----------------------------------------------------
    Iter.      Avg. Energy       Delta_E     Res. Norm
  -----------------------------------------------------
      1      -99.406065223487  -9.941e+01  +4.773e-14
      2      -99.406065223487  +0.000e+00  +4.773e-14
  -----------------------------------------------------
  The Davidson-Liu algorithm converged in 3 iterations.

  ==> Root No. 0 <==

    20     -0.94559427
    02      0.31010977

    Total Energy:     -99.406065223487, <S^2>: 0.000000

  ==> Energy Summary <==

    Multi.(2ms)  Irrep.  No.               Energy      <S^2>
    --------------------------------------------------------
       1  (  0)    A1     0      -99.406065223487   0.000000
    --------------------------------------------------------

  ==> Computing RDMs for Root No. 0 <==

    Timing for 1-RDM: 0.000 s

  ==> NATURAL ORBITALS <==

        1A1     1.802866      2A1     0.197134  


  ==> Permanent Dipole Moments [e a0] for Singlet (Ms = 0) A1 <==

       State           DM_X           DM_Y           DM_Z           |DM|
    --------------------------------------------------------------------
         0A1     0.00000000     0.00000000     0.47006141     0.47006141
    --------------------------------------------------------------------

  ==> Computing RDMs for Root No. 0 <==

    Timing for 1-RDM: 0.000 s
    Timing for 2-RDM: 0.000 s

  ==> NATURAL ORBITALS <==

        1A1     1.802866      2A1     0.197134  


  ==> Optimizing Orbitals for Current RDMs <==

    L-BFGS Iter:  1; fx =  -99.406065223595377; g_norm = 1.516517e-05; step = 1.000e+00
    L-BFGS Iter:  2; fx =  -99.406065223603733; g_norm = 2.031467e-06; step = 1.000e+00
    L-BFGS Iter:  3; fx =  -99.406065223604216; g_norm = 6.061031e-07; step = 1.000e+00
    L-BFGS Iter:  4; fx =  -99.406065223604259; g_norm = 8.943558e-08; step = 1.000e+00
    L-BFGS Iter:  5; fx =  -99.406065223604287; g_norm = 2.307306e-08; step = 1.000e+00
    L-BFGS Iter:  6; fx =  -99.406065223604259; g_norm = 2.307306e-08; step = 1.000e+00

  ==> MCSCF Macro Iter. 6 <==

             Energy CI (  Delta E  )         Energy Opt. (  Delta E  )  E_OPT - E_CI   Orbital RMS  Micro  DIIS
      -99.406065223487 (-2.7234e-09)    -99.406065223604 (-6.2785e-10)   -1.1758e-10    1.8367e-08    6/N

  ==> Summary of Active Space Solver Input <==

    Irrep.  Multi.(2ms)      N
    --------------------------
       A1      1  (  0)      1
    --------------------------
    N: number of roots
    ms: spin z component
    Total number of roots:   1
    --------------------------


  ==> String Lists <==

  Number of alpha electrons     = 1
  Number of beta electrons      = 1
  Number of alpha strings       = 2
  Number of beta strings        = 2
  Timing for strings        =      0.000 s
  Timing for NN strings     =      0.000 s
  Timing for VO strings     =      0.000 s
  Timing for OO strings     =      0.000 s
  Timing for VVOO strings   =      0.000 s
  Timing for VOVO strings   =      0.000 s
  Timing for 1-hole strings =      0.000 s
  Timing for 2-hole strings =      0.000 s
  Timing for 3-hole strings =      0.000 s
  Total timing              =      0.000 s

  ==> FCI Solver <==

    Number of determinants                           4
    Symmetry                                         0
    Multiplicity                                     1
    Number of roots                                  1
    Target root                                      0
    Trial vectors per root                          10

  Allocating memory for the Hamiltonian algorithm. Size: 2 x 2 x 2.   Memory: 0.000000 GB

  ==> FCI Initial Guess <==

  ---------------------------------------------
    Root            Energy     <S^2>   Spin
  ---------------------------------------------
      0      -99.406065223631  0.000  singlet
      1      -99.266218656348  2.000  triplet
      2      -98.863151104869  0.000  singlet
      3      -98.545353610093  0.000  singlet
  ---------------------------------------------
  Timing for initial guess  =      0.000 s

  Projecting out root 1

  ==> Diagonalizing Hamiltonian <==

  Energy   convergence: 2.35e-12
  Residual convergence: 1.00e-06
  -----------------------------------------------------
    Iter.      Avg. Energy       Delta_E     Res. Norm
  -----------------------------------------------------
      1      -99.406065223631  -9.941e+01  +7.579e-14
      2      -99.406065223631  +0.000e+00  +7.579e-14
  -----------------------------------------------------
  The Davidson-Liu algorithm converged in 3 iterations.

  ==> Root No. 0 <==

    20     -0.94559277
    02      0.31011231

    Total Energy:     -99.406065223631, <S^2>: -0.000000

  ==> Energy Summary <==

    Multi.(2ms)  Irrep.  No.               Energy      <S^2>
    --------------------------------------------------------
       1  (  0)    A1     0      -99.406065223631  -0.000000
    --------------------------------------------------------

  ==> Computing RDMs for Root No. 0 <==

    Timing for 1-RDM: 0.000 s

  ==> NATURAL ORBITALS <==

        1A1     1.802862      2A1     0.197138  


  ==> Permanent Dipole Moments [e a0] for Singlet (Ms = 0) A1 <==

       State           DM_X           DM_Y           DM_Z           |DM|
    --------------------------------------------------------------------
         0A1     0.00000000     0.00000000     0.47004177     0.47004177
    --------------------------------------------------------------------

  ==> Computing RDMs for Root No. 0 <==

    Timing for 1-RDM: 0.000 s
    Timing for 2-RDM: 0.000 s

  ==> NATURAL ORBITALS <==

        1A1     1.802862      2A1     0.197138  


  ==> Optimizing Orbitals for Current RDMs <==

    L-BFGS Iter:  1; fx =  -99.406065223637228; g_norm = 3.506258e-06; step = 1.000e+00
    L-BFGS Iter:  2; fx =  -99.406065223637682; g_norm = 4.672891e-07; step = 1.000e+00
    L-BFGS Iter:  3; fx =  -99.406065223637739; g_norm = 1.398028e-07; step = 1.000e+00
    L-BFGS Iter:  4; fx =  -99.406065223637725; g_norm = 2.066311e-08; step = 1.000e+00
    L-BFGS Iter:  5; fx =  -99.406065223637711; g_norm = 5.306437e-09; step = 1.000e+00

  ==> MCSCF Macro Iter. 7 <==

             Energy CI (  Delta E  )         Energy Opt. (  Delta E  )  E_OPT - E_CI   Orbital RMS  Micro  DIIS
      -99.406065223631 (-1.4467e-10)    -99.406065223638 (-3.3452e-11)   -6.3665e-12    4.1877e-09    5/Y

  ==> Summary of Active Space Solver Input <==

    Irrep.  Multi.(2ms)      N
    --------------------------
       A1      1  (  0)      1
    --------------------------
    N: number of roots
    ms: spin z component
    Total number of roots:   1
    --------------------------


  ==> String Lists <==

  Number of alpha electrons     = 1
  Number of beta electrons      = 1
  Number of alpha strings       = 2
  Number of beta strings        = 2
  Timing for strings        =      0.000 s
  Timing for NN strings     =      0.000 s
  Timing for VO strings     =      0.000 s
  Timing for OO strings     =      0.000 s
  Timing for VVOO strings   =      0.000 s
  Timing for VOVO strings   =      0.000 s
  Timing for 1-hole strings =      0.000 s
  Timing for 2-hole strings =      0.000 s
  Timing for 3-hole strings =      0.000 s
  Total timing              =      0.000 s

  ==> FCI Solver <==

    Number of determinants                           4
    Symmetry                                         0
    Multiplicity                                     1
    Number of roots                                  1
    Target root                                      0
    Trial vectors per root                          10

  Allocating memory for the Hamiltonian algorithm. Size: 2 x 2 x 2.   Memory: 0.000000 GB

  ==> FCI Initial Guess <==

  ---------------------------------------------
    Root            Energy     <S^2>   Spin
  ---------------------------------------------
      0      -99.406065223639  0.000  singlet
      1      -99.266219347737  2.000  triplet
      2      -98.863152259955  0.000  singlet
      3      -98.545355004528  0.000  singlet
  ---------------------------------------------
  Timing for initial guess  =      0.000 s

  Projecting out root 1

  ==> Diagonalizing Hamiltonian <==

  Energy   convergence: 1.00e-12
  Residual convergence: 1.00e-06
  -----------------------------------------------------
    Iter.      Avg. Energy       Delta_E     Res. Norm
  -----------------------------------------------------
      1      -99.406065223639  -9.941e+01  +4.721e-14
      2      -99.406065223639  +0.000e+00  +4.721e-14
  -----------------------------------------------------
  The Davidson-Liu algorithm converged in 3 iterations.

  ==> Root No. 0 <==

    20      0.94559242
    02     -0.31011289

    Total Energy:     -99.406065223639, <S^2>: 0.000000

  ==> Energy Summary <==

    Multi.(2ms)  Irrep.  No.               Energy      <S^2>
    --------------------------------------------------------
       1  (  0)    A1     0      -99.406065223639   0.000000
    --------------------------------------------------------

  ==> Computing RDMs for Root No. 0 <==

    Timing for 1-RDM: 0.000 s

  ==> NATURAL ORBITALS <==

        1A1     1.802861      2A1     0.197139  


  ==> Permanent Dipole Moments [e a0] for Singlet (Ms = 0) A1 <==

       State           DM_X           DM_Y           DM_Z           |DM|
    --------------------------------------------------------------------
         0A1     0.00000000     0.00000000     0.47003723     0.47003723
    --------------------------------------------------------------------

  ==> Computing RDMs for Root No. 0 <==

    Timing for 1-RDM: 0.000 s
    Timing for 2-RDM: 0.000 s

  ==> NATURAL ORBITALS <==

        1A1     1.802861      2A1     0.197139  


  ==> Optimizing Orbitals for Current RDMs <==

    L-BFGS Iter:  1; fx =  -99.406065223639487; g_norm = 8.094901e-07; step = 1.000e+00
    L-BFGS Iter:  2; fx =  -99.406065223639459; g_norm = 1.074959e-07; step = 1.000e+00
    L-BFGS Iter:  3; fx =  -99.406065223639473; g_norm = 3.232353e-08; step = 1.000e+00
    L-BFGS Iter:  4; fx =  -99.406065223639501; g_norm = 4.776062e-09; step = 1.000e+00

  ==> MCSCF Macro Iter. 8 <==

             Energy CI (  Delta E  )         Energy Opt. (  Delta E  )  E_OPT - E_CI   Orbital RMS  Micro  DIIS
      -99.406065223639 (-7.8160e-12)    -99.406065223640 (-1.7906e-12)   -3.4106e-13    9.0705e-10    4/Y

  ==> Summary of Active Space Solver Input <==

    Irrep.  Multi.(2ms)      N
    --------------------------
       A1      1  (  0)      1
    --------------------------
    N: number of roots
    ms: spin z component
    Total number of roots:   1
    --------------------------


  ==> String Lists <==

  Number of alpha electrons     = 1
  Number of beta electrons      = 1
  Number of alpha strings       = 2
  Number of beta strings        = 2
  Timing for strings        =      0.000 s
  Timing for NN strings     =      0.000 s
  Timing for VO strings     =      0.000 s
  Timing for OO strings     =      0.000 s
  Timing for VVOO strings   =      0.000 s
  Timing for VOVO strings   =      0.000 s
  Timing for 1-hole strings =      0.000 s
  Timing for 2-hole strings =      0.000 s
  Timing for 3-hole strings =      0.000 s
  Total timing              =      0.000 s

  ==> FCI Solver <==

    Number of determinants                           4
    Symmetry                                         0
    Multiplicity                                     1
    Number of roots                                  1
    Target root                                      0
    Trial vectors per root                          10

  Allocating memory for the Hamiltonian algorithm. Size: 2 x 2 x 2.   Memory: 0.000000 GB

  ==> FCI Initial Guess <==

  ---------------------------------------------
    Root            Energy     <S^2>   Spin
  ---------------------------------------------
      0      -99.406065223640  0.000  singlet
      1      -99.266219506474  2.000  triplet
      2      -98.863152524516  0.000  singlet
      3      -98.545355324087  0.000  singlet
  ---------------------------------------------
  Timing for initial guess  =      0.000 s

  Projecting out root 1

  ==> Diagonalizing Hamiltonian <==

  Energy   convergence: 1.00e-12
  Residual convergence: 1.00e-06
  -----------------------------------------------------
    Iter.      Avg. Energy       Delta_E     Res. Norm
  -----------------------------------------------------
      1      -99.406065223640  -9.941e+01  +4.004e-14
      2      -99.406065223640  +0.000e+00  +4.004e-14
  -----------------------------------------------------
  The Davidson-Liu algorithm converged in 3 iterations.

  ==> Root No. 0 <==

    20     -0.94559234
    02      0.31011302

    Total Energy:     -99.406065223640, <S^2>: 0.000000

  ==> Energy Summary <==

    Multi.(2ms)  Irrep.  No.               Energy      <S^2>
    --------------------------------------------------------
       1  (  0)    A1     0      -99.406065223640   0.000000
    --------------------------------------------------------

  ==> Computing RDMs for Root No. 0 <==

    Timing for 1-RDM: 0.000 s

  ==> NATURAL ORBITALS <==

        1A1     1.802861      2A1     0.197139  


  ==> Permanent Dipole Moments [e a0] for Singlet (Ms = 0) A1 <==

       State           DM_X           DM_Y           DM_Z           |DM|
    --------------------------------------------------------------------
         0A1     0.00000000     0.00000000     0.47003619     0.47003619
    --------------------------------------------------------------------

  ==> Computing RDMs for Root No. 0 <==

    Timing for 1-RDM: 0.000 s
    Timing for 2-RDM: 0.000 s

  ==> NATURAL ORBITALS <==

        1A1     1.802861      2A1     0.197139  


  ==> Optimizing Orbitals for Current RDMs <==

    L-BFGS Iter:  1; fx =  -99.406065223639544; g_norm = 1.875737e-07; step = 1.000e+00
    L-BFGS Iter:  2; fx =  -99.406065223639601; g_norm = 2.487120e-08; step = 1.000e+00
    L-BFGS Iter:  3; fx =  -99.406065223639558; g_norm = 7.533566e-09; step = 1.000e+00

  ==> MCSCF Macro Iter. 9 <==

             Energy CI (  Delta E  )         Energy Opt. (  Delta E  )  E_OPT - E_CI   Orbital RMS  Micro  DIIS
      -99.406065223640 (-3.6948e-13)    -99.406065223640 (-5.6843e-14)   -2.8422e-14    1.4907e-09    3/Y

  A miracle has come to pass: MCSCF iterations have converged!

  ==> MCSCF Iteration Summary <==

                      Energy CI                    Energy Orbital
           ------------------------------  ------------------------------
    Iter.        Total Energy       Delta        Total Energy       Delta  Orb. Grad.  Micro
    ----------------------------------------------------------------------------------------
       1     -99.390528524764  0.0000e+00    -99.405688056104  0.0000e+00  6.0709e-02     6
       2     -99.406024298960 -1.5496e-02    -99.406059105169 -3.7105e-04  2.7390e-05     6
       3     -99.406064089811 -3.9791e-05    -99.406064980921 -5.8758e-06  1.6805e-06     6
       4     -99.406065169061 -1.0793e-06    -99.406065211139 -2.3022e-07  4.0175e-07     6
       5     -99.406065220763 -5.1702e-08    -99.406065222976 -1.1837e-08  8.2724e-08     6
       6     -99.406065223487 -2.7234e-09    -99.406065223604 -6.2785e-10  1.8367e-08     6
       7     -99.406065223631 -1.4467e-10    -99.406065223638 -3.3452e-11  4.1877e-09     5
       8     -99.406065223639 -7.8160e-12    -99.406065223640 -1.7906e-12  9.0705e-10     4
       9     -99.406065223640 -3.6948e-13    -99.406065223640 -5.6843e-14  1.4907e-09     3
    ----------------------------------------------------------------------------------------

  ==> Summary of Active Space Solver Input <==

    Irrep.  Multi.(2ms)      N
    --------------------------
       A1      1  (  0)      1
    --------------------------
    N: number of roots
    ms: spin z component
    Total number of roots:   1
    --------------------------


  ==> String Lists <==

  Number of alpha electrons     = 1
  Number of beta electrons      = 1
  Number of alpha strings       = 2
  Number of beta strings        = 2
  Timing for strings        =      0.000 s
  Timing for NN strings     =      0.000 s
  Timing for VO strings     =      0.000 s
  Timing for OO strings     =      0.000 s
  Timing for VVOO strings   =      0.000 s
  Timing for VOVO strings   =      0.000 s
  Timing for 1-hole strings =      0.000 s
  Timing for 2-hole strings =      0.000 s
  Timing for 3-hole strings =      0.000 s
  Total timing              =      0.000 s

  ==> FCI Solver <==

    Number of determinants                           4
    Symmetry                                         0
    Multiplicity                                     1
    Number of roots                                  1
    Target root                                      0
    Trial vectors per root                          10

  Allocating memory for the Hamiltonian algorithm. Size: 2 x 2 x 2.   Memory: 0.000000 GB

  ==> FCI Initial Guess <==

  ---------------------------------------------
    Root            Energy     <S^2>   Spin
  ---------------------------------------------
      0      -99.406065223640  0.000  singlet
      1      -99.266219542479  2.000  triplet
      2      -98.863152583665  0.000  singlet
      3      -98.545355396159  0.000  singlet
  ---------------------------------------------
  Timing for initial guess  =      0.000 s

  Projecting out root 1

  ==> Diagonalizing Hamiltonian <==

  Energy   convergence: 1.00e-12
  Residual convergence: 1.00e-06
  -----------------------------------------------------
    Iter.      Avg. Energy       Delta_E     Res. Norm
  -----------------------------------------------------
      1      -99.406065223640  -9.941e+01  +1.880e-14
      2      -99.406065223640  +0.000e+00  +1.880e-14
  -----------------------------------------------------
  The Davidson-Liu algorithm converged in 3 iterations.

  ==> Root No. 0 <==

    20     -0.94559233
    02      0.31011305

    Total Energy:     -99.406065223640, <S^2>: 0.000000

  ==> Energy Summary <==

    Multi.(2ms)  Irrep.  No.               Energy      <S^2>
    --------------------------------------------------------
       1  (  0)    A1     0      -99.406065223640   0.000000
    --------------------------------------------------------

  ==> Computing RDMs for Root No. 0 <==

    Timing for 1-RDM: 0.000 s

  ==> NATURAL ORBITALS <==

        1A1     1.802861      2A1     0.197139  


  ==> Permanent Dipole Moments [e a0] for Singlet (Ms = 0) A1 <==

       State           DM_X           DM_Y           DM_Z           |DM|
    --------------------------------------------------------------------
         0A1     0.00000000     0.00000000     0.47003595     0.47003595
    --------------------------------------------------------------------

  ==> Computing RDMs for Root No. 0 <==

    Timing for 1-RDM: 0.000 s

  ==> NATURAL ORBITALS <==

        1A1     1.802861      2A1     0.197139  


  ==> Semicanonicalize Orbitals <==

    MIX INACTIVE ORBITALS   ...... FALSE
    MIX GAS ACTIVE ORBITALS ...... FALSE
    FROZEN_DOCC     ...  CANONICAL
    FROZEN_UOCC     ...  CANONICAL
    GAS1            ...  CANONICAL
    RESTRICTED_DOCC ...  CANONICAL
    RESTRICTED_UOCC ...  CANONICAL

    Off-Diag. Elements       Max           2-Norm
    ------------------------------------------------
    GAS1                 0.0024594230   0.0034781493
    RESTRICTED_DOCC      0.0000065365   0.0000092440
    RESTRICTED_UOCC      0.0300249353   0.0445129385
    ------------------------------------------------
  Timing for orbital canonicalization:                        0.000 s.

  Time to prepare integrals:        0.002 seconds
  Time to run job          :        0.020 seconds
  Total                    :        0.023 seconds
    MCSCF energy..........................................................................PASSED

Scratch directory: /tmp/

  Forte
  ----------------------------------------------------------------------------
  A suite of quantum chemistry methods for strongly correlated electrons

    git branch: master - git commit: 4225e1f0

  Developed by:
    Francesco A. Evangelista, Chenyang Li, Kevin P. Hannon,
    Jeffrey B. Schriber, Tianyuan Zhang, Chenxi Cai,
    Nan He, Nicholas Stair, Shuhe Wang, Renke Huang
  ----------------------------------------------------------------------------

  Size of Determinant class: 128 bits

  Preparing forte objects from a Psi4 Wavefunction object
  Read options for space FROZEN_DOCC
  Read options for space RESTRICTED_DOCC
  Read options for space ACTIVE
  Read options for space FROZEN_DOCC
  Read options for space RESTRICTED_DOCC

  ==> MO Space Information <==

  -------------------------------------------------
                       A1    A2    B1    B2   Sum
  -------------------------------------------------
    FROZEN_DOCC         1     0     0     0     1
    RESTRICTED_DOCC     1     0     1     1     3
    GAS1                2     0     0     0     2
    GAS2                0     0     0     0     0
    GAS3                0     0     0     0     0
    GAS4                0     0     0     0     0
    GAS5                0     0     0     0     0
    GAS6                0     0     0     0     0
    RESTRICTED_UOCC     3     0     1     1     5
    FROZEN_UOCC         0     0     0     0     0
    Total               7     0     2     2    11
  -------------------------------------------------   => Loading Basis Set <=

    Name: 3-21G
    Role: ORBITAL
    Keyword: BASIS
    atoms 1 entry F          line   101 file /Users/fevange/Source/psi4/objdir-Release/stage/share/psi4/basis/3-21g.gbs 
    atoms 2 entry H          line    21 file /Users/fevange/Source/psi4/objdir-Release/stage/share/psi4/basis/3-21g.gbs 


  Checking orbital orthonormality against current geometry ... Done (OK)

   => Loading Basis Set <=

    Name: STO-3G
    Role: ORBITAL
    Keyword: MINAO_BASIS
    atoms 1 entry F          line    91 file /Users/fevange/Source/psi4/objdir-Release/stage/share/psi4/basis/sto-3g.gbs 
    atoms 2 entry H          line    19 file /Users/fevange/Source/psi4/objdir-Release/stage/share/psi4/basis/sto-3g.gbs 


  Forte will use psi4 integrals

  ==> Primary Basis Set Summary <==

  Basis Set: 3-21G
    Blend: 3-21G
    Number of shells: 7
    Number of basis functions: 11
    Number of Cartesian functions: 11
    Spherical Harmonics?: false
    Max angular momentum: 1


  JK created using Cholesky integrals
  ==> CDJK: Cholesky-decomposed J/K Matrices <==

    J tasked:                     Yes
    K tasked:                     Yes
    wK tasked:                     No
    OpenMP threads:                 1
    Integrals threads:              1
    Memory [MiB]:                 381
    Algorithm:                   Core
    Integral Cache:              NONE
    Schwarz Cutoff:             1E-12
    Cholesky tolerance:      1.00E-04
    No. Cholesky vectors:          43



  ==> Integral Transformation <==

  Number of molecular orbitals:                         11
  Number of correlated molecular orbitals:              10
  Number of frozen occupied orbitals:                    1
  Number of frozen unoccupied orbitals:                  0
  Two-electron integral type:              Cholesky decomposition


  Computing the Cholesky Vectors 

  Computing CD Integrals
  Timing for cholesky transformation:                         0.001 s.
  Need 41.62 KB to store CD integrals in core

  Number of Cholesky vectors required for 1.000e-04 tolerance: 43

  Frozen-core energy         -75.818535762023629 a.u.
  Timing for frozen one-body operator:                        0.000 s.
  Resorting integrals after freezing core.
  Timing for freezing core and virtual orbitals:              0.000 s.
  Timing for computing Cholesky integrals:                    0.001 s.

  ==> Summary of Active Space Solver Input <==

    Irrep.  Multi.(2ms)      N
    --------------------------
       A1      1  (  0)      1
    --------------------------
    N: number of roots
    ms: spin z component
    Total number of roots:   1
    --------------------------


--------------------------------------------------------------------------------
               Selected Configuration Interaction Excited States
  written by Jeffrey B. Schriber, Tianyuan Zhang, and Francesco A. Evangelista
--------------------------------------------------------------------------------

  ==> Calculation Information <==

  -----------------------------------------------------------------
    Multiplicity                             1    
    Symmetry                                 0    
    Number of roots                          1    
    Ms                                       0
    Excited Algorithm                        NONE
  -----------------------------------------------------------------
  Using 1 thread(s)
  Computing wavefunction for root 0

        ---------------------------------------------------------------
                      Adaptive Configuration Interaction
          written by Jeffrey B. Schriber and Francesco A. Evangelista
        ---------------------------------------------------------------

  ==> Reference Information <==

  There are 4 frozen orbitals.
  There are 2 active orbitals.

  ==> Calculation Information <==

  -----------------------------------------------------------------
    Multiplicity                             1    
    Symmetry                                 0    
    Number of roots                          1    
    Root used for properties                 0    
    Roots used for averaging                 1    
    Root averaging offset                    0    
    Sigma (Eh)                               0.00e+00
    Gamma (Eh^(-1))                          1.00e+00
    Convergence threshold                    1.00e-09
    Ms                                       0
    Diagonalization algorithm                SPARSE
    Excited Algorithm                        NONE
    Project out spin contaminants            True
    Enforce spin completeness of basis       True
    Enforce complete aimed selection         True
    Multiroot averaging                      Average
  -----------------------------------------------------------------
  Number of active orbitals: 2
  Number of active alpha electrons: 1
  Number of active beta electrons: 1
  Maximum reference space size: 1000
  Number of reference determinants: 4
  Reference generated from 2 MOs


  ---------------------------------- Cycle 0 -----------------------------------

  ==> Diagonalizing the Hamiltonian in the P space <==

  Initial P space dimension: 4
  Spin-complete dimension of the P space: 4 determinants

  ==> Computing 1 Coupling Lists <==

                  2.125e-06 seconds
                  1.750e-06 seconds

  ==> Computing 2 Coupling Lists <==

                 1.083e-06 seconds
                 9.160e-07 seconds
                 1.750e-06 seconds

  Davidson-Liu solver algorithm using SigmaVectorSparseList sigma algorithm

  Performing diagonalization of the H matrix
  Found 3 roots with 2S+1 = 1 *
  Found 1 roots with 2S+1 = 3
  Time spent diagonalizing H:   0.000063 s

    P-space  CI Energy Root   0        = -99.406056114176 Eh =   0.0000 eV, S^2 = 0.000000


  ==> Finding the Q space <==

  Using SR screening algorithm
  Time spent forming F space:             0.000004
  Time spent merging thread F spaces:             0.000001
  Size of F space: 0
  Time spent building sorting list: 0.000000
  Dimension of the PQ space:                  4
  Dimension of the PQ space (spin-complete) : 4
  Time spent building the model space: 0.000030

  ==> Diagonalizing the Hamiltonian in the P + Q space <==

  Number of reference roots: 1

  ==> Computing 1 Coupling Lists <==

                  1.208e-06 seconds
                  1.209e-06 seconds

  ==> Computing 2 Coupling Lists <==

                 8.750e-07 seconds
                 8.330e-07 seconds
                 1.084e-06 seconds

  Davidson-Liu solver algorithm using SigmaVectorSparseList sigma algorithm

  Performing diagonalization of the H matrix
  Found 3 roots with 2S+1 = 1 *
  Found 1 roots with 2S+1 = 3
  Total time spent diagonalizing H:   0.000047 s

    PQ-space CI Energy Root   0        = -99.406056114176 Eh =   0.0000 eV, S^2 = 0.000000
    PQ-space CI Energy + EPT2 Root   0 = -99.406056114176 Eh =   0.0000 eV


  ==> Pruning the Q space <==

  Cycle 0 took: 0.000183 s


  ---------------------------------- Cycle 1 -----------------------------------

  ==> Diagonalizing the Hamiltonian in the P space <==

  Initial P space dimension: 4
  Spin-complete dimension of the P space: 4 determinants

  ==> Computing 1 Coupling Lists <==

                  1.250e-06 seconds
                  1.167e-06 seconds

  ==> Computing 2 Coupling Lists <==

                 8.330e-07 seconds
                 8.330e-07 seconds
                 1.125e-06 seconds

  Davidson-Liu solver algorithm using SigmaVectorSparseList sigma algorithm

  Performing diagonalization of the H matrix
  Found 3 roots with 2S+1 = 1 *
  Found 1 roots with 2S+1 = 3
  Time spent diagonalizing H:   0.000044 s

    P-space  CI Energy Root   0        = -99.406056114176 Eh =   0.0000 eV, S^2 = 0.000000


  ==> Finding the Q space <==

  Using SR screening algorithm
  Time spent forming F space:             0.000002
  Time spent merging thread F spaces:             0.000000
  Size of F space: 0
  Time spent building sorting list: 0.000000
  Dimension of the PQ space:                  4
  Dimension of the PQ space (spin-complete) : 4
  Time spent building the model space: 0.000018

  ==> Diagonalizing the Hamiltonian in the P + Q space <==

  Number of reference roots: 1

  ==> Computing 1 Coupling Lists <==

                  1.167e-06 seconds
                  1.167e-06 seconds

  ==> Computing 2 Coupling Lists <==

                 8.750e-07 seconds
                 8.330e-07 seconds
                 1.083e-06 seconds

  Davidson-Liu solver algorithm using SigmaVectorSparseList sigma algorithm

  Performing diagonalization of the H matrix
  Found 3 roots with 2S+1 = 1 *
  Found 1 roots with 2S+1 = 3
  Total time spent diagonalizing H:   0.000045 s

    PQ-space CI Energy Root   0        = -99.406056114176 Eh =   0.0000 eV, S^2 = 0.000000
    PQ-space CI Energy + EPT2 Root   0 = -99.406056114176 Eh =   0.0000 eV

  ***** Calculation Converged *****

  ==> ACI Natural Orbitals <==

        1A1     1.802858      2A1     0.197142  

  ==> Excited state solver summary <==

  Iterations required:                         1
  Dimension of optimized determinant space:    4

  * Selected-CI Energy Root   0        = -99.406056114176 Eh =   0.0000 eV
  * Selected-CI Energy Root   0 + EPT2 = -99.406056114176 Eh =   0.0000 eV

  ==> Wavefunction Information <==

  Most important contributions to root   0:
    0   0.944988 0.893002898           3 |20>
    1  -0.309512 0.095797844           2 |02>
    2   0.074831 0.005599629           1 |+->
    3   0.074831 0.005599629           0 |-+>

  Saving information for root: 0

  ==> Energy Summary <==

    Multi.(2ms)  Irrep.  No.               Energy      <S^2>
    --------------------------------------------------------
       1  (  0)    A1     0      -99.406056114176   0.000000
    --------------------------------------------------------

  ==> Computing 1 Coupling Lists <==

                  8.750e-07 seconds
                  8.750e-07 seconds

  ==> Computing 2 Coupling Lists <==

                 7.920e-07 seconds
                 7.090e-07 seconds
                 7.080e-07 seconds
  1-RDM  took 0.000009 s (determinant)

  ==> Permanent Dipole Moments [e a0] for Singlet (Ms = 0) A1 <==

       State           DM_X           DM_Y           DM_Z           |DM|
    --------------------------------------------------------------------
         0A1     0.00000000     0.00000000     0.49436556     0.49436556
    --------------------------------------------------------------------

  ==> Computing 1 Coupling Lists <==

                  7.500e-07 seconds
                  7.080e-07 seconds

  ==> Computing 2 Coupling Lists <==

                 7.500e-07 seconds
                 7.500e-07 seconds
                 7.080e-07 seconds
  Computing 3-list...    

  ==> Computing 3 Coupling Lists <==

                7.080e-07 seconds
                1.666e-06 seconds
                7.500e-07 seconds
                8.750e-07 seconds done (0.00002 s)
  1-RDM  took 0.000007 s (determinant)
  2-RDMS took 0.000009 s (determinant)
  3-RDMs took 0.000013 s (determinant)

  ==> Multireference Driven Similarity Renormalization Group <==

    Computing Fock matrix and cleaning JK ........... Done
    Reading DSRG options ............................ Done
    Setting ambit MO space .......................... Done
    Preparing tensors for density cumulants ......... Done
    Filling Fock matrix from ForteIntegrals ......... Done

           ----------------------------------------------------------
             Multireference Driven Similarity Renormalization Group
                   written by Chenyang Li and Tianyuan Zhang
           ----------------------------------------------------------


  ==> Density Cumulant Summary <==

    2-body             AA           AB           BB
    -----------------------------------------------
    max          0.088855     0.294747     0.088855
    norm         0.177709     0.457482     0.177709
    -----------------------------------------------
    3-body            AAA          AAB          ABB          BBB
    ------------------------------------------------------------
    max          0.000000     0.070835     0.070835     0.000000
    norm         0.000000     0.201774     0.201774     0.000000
    ------------------------------------------------------------

  ==> Checking Semicanonical Orbitals <==

    Block             Fa Max         Fa Mean           Fb Max         Fb Mean
    -------------------------------------------------------------------------
    CORE        0.0000000000    0.0000000000     0.0000000000    0.0000000000
    VIRTUAL     0.0000149791    0.0000018463     0.0000149791    0.0000018463
    GAS1        0.0000003892    0.0000001946     0.0000003892    0.0000001946
    -------------------------------------------------------------------------
    Orbitals are semi-canonicalized.

  ==> Calculation Information <==

    Correlation level                                 LDSRG2
    Integral type                                   CHOLESKY
    Source operator                                 STANDARD
    Adaptive DSRG flow type                           DSRG_S
    Reference relaxation                                NONE
    DSRG transformation type                         UNITARY
    Core-Virtual source type                          NORMAL
    T1 amplitudes initial guess                          PT2
    Restart amplitudes                                  TRUE
    Sequential DSRG transformation                     FALSE
    Omit blocks of >= 3 virtual indices                FALSE
    Read amplitudes from current dir                   FALSE
    Write amplitudes to current dir                    FALSE
    Flow parameter                                 1.000e+00
    Taylor expansion threshold                     1.000e-03
    Intruder amplitudes threshold                  1.000e-01
    Number of T amplitudes                                15
    DIIS start                                             2
    Min DIIS vectors                                       3
    Max DIIS vectors                                       8
    DIIS extrapolating freq                                1


  ==> Build Initial Amplitudes Guesses <==

    Computing T2 amplitudes ...          Done. Timing      0.001 s
    Computing T1 amplitudes ...          Done. Timing      0.000 s

  ==> Initial Excitation Amplitudes Summary <==

    Active Indices:    1    2 
    Largest T1 amplitudes for spin case A:
       i       a                  i       a                  i       a               
    --------------------------------------------------------------------------------
    [  2       4    ] 0.102482 [  2       3    ] 0.096229 [  0       1    ]-0.039642 
    [  1       4    ]-0.020487 [  1       3    ] 0.007568 [  0       2    ]-0.006770 
    [  2       5    ]-0.004895 [  1       5    ] 0.003080 [  8       9    ] 0.000315 
    [  6       7    ] 0.000315 [  0       3    ] 0.000098 [  0       5    ] 0.000032 
    [  0       4    ]-0.000024 
    --------------------------------------------------------------------------------
    Norm of T1A vector: (nonzero elements: 13)                    0.147954387955739.
    --------------------------------------------------------------------------------
    Largest T1 amplitudes for spin case B:
       _       _                  _       _                  _       _               
       i       a                  i       a                  i       a               
    --------------------------------------------------------------------------------
    [  2       4    ] 0.102482 [  2       3    ] 0.096229 [  0       1    ]-0.039642 
    [  1       4    ]-0.020487 [  1       3    ] 0.007568 [  0       2    ]-0.006770 
    [  2       5    ]-0.004895 [  1       5    ] 0.003080 [  8       9    ] 0.000315 
    [  6       7    ] 0.000315 [  0       3    ] 0.000098 [  0       5    ] 0.000032 
    [  0       4    ]-0.000024 
    --------------------------------------------------------------------------------
    Norm of T1B vector: (nonzero elements: 13)                    0.147954387955739.
    --------------------------------------------------------------------------------
    Largest T2 amplitudes for spin case AA:
       i   j   a   b              i   j   a   b              i   j   a   b           
    --------------------------------------------------------------------------------
    [  1   6   1   7]-0.046847 [  1   8   1   9]-0.046847 [  2   6   1   7] 0.045392 
    [  2   8   1   9] 0.045392 [  2   6   2   7]-0.036069 [  2   8   2   9]-0.036069 
    [  0   1   1   2] 0.034295 [  1   6   2   7] 0.030772 [  1   8   2   9] 0.030772 
    [  1   2   1   3] 0.024606 [  6   8   7   9]-0.024087 [  0   1   1   5] 0.021279 
    [  1   2   1   4] 0.019810 [  2   6   4   7] 0.019572 [  2   8   4   9] 0.019572 
    --------------------------------------------------------------------------------
    Norm of T2AA vector: (nonzero elements: 240)                  0.282242828090092.
    --------------------------------------------------------------------------------
    Largest T2 amplitudes for spin case AB:
           _       _                  _       _                  _       _           
       i   j   a   b              i   j   a   b              i   j   a   b           
    --------------------------------------------------------------------------------
    [  2   2   2   3] 0.075865 [  2   2   1   4]-0.074388 [  0   0   1   1]-0.060156 
    [  2   2   3   3]-0.051716 [  1   2   1   3] 0.050780 [  1   2   1   4] 0.050278 
    [  2   6   1   7] 0.050009 [  2   8   1   9] 0.050009 [  1   6   1   7]-0.048769 
    [  1   8   1   9]-0.048769 [  1   2   2   4]-0.046425 [  2   6   2   7]-0.039894 
    [  2   8   2   9]-0.039894 [  6   6   7   7]-0.036327 [  8   8   9   9]-0.036327 
    --------------------------------------------------------------------------------
    Norm of T2AB vector: (nonzero elements: 405)                  0.349804274367177.
    --------------------------------------------------------------------------------
    Largest T2 amplitudes for spin case BB:
       _   _   _   _              _   _   _   _              _   _   _   _           
       i   j   a   b              i   j   a   b              i   j   a   b           
    --------------------------------------------------------------------------------
    [  1   6   1   7]-0.046847 [  1   8   1   9]-0.046847 [  2   6   1   7] 0.045392 
    [  2   8   1   9] 0.045392 [  2   6   2   7]-0.036069 [  2   8   2   9]-0.036069 
    [  0   1   1   2] 0.034295 [  1   6   2   7] 0.030772 [  1   8   2   9] 0.030772 
    [  1   2   1   3] 0.024606 [  6   8   7   9]-0.024087 [  0   1   1   5] 0.021279 
    [  1   2   1   4] 0.019810 [  2   6   4   7] 0.019572 [  2   8   4   9] 0.019572 
    --------------------------------------------------------------------------------
    Norm of T2BB vector: (nonzero elements: 240)                  0.282242828090092.
    --------------------------------------------------------------------------------

  ==> Possible Intruders <==

    T1 amplitudes larger than 0.1000 for spin case A:
        Amplitude         Value                  Denominator              
    ----------------------------------------------------------------------
    [  2       4    ]    0.10248151 (  0.076767 -   2.296429 =  -2.219662)
    ----------------------------------------------------------------------
    T1 amplitudes larger than 0.1000 for spin case B:
        Amplitude         Value                  Denominator              
    ----------------------------------------------------------------------
    [  2       4    ]    0.10248151 (  0.076767 -   2.296429 =  -2.219662)
    ----------------------------------------------------------------------
    T2 amplitudes larger than 0.1000 for spin case AA: NULL
    T2 amplitudes larger than 0.1000 for spin case AB: NULL
    T2 amplitudes larger than 0.1000 for spin case BB: NULL

  ==> Computing MR-LDSRG(2) Energy <==

    Reference:
      J. Chem. Phys. 2016, 144, 164114.

                  Energy (a.u.)           Non-Diagonal Norm        Amplitude RMS         Timings (s)
           ---------------------------  ---------------------  ---------------------  -----------------
    Iter.        Corr.         Delta       Hbar1      Hbar2        T1         T2        Hbar     Amp.    DIIS
    ---------------------------------------------------------------------------------------------------------
       1    -0.090472670892 -9.047e-02   1.315e-01  6.321e-01   3.443e-02  1.612e-01     2.790    0.002
       2    -0.092387147614 -1.914e-03   1.346e-01  2.265e-01   1.569e-02  4.212e-02     2.615    0.002  S
       3    -0.092887576453 -5.004e-04   1.134e-01  1.608e-01   3.312e-03  1.353e-02     2.599    0.002  S
       4    -0.092901249656 -1.367e-05   1.164e-01  1.613e-01   1.444e-03  4.516e-03     2.602    0.002  S/E
       5    -0.092910517174 -9.268e-06   1.152e-01  1.587e-01   1.427e-04  3.389e-04     2.587    0.002  S/E
       6    -0.092907474843  3.042e-06   1.151e-01  1.587e-01   2.910e-05  7.835e-05     2.593    0.002  S/E
       7    -0.092907353939  1.209e-07   1.151e-01  1.586e-01   5.346e-06  1.706e-05     2.609    0.002  S/E
       8    -0.092907122391  2.315e-07   1.151e-01  1.586e-01   6.501e-07  4.915e-06     2.618    0.002  S/E
       9    -0.092907156816 -3.442e-08   1.151e-01  1.586e-01   1.985e-07  1.339e-06     2.592    0.002  S/E
      10    -0.092907164327 -7.511e-09   1.151e-01  1.586e-01   3.717e-08  3.553e-07     2.583    0.002  S/E
    ---------------------------------------------------------------------------------------------------------

  ==> MR-LDSRG(2) Energy Summary <==

    E0 (reference)                 =     -99.406056114175968
    MR-LDSRG(2) correlation energy =      -0.092907164326743
    MR-LDSRG(2) total energy       =     -99.498963278502714

  ==> Final Excitation Amplitudes Summary <==

    Active Indices:    1    2 
    Largest T1 amplitudes for spin case A:
       i       a                  i       a                  i       a               
    --------------------------------------------------------------------------------
    [  2       4    ] 0.090452 [  2       3    ] 0.088360 [  0       1    ]-0.048845 
    [  1       4    ]-0.014860 [  0       2    ]-0.010771 [  1       3    ] 0.005915 
    [  2       5    ]-0.002640 [  1       5    ] 0.002079 [  0       4    ]-0.000813 
    [  0       3    ]-0.000599 [  0       5    ] 0.000529 [  8       9    ] 0.000129 
    [  6       7    ] 0.000129 
    --------------------------------------------------------------------------------
    Norm of T1A vector: (nonzero elements: 13)                    0.136964900663449.
    --------------------------------------------------------------------------------
    Largest T1 amplitudes for spin case B:
       _       _                  _       _                  _       _               
       i       a                  i       a                  i       a               
    --------------------------------------------------------------------------------
    [  2       4    ] 0.090452 [  2       3    ] 0.088360 [  0       1    ]-0.048845 
    [  1       4    ]-0.014860 [  0       2    ]-0.010771 [  1       3    ] 0.005915 
    [  2       5    ]-0.002640 [  1       5    ] 0.002079 [  0       4    ]-0.000813 
    [  0       3    ]-0.000599 [  0       5    ] 0.000529 [  8       9    ] 0.000129 
    [  6       7    ] 0.000129 
    --------------------------------------------------------------------------------
    Norm of T1B vector: (nonzero elements: 13)                    0.136964900663449.
    --------------------------------------------------------------------------------
    Largest T2 amplitudes for spin case AA:
       i   j   a   b              i   j   a   b              i   j   a   b           
    --------------------------------------------------------------------------------
    [  0   1   1   2] 0.040629 [  1   8   1   9]-0.037847 [  1   6   1   7]-0.037847 
    [  2   6   1   7] 0.029859 [  2   8   1   9] 0.029859 [  1   8   2   9] 0.025586 
    [  1   6   2   7] 0.025586 [  2   6   2   7]-0.024647 [  2   8   2   9]-0.024647 
    [  6   8   7   9]-0.023009 [  1   2   1   3] 0.021356 [  0   2   1   2] 0.016902 
    [  0   1   1   5] 0.016264 [  1   2   2   3]-0.016090 [  1   8   4   9]-0.014377 
    --------------------------------------------------------------------------------
    Norm of T2AA vector: (nonzero elements: 240)                  0.226760087659970.
    --------------------------------------------------------------------------------
    Largest T2 amplitudes for spin case AB:
           _       _                  _       _                  _       _           
       i   j   a   b              i   j   a   b              i   j   a   b           
    --------------------------------------------------------------------------------
    [  0   0   1   1]-0.067783 [  2   2   2   3] 0.060265 [  1   2   1   3] 0.047885 
    [  6   6   7   7]-0.041683 [  8   8   9   9]-0.041683 [  1   6   1   7]-0.041333 
    [  1   8   1   9]-0.041333 [  0   0   1   2] 0.040292 [  2   6   1   7] 0.035304 
    [  2   8   1   9] 0.035304 [  2   2   1   4]-0.035073 [  2   2   3   3]-0.033890 
    [  1   2   2   4]-0.030664 [  2   6   2   7]-0.030490 [  2   8   2   9]-0.030490 
    --------------------------------------------------------------------------------
    Norm of T2AB vector: (nonzero elements: 405)                  0.298334039591771.
    --------------------------------------------------------------------------------
    Largest T2 amplitudes for spin case BB:
       _   _   _   _              _   _   _   _              _   _   _   _           
       i   j   a   b              i   j   a   b              i   j   a   b           
    --------------------------------------------------------------------------------
    [  0   1   1   2] 0.040629 [  1   8   1   9]-0.037847 [  1   6   1   7]-0.037847 
    [  2   6   1   7] 0.029859 [  2   8   1   9] 0.029859 [  1   6   2   7] 0.025586 
    [  1   8   2   9] 0.025586 [  2   6   2   7]-0.024647 [  2   8   2   9]-0.024647 
    [  6   8   7   9]-0.023009 [  1   2   1   3] 0.021356 [  0   2   1   2] 0.016902 
    [  0   1   1   5] 0.016264 [  1   2   2   3]-0.016090 [  1   6   4   7]-0.014377 
    --------------------------------------------------------------------------------
    Norm of T2BB vector: (nonzero elements: 240)                  0.226760087659970.
    --------------------------------------------------------------------------------

  ==> Possible Intruders <==

    T1 amplitudes larger than 0.1000 for spin case A: NULL
    T1 amplitudes larger than 0.1000 for spin case B: NULL
    T2 amplitudes larger than 0.1000 for spin case AA: NULL
    T2 amplitudes larger than 0.1000 for spin case AB: NULL
    T2 amplitudes larger than 0.1000 for spin case BB: NULL

  ==> Total Timings (s) for Computing Commutators <==

             [H1, T1]    [H1, T2]    [H2, T1]    [H2, T2]
    -----------------------------------------------------
    -> C0       0.019       0.049       0.182       2.444
    -> C1       0.052       0.256       0.473       6.633
    -> C2                   0.941       2.299      12.358
    -----------------------------------------------------


  Time to prepare integrals:        0.004 seconds
  Time to run job          :       26.263 seconds
  Total                    :       26.268 seconds
    MRDSRG relaxed energy.................................................................PASSED

    Psi4 stopped on: Sunday, 15 January 2023 11:18PM
    Psi4 wall time for execution: 0:00:26.53

*** Psi4 exiting successfully. Buy a developer a beer!
